 Gaussian 09, Revision A.02,
 Gaussian 09:  EM64L-G09RevA.02 11-Jun-2009

 -------------------
 #SP MP2/aug-cc-pVDZ
 -------------------

 -------------------------------
 Single Point calculation at MP2
 -------------------------------
 Symbolic Z-matrix:
 Charge =  0 Multiplicity = 1

                         Standard orientation:
 ---------------------------------------------------------------------
 Center     Atomic      Atomic             Coordinates (Angstroms)
 Number     Number       Type             X           Y           Z
 ---------------------------------------------------------------------
      1          1           0        3.377801   -1.730091   -0.390487
      2          6           0        3.205402   -0.652191   -0.443687
      3          1           0        3.249202   -0.330191   -1.489287
      4          1           0        4.017802   -0.163092    0.105513
      5          6           0        1.883402   -0.331389    0.239813
      6          8           0        1.548902   -0.843389    1.298413
      7          7           0        1.088303    0.583312   -0.409587
      8          1           0        1.451104    1.047411   -1.230987
      9          6           0       -0.120696    1.131113    0.204813
     10          1           0        0.096504    1.335313    1.258813
     11          6           0       -0.525795    2.432513   -0.494387
     12          1           0       -0.728995    2.261814   -1.559087
     13          1           0       -1.436994    2.817814   -0.031987
     14          1           0        0.262906    3.187513   -0.403187
     15          6           0       -1.329297    0.169914    0.245913
     16          8           0       -2.304997    0.468515    0.924813
     17          7           0       -1.257198   -0.930086   -0.548887
     18          1           0       -0.363799   -1.131887   -0.973187
     19          6           0       -2.284100   -1.955985   -0.544087
     20          1           0       -3.162499   -1.538984   -0.049487
     21          1           0       -2.546000   -2.244084   -1.568087
     22          1           0       -1.959501   -2.848985    0.004713
 ---------------------------------------------------------------------

 SCF Done:  E(RHF) =  -492.924702997     A.U. after   14 cycles
 E2 =    -0.1602320133D+01 EUMP2 =    -0.49452702313000D+03

 The electronic state is 1-A.
 Alpha  occ. eigenvalues --  -20.54266 -20.52171 -15.61039 -15.58904 -11.37433
 Alpha  occ. eigenvalues --  -11.35304 -11.29378 -11.26240 -11.25943 -11.24513
 Alpha  occ. eigenvalues --   -1.39774  -1.37619  -1.25316  -1.22323  -1.06087
 Alpha  occ. eigenvalues --   -1.00151  -0.95681  -0.87903  -0.81206  -0.78191
 Alpha  occ. eigenvalues --   -0.72037  -0.68893  -0.67919  -0.62870  -0.62275
 Alpha  occ. eigenvalues --   -0.62050  -0.59700  -0.59391  -0.58192  -0.55692
 Alpha  occ. eigenvalues --   -0.54611  -0.54319  -0.53730  -0.52046  -0.49401
 Alpha  occ. eigenvalues --   -0.44064  -0.43539  -0.39656  -0.38462
 Alpha virt. eigenvalues --    0.02178   0.03684   0.04024   0.04582   0.05669
 Alpha virt. eigenvalues --    0.05972   0.06406   0.06587   0.07057   0.08192
 Alpha virt. eigenvalues --    0.08579   0.09327   0.11413   0.11707   0.11827

 Mulliken atomic charges:
              1
     1  H    0.028994
     2  C    0.360099
     3  H   -0.145586
     4  H    0.057967
     5  C    0.503501
     6  O   -0.831912
     7  N   -0.339232
     8  H   -0.058377
     9  C   -0.074835
    10  H   -0.036450
    11  C    0.707449
    12  H   -0.028480
    13  H   -0.050467
    14  H   -0.062225
    15  C    1.155582
    16  O   -0.911285
    17  N   -0.582808
    18  H   -0.071500
    19  C    0.731940
    20  H   -0.142786
    21  H   -0.123336
    22  H   -0.086252
 Sum of Mulliken atomic charges =   0.00000

 Dipole moment (field-independent basis, Debye):
    X=              3.6627    Y=              0.6079    Z=             -5.3347  Tot=              6.4995
 Quadrupole moment (field-independent basis, Debye-Ang):
   XX=            -62.2931   YY=            -56.3508   ZZ=            -65.5544
   XY=              5.8597   XZ=             -0.7491   YZ=              2.3339

 Normal termination of Gaussian 09 at Mon Feb 13 13:56:07 2017.
