 Gaussian 09, Revision A.02,
 Gaussian 09:  EM64L-G09RevA.02 11-Jun-2009

 -------------------
 #SP MP2/aug-cc-pVDZ
 -------------------

 -------------------------------
 Single Point calculation at MP2
 -------------------------------
 Symbolic Z-matrix:
 Charge =  0 Multiplicity = 1

                         Standard orientation:
 ---------------------------------------------------------------------
 Center     Atomic      Atomic             Coordinates (Angstroms)
 Number     Number       Type             X           Y           Z
 ---------------------------------------------------------------------
      1          1           0        3.423894   -1.658501   -0.482092
      2          6           0        3.228396   -0.583501   -0.462992
      3          1           0        3.281697   -0.187001   -1.482092
      4          1           0        4.020497   -0.116002    0.132608
      5          6           0        1.889597   -0.337398    0.219008
      6          8           0        1.543695   -0.945997    1.224908
      7          7           0        1.102099    0.623704   -0.357392
      8          1           0        1.431800    1.086203   -1.193192
      9          6           0       -0.136900    1.118907    0.241508
     10          1           0        0.044900    1.230406    1.317308
     11          6           0       -0.491097    2.485007   -0.353192
     12          1           0       -0.630597    2.417108   -1.439692
     13          1           0       -1.427296    2.833110    0.085708
     14          1           0        0.297904    3.215506   -0.145392
     15          6           0       -1.366302    0.181909    0.161208
     16          8           0       -2.435601    0.572512    0.617508
     17          7           0       -1.199905   -1.018591   -0.454892
     18          1           0       -0.252305   -1.331293   -0.603792
     19          6           0       -2.253307   -2.020189   -0.452792
     20          1           0       -3.205406   -1.503387   -0.327292
     21          1           0       -2.254808   -2.565689   -1.401892
     22          1           0       -2.132709   -2.736789    0.370008
 ---------------------------------------------------------------------

 SCF Done:  E(RHF) =  -492.924300813     A.U. after   14 cycles
 E2 =    -0.1602385052D+01 EUMP2 =    -0.49452668586540D+03

 The electronic state is 1-A.
 Alpha  occ. eigenvalues --  -20.54366 -20.52360 -15.61119 -15.58852 -11.37601
 Alpha  occ. eigenvalues --  -11.35453 -11.29592 -11.26148 -11.26013 -11.24182
 Alpha  occ. eigenvalues --   -1.39835  -1.37803  -1.25341  -1.22352  -1.06101
 Alpha  occ. eigenvalues --   -1.00131  -0.95596  -0.87808  -0.81358  -0.78229
 Alpha  occ. eigenvalues --   -0.72364  -0.68933  -0.67690  -0.63257  -0.62216
 Alpha  occ. eigenvalues --   -0.62049  -0.59480  -0.59417  -0.58218  -0.55390
 Alpha  occ. eigenvalues --   -0.54541  -0.54285  -0.53476  -0.52201  -0.49451
 Alpha  occ. eigenvalues --   -0.44433  -0.43736  -0.39927  -0.38233
 Alpha virt. eigenvalues --    0.02280   0.03754   0.04165   0.04570   0.05767
 Alpha virt. eigenvalues --    0.06135   0.06371   0.06668   0.06906   0.08149
 Alpha virt. eigenvalues --    0.08757   0.09511   0.11460   0.11803   0.12228

 Mulliken atomic charges:
              1
     1  H    0.027348
     2  C    0.361931
     3  H   -0.146344
     4  H    0.058936
     5  C    0.454117
     6  O   -0.829214
     7  N   -0.346039
     8  H   -0.052298
     9  C   -0.018400
    10  H    0.026708
    11  C    0.718769
    12  H   -0.044589
    13  H   -0.057844
    14  H   -0.054237
    15  C    0.981523
    16  O   -0.883976
    17  N   -0.511761
    18  H   -0.059834
    19  C    0.734609
    20  H   -0.142246
    21  H   -0.142872
    22  H   -0.074287
 Sum of Mulliken atomic charges =   0.00000

 Dipole moment (field-independent basis, Debye):
    X=              3.8725    Y=              0.5173    Z=             -4.3058  Tot=              5.8141
 Quadrupole moment (field-independent basis, Debye-Ang):
   XX=            -63.5918   YY=            -56.8529   ZZ=            -64.3474
   XY=              6.7912   XZ=             -2.1442   YZ=              2.4305

 Normal termination of Gaussian 09 at Mon Feb 13 13:46:22 2017.
