 Gaussian 09, Revision A.02,
 Gaussian 09:  EM64L-G09RevA.02 11-Jun-2009

 -------------------
 #SP MP2/aug-cc-pVDZ
 -------------------

 -------------------------------
 Single Point calculation at MP2
 -------------------------------
 Symbolic Z-matrix:
 Charge =  0 Multiplicity = 1

                         Standard orientation:
 ---------------------------------------------------------------------
 Center     Atomic      Atomic             Coordinates (Angstroms)
 Number     Number       Type             X           Y           Z
 ---------------------------------------------------------------------
      1          1           0       -3.894713   -1.272401    0.011306
      2          6           0       -3.131411   -0.811705    0.642506
      3          1           0       -2.841114   -1.544806    1.404306
      4          1           0       -3.552407    0.064397    1.145406
      5          6           0       -1.920110   -0.481110   -0.213694
      6          8           0       -1.540913   -1.206311   -1.125394
      7          7           0       -1.286305    0.702288    0.093506
      8          1           0       -1.439703    1.071888    1.024406
      9          6           0        0.035296    0.966582   -0.462494
     10          1           0       -0.010905    0.680882   -1.516694
     11          6           0        0.378703    2.453880   -0.330094
     12          1           0        0.441004    2.737480    0.726306
     13          1           0        1.349004    2.665176   -0.791294
     14          1           0       -0.384295    3.066784   -0.819894
     15          6           0        1.092193    0.122977    0.279206
     16          8           0        1.125693    0.103877    1.505306
     17          7           0        2.004190   -0.502726   -0.516694
     18          1           0        1.768590   -0.611025   -1.493694
     19          6           0        3.037386   -1.366431    0.032106
     20          1           0        3.214788   -1.059132    1.063506
     21          1           0        2.732882   -2.420930    0.029406
     22          1           0        3.961087   -1.260935   -0.545294
 ---------------------------------------------------------------------

 SCF Done:  E(RHF) =  -492.928379578     A.U. after   14 cycles
 E2 =    -0.1600249778D+01 EUMP2 =    -0.49452862935619D+03

 The electronic state is 1-A.
 Alpha  occ. eigenvalues --  -20.53554 -20.53181 -15.59646 -15.59471 -11.36429
 Alpha  occ. eigenvalues --  -11.35778 -11.29093 -11.26703 -11.24641 -11.24145
 Alpha  occ. eigenvalues --   -1.39131  -1.38175  -1.23915  -1.23217  -1.05592
 Alpha  occ. eigenvalues --   -0.99291  -0.95892  -0.87309  -0.79917  -0.78292
 Alpha  occ. eigenvalues --   -0.72723  -0.67704  -0.66632  -0.63755  -0.62267
 Alpha  occ. eigenvalues --   -0.61662  -0.59802  -0.58404  -0.57372  -0.56233
 Alpha  occ. eigenvalues --   -0.54646  -0.53808  -0.52490  -0.51349  -0.50659
 Alpha  occ. eigenvalues --   -0.43643  -0.42861  -0.40089  -0.38929
 Alpha virt. eigenvalues --    0.03206   0.03750   0.04373   0.04881   0.05827
 Alpha virt. eigenvalues --    0.05947   0.06279   0.07064   0.07212   0.07673
 Alpha virt. eigenvalues --    0.09160   0.09478   0.10853   0.12040   0.12951

 Mulliken atomic charges:
              1
     1  H    0.001603
     2  C    0.368753
     3  H    0.061483
     4  H   -0.094931
     5  C    0.605013
     6  O   -0.854537
     7  N   -0.353907
     8  H   -0.021355
     9  C   -0.115934
    10  H   -0.289129
    11  C    0.751494
    12  H   -0.030250
    13  H   -0.039653
    14  H   -0.018983
    15  C    1.146181
    16  O   -0.880662
    17  N   -0.519819
    18  H   -0.078952
    19  C    0.727243
    20  H   -0.134262
    21  H   -0.075208
    22  H   -0.154188
 Sum of Mulliken atomic charges =   0.00000

 Dipole moment (field-independent basis, Debye):
    X=              0.1163    Y=              1.5355    Z=             -0.6981  Tot=              1.6908
 Quadrupole moment (field-independent basis, Debye-Ang):
   XX=            -52.5588   YY=            -60.5600   ZZ=            -65.7381
   XY=             -4.5132   XZ=            -10.6606   YZ=             -2.7836

 Normal termination of Gaussian 09 at Mon Feb 13 12:55:32 2017.
