 Gaussian 09, Revision A.02,
 Gaussian 09:  EM64L-G09RevA.02 11-Jun-2009

 -------------------
 #SP MP2/aug-cc-pVDZ
 -------------------

 -------------------------------
 Single Point calculation at MP2
 -------------------------------
 Symbolic Z-matrix:
 Charge =  0 Multiplicity = 1

                         Standard orientation:
 ---------------------------------------------------------------------
 Center     Atomic      Atomic             Coordinates (Angstroms)
 Number     Number       Type             X           Y           Z
 ---------------------------------------------------------------------
      1          1           0       -3.890605   -0.948602    0.066786
      2          6           0       -3.066104   -0.712102    0.745586
      3          1           0       -2.900505   -1.591302    1.376686
      4          1           0       -3.355804    0.131298    1.379586
      5          6           0       -1.816804   -0.455003   -0.079114
      6          8           0       -1.422805   -1.262404   -0.922214
      7          7           0       -1.178503    0.728296    0.151486
      8          1           0       -1.439203    1.276096    0.960586
      9          6           0        0.090497    1.062295   -0.505514
     10          1           0       -0.017403    0.753995   -1.549614
     11          6           0        0.347899    2.562795   -0.416114
     12          1           0        0.527899    2.857694    0.622286
     13          1           0        1.242599    2.826594   -0.987614
     14          1           0       -0.501801    3.123395   -0.819014
     15          6           0        1.251496    0.264494    0.140686
     16          8           0        1.903197    0.716393    1.076686
     17          7           0        1.484295   -0.942106   -0.446214
     18          1           0        0.716095   -1.313706   -0.999014
     19          6           0        2.447194   -1.875807    0.114786
     20          1           0        3.275795   -1.305108    0.537386
     21          1           0        2.012094   -2.493007    0.912586
     22          1           0        2.822094   -2.532608   -0.675214
 ---------------------------------------------------------------------

 SCF Done:  E(RHF) =  -492.928874718     A.U. after   14 cycles
 E2 =    -0.1602829725D+01 EUMP2 =    -0.49453170444280D+03

 The electronic state is 1-A.
 Alpha  occ. eigenvalues --  -20.54324 -20.52812 -15.61093 -15.58184 -11.37683
 Alpha  occ. eigenvalues --  -11.35208 -11.29374 -11.25928 -11.25696 -11.23653
 Alpha  occ. eigenvalues --   -1.39738  -1.37821  -1.25033  -1.22212  -1.05970
 Alpha  occ. eigenvalues --   -0.99960  -0.95520  -0.87118  -0.81176  -0.77506
 Alpha  occ. eigenvalues --   -0.72277  -0.69002  -0.67197  -0.64016  -0.62009
 Alpha  occ. eigenvalues --   -0.61445  -0.59910  -0.59146  -0.57797  -0.55210
 Alpha  occ. eigenvalues --   -0.54076  -0.53560  -0.52462  -0.51494  -0.51359
 Alpha  occ. eigenvalues --   -0.44624  -0.43662  -0.39704  -0.38175
 Alpha virt. eigenvalues --    0.02793   0.04085   0.04186   0.04790   0.05733
 Alpha virt. eigenvalues --    0.06089   0.06375   0.06991   0.07213   0.08170
 Alpha virt. eigenvalues --    0.09167   0.09827   0.11478   0.11721   0.12310

 Mulliken atomic charges:
              1
     1  H    0.044991
     2  C    0.400600
     3  H    0.051900
     4  H   -0.144986
     5  C    0.606149
     6  O   -0.899510
     7  N   -0.459945
     8  H   -0.056250
     9  C   -0.053352
    10  H   -0.268800
    11  C    0.712464
    12  H   -0.000905
    13  H   -0.045355
    14  H   -0.013768
    15  C    1.135078
    16  O   -0.841266
    17  N   -0.540515
    18  H   -0.017881
    19  C    0.754394
    20  H   -0.125201
    21  H   -0.079592
    22  H   -0.158250
 Sum of Mulliken atomic charges =   0.00000

 Dipole moment (field-independent basis, Debye):
    X=             -2.7857    Y=              0.6118    Z=              0.1810  Tot=              2.8579
 Quadrupole moment (field-independent basis, Debye-Ang):
   XX=            -59.4110   YY=            -59.4036   ZZ=            -63.9565
   XY=             -7.0542   XZ=             -9.8457   YZ=             -4.1499

 Normal termination of Gaussian 09 at Mon Feb 13 14:38:57 2017.
