 Gaussian 09, Revision A.02,
 Gaussian 09:  EM64L-G09RevA.02 11-Jun-2009

 -------------------
 #SP MP2/aug-cc-pVDZ
 -------------------

 -------------------------------
 Single Point calculation at MP2
 -------------------------------
 Symbolic Z-matrix:
 Charge =  0 Multiplicity = 1

                         Standard orientation:
 ---------------------------------------------------------------------
 Center     Atomic      Atomic             Coordinates (Angstroms)
 Number     Number       Type             X           Y           Z
 ---------------------------------------------------------------------
      1          1           0       -3.907995   -1.119918    0.579808
      2          6           0       -2.942197   -0.852711    1.011808
      3          1           0       -2.439891   -1.774308    1.330508
      4          1           0       -3.096101   -0.222812    1.895108
      5          6           0       -2.096601   -0.170806   -0.051892
      6          8           0       -2.287400   -0.321307   -1.245192
      7          7           0       -1.122507    0.688900    0.448708
      8          1           0       -0.948006    0.589202    1.443808
      9          6           0        0.079791    0.967708   -0.337692
     10          1           0       -0.266209    1.005406   -1.375592
     11          6           0        0.664082    2.327712    0.051108
     12          1           0        0.984482    2.355414    1.101108
     13          1           0        1.520781    2.590318   -0.580292
     14          1           0       -0.097323    3.101507   -0.080192
     15          6           0        1.034299   -0.256486   -0.281792
     16          8           0        0.649206   -1.365688   -0.624592
     17          7           0        2.278398   -0.035678    0.244208
     18          1           0        2.564892    0.910524    0.443508
     19          6           0        3.280204   -1.085571    0.326708
     20          1           0        2.775311   -2.033574    0.137108
     21          1           0        4.072804   -0.950766   -0.420092
     22          1           0        3.734105   -1.106668    1.323608
 ---------------------------------------------------------------------

 SCF Done:  E(RHF) =  -492.914068525     A.U. after   14 cycles
 E2 =    -0.1602656339D+01 EUMP2 =    -0.49451672486324D+03

 The electronic state is 1-A.
 Alpha  occ. eigenvalues --  -20.52869 -20.52628 -15.60136 -15.59302 -11.36104
 Alpha  occ. eigenvalues --  -11.35624 -11.29308 -11.27143 -11.25172 -11.24094
 Alpha  occ. eigenvalues --   -1.38835  -1.37652  -1.23884  -1.23098  -1.05602
 Alpha  occ. eigenvalues --   -0.98992  -0.95790  -0.88610  -0.79333  -0.78642
 Alpha  occ. eigenvalues --   -0.72574  -0.67037  -0.65582  -0.64709  -0.62424
 Alpha  occ. eigenvalues --   -0.61274  -0.59067  -0.58590  -0.57233  -0.56406
 Alpha  occ. eigenvalues --   -0.55039  -0.54814  -0.53036  -0.50669  -0.50258
 Alpha  occ. eigenvalues --   -0.44322  -0.41905  -0.39542  -0.38520
 Alpha virt. eigenvalues --    0.02402   0.03627   0.03942   0.04595   0.05546
 Alpha virt. eigenvalues --    0.05988   0.06140   0.06738   0.07335   0.08123
 Alpha virt. eigenvalues --    0.08757   0.09167   0.11359   0.11988   0.12588

 Mulliken atomic charges:
              1
     1  H   -0.037462
     2  C    0.305678
     3  H    0.069565
     4  H   -0.054381
     5  C    0.750461
     6  O   -0.828166
     7  N   -0.550281
     8  H   -0.051425
     9  C   -0.163262
    10  H   -0.094315
    11  C    0.814099
    12  H    0.042165
    13  H    0.016222
    14  H   -0.153876
    15  C    1.056648
    16  O   -0.855048
    17  N   -0.530406
    18  H   -0.150020
    19  C    0.776187
    20  H   -0.146891
    21  H   -0.083868
    22  H   -0.131624
 Sum of Mulliken atomic charges =   0.00000

 Dipole moment (field-independent basis, Debye):
    X=              3.4102    Y=              3.2204    Z=              4.5833  Tot=              6.5580
 Quadrupole moment (field-independent basis, Debye-Ang):
   XX=            -54.8406   YY=            -62.0507   ZZ=            -63.0210
   XY=              2.5259   XZ=             -7.0162   YZ=             -4.0015

 Normal termination of Gaussian 09 at Mon Feb 13 12:58:58 2017.
