 Gaussian 09, Revision A.02,
 Gaussian 09:  EM64L-G09RevA.02 11-Jun-2009

 -------------------
 #SP MP2/aug-cc-pVDZ
 -------------------

 -------------------------------
 Single Point calculation at MP2
 -------------------------------
 Symbolic Z-matrix:
 Charge =  0 Multiplicity = 1

                         Standard orientation:
 ---------------------------------------------------------------------
 Center     Atomic      Atomic             Coordinates (Angstroms)
 Number     Number       Type             X           Y           Z
 ---------------------------------------------------------------------
      1          1           0        4.062411   -0.682297   -0.504506
      2          6           0        3.076212   -0.751800   -0.971006
      3          1           0        2.913816   -1.801901   -1.237206
      4          1           0        3.070410   -0.152200   -1.887406
      5          6           0        2.025410   -0.333804    0.050394
      6          8           0        2.018312   -0.765804    1.191694
      7          7           0        1.098507    0.573992   -0.406306
      8          1           0        1.131506    0.844993   -1.379406
      9          6           0       -0.050095    1.008788    0.388094
     10          1           0        0.301405    1.085590    1.419994
     11          6           0       -0.545500    2.372686   -0.098506
     12          1           0       -0.854700    2.353985   -1.152206
     13          1           0       -1.407601    2.698683    0.490794
     14          1           0        0.248098    3.119789    0.003994
     15          6           0       -1.163791   -0.067416    0.464994
     16          8           0       -1.389889   -0.682217    1.495094
     17          7           0       -1.916890   -0.215719   -0.672406
     18          1           0       -1.601292    0.234983   -1.519306
     19          6           0       -2.935886   -1.245022   -0.792406
     20          1           0       -3.216485   -1.546223    0.217494
     21          1           0       -3.814688   -0.850825   -1.313306
     22          1           0       -2.569683   -2.128921   -1.331606
 ---------------------------------------------------------------------

 SCF Done:  E(RHF) =  -492.914617790     A.U. after   14 cycles
 E2 =    -0.1601690129D+01 EUMP2 =    -0.49451630791890D+03

 The electronic state is 1-A.
 Alpha  occ. eigenvalues --  -20.52983 -20.52879 -15.60440 -15.59504 -11.36426
 Alpha  occ. eigenvalues --  -11.35568 -11.29372 -11.26800 -11.25342 -11.25063
 Alpha  occ. eigenvalues --   -1.38769  -1.37985  -1.24660  -1.22670  -1.06064
 Alpha  occ. eigenvalues --   -0.99598  -0.95606  -0.88670  -0.80659  -0.78644
 Alpha  occ. eigenvalues --   -0.72118  -0.67717  -0.66983  -0.63868  -0.62052
 Alpha  occ. eigenvalues --   -0.61810  -0.59317  -0.58846  -0.57916  -0.56461
 Alpha  occ. eigenvalues --   -0.55086  -0.54613  -0.52809  -0.51790  -0.50587
 Alpha  occ. eigenvalues --   -0.44077  -0.42377  -0.39192  -0.38591
 Alpha virt. eigenvalues --    0.01979   0.03569   0.03797   0.04530   0.05424
 Alpha virt. eigenvalues --    0.05783   0.06339   0.06639   0.07260   0.07707
 Alpha virt. eigenvalues --    0.08711   0.09142   0.10831   0.11851   0.12138

 Mulliken atomic charges:
              1
     1  H    0.029407
     2  C    0.356992
     3  H    0.053431
     4  H   -0.167394
     5  C    0.618577
     6  O   -0.825626
     7  N   -0.336371
     8  H   -0.075336
     9  C    0.128035
    10  H   -0.188280
    11  C    0.826096
    12  H   -0.122956
    13  H   -0.035863
    14  H   -0.053410
    15  C    0.891594
    16  O   -0.808798
    17  N   -0.574066
    18  H   -0.095202
    19  C    0.730765
    20  H   -0.127403
    21  H   -0.141609
    22  H   -0.082584
 Sum of Mulliken atomic charges =   0.00000

 Dipole moment (field-independent basis, Debye):
    X=             -0.3135    Y=              3.0043    Z=             -6.9523  Tot=              7.5802
 Quadrupole moment (field-independent basis, Debye-Ang):
   XX=            -58.0118   YY=            -59.4986   ZZ=            -65.1910
   XY=              1.0726   XZ=             -1.7939   YZ=              5.3404

 Normal termination of Gaussian 09 at Mon Feb 13 14:31:44 2017.
