 Gaussian 09, Revision A.02,
 Gaussian 09:  EM64L-G09RevA.02 11-Jun-2009

 -------------------
 #SP MP2/aug-cc-pVDZ
 -------------------

 -------------------------------
 Single Point calculation at MP2
 -------------------------------
 Symbolic Z-matrix:
 Charge =  0 Multiplicity = 1

                         Standard orientation:
 ---------------------------------------------------------------------
 Center     Atomic      Atomic             Coordinates (Angstroms)
 Number     Number       Type             X           Y           Z
 ---------------------------------------------------------------------
      1          1           0        3.395520   -1.765356   -0.358177
      2          6           0        3.210107   -0.693058   -0.457277
      3          1           0        3.235804   -0.417758   -1.516677
      4          1           0        4.023201   -0.169848    0.058723
      5          6           0        1.891603   -0.358574    0.225623
      6          8           0        1.560409   -0.846978    1.295223
      7          7           0        1.086392    0.535517   -0.445077
      8          1           0        1.480386    1.032922   -1.232977
      9          6           0       -0.086915    1.123803    0.203923
     10          1           0        0.171282    1.376006    1.237523
     11          6           0       -0.527730    2.386398   -0.543277
     12          1           0       -0.791327    2.158594   -1.582977
     13          1           0       -1.408935    2.807287   -0.052777
     14          1           0        0.266061    3.142307   -0.537277
     15          6           0       -1.280503    0.154089    0.330923
     16          8           0       -2.127305    0.339978    1.194623
     17          7           0       -1.374292   -0.791813   -0.645877
     18          1           0       -0.544890   -0.947803   -1.202177
     19          6           0       -2.410280   -1.809225   -0.631677
     20          1           0       -3.218484   -1.447635    0.005723
     21          1           0       -2.792678   -1.978129   -1.643977
     22          1           0       -2.043168   -2.761121   -0.226477
 ---------------------------------------------------------------------

 SCF Done:  E(RHF) =  -492.924369484     A.U. after   14 cycles
 E2 =    -0.1602082299D+01 EUMP2 =    -0.49452645178305D+03

 The electronic state is 1-A.
 Alpha  occ. eigenvalues --  -20.54272 -20.52266 -15.60940 -15.58792 -11.37319
 Alpha  occ. eigenvalues --  -11.35203 -11.29279 -11.26216 -11.25854 -11.24784
 Alpha  occ. eigenvalues --   -1.39761  -1.37631  -1.25250  -1.22200  -1.06113
 Alpha  occ. eigenvalues --   -1.00161  -0.95529  -0.87987  -0.81059  -0.77913
 Alpha  occ. eigenvalues --   -0.71536  -0.68964  -0.68021  -0.62651  -0.62523
 Alpha  occ. eigenvalues --   -0.62017  -0.59586  -0.59250  -0.58185  -0.55787
 Alpha  occ. eigenvalues --   -0.54715  -0.54306  -0.53938  -0.51945  -0.49508
 Alpha  occ. eigenvalues --   -0.43735  -0.43484  -0.39702  -0.38647
 Alpha virt. eigenvalues --    0.02156   0.03645   0.03939   0.04583   0.05592
 Alpha virt. eigenvalues --    0.05851   0.06408   0.06603   0.07157   0.08081
 Alpha virt. eigenvalues --    0.08533   0.09236   0.11211   0.11673   0.11840

 Mulliken atomic charges:
              1
     1  H    0.022412
     2  C    0.373203
     3  H   -0.146561
     4  H    0.059231
     5  C    0.517515
     6  O   -0.828589
     7  N   -0.340446
     8  H   -0.050247
     9  C    0.028724
    10  H   -0.139330
    11  C    0.703925
    12  H   -0.007062
    13  H   -0.054439
    14  H   -0.064840
    15  C    1.152262
    16  O   -0.900200
    17  N   -0.646932
    18  H   -0.049203
    19  C    0.726006
    20  H   -0.136093
    21  H   -0.136712
    22  H   -0.082623
 Sum of Mulliken atomic charges =   0.00000

 Dipole moment (field-independent basis, Debye):
    X=              3.3289    Y=              0.9807    Z=             -5.9041  Tot=              6.8485
 Quadrupole moment (field-independent basis, Debye-Ang):
   XX=            -60.1969   YY=            -56.4406   ZZ=            -66.6865
   XY=              5.1337   XZ=              0.2057   YZ=              2.4970

 Normal termination of Gaussian 09 at Mon Feb 13 14:33:08 2017.
