 Gaussian 09, Revision A.02,
 Gaussian 09:  EM64L-G09RevA.02 11-Jun-2009

 ----------------------------------------------------------------------
 # b3lyp/6-31G* Opt=(ModRedundant, maxcycles=1000, calcfc) geom=nocrowd
 ----------------------------------------------------------------------

 ------------------
 Phi Psi fixed scan
 ------------------
 Symbolic Z-matrix:
 Charge =  0 Multiplicity = 1

 SCF Done:  E(RB3LYP) =  -990.484255910     A.U. after   14 cycles

  Exact polarizability:   0.000   0.000   0.000   0.000   0.000   0.000
 Approx polarizability: 244.532   3.765 246.820  -3.781 -28.669 175.825

 SCF Done:  E(RB3LYP) =  -990.494131841     A.U. after   15 cycles
 SCF Done:  E(RB3LYP) =  -990.503531677     A.U. after   13 cycles
 SCF Done:  E(RB3LYP) =  -990.505167956     A.U. after   12 cycles
 SCF Done:  E(RB3LYP) =  -990.506280940     A.U. after   14 cycles
 SCF Done:  E(RB3LYP) =  -990.507023832     A.U. after   12 cycles
 SCF Done:  E(RB3LYP) =  -990.507264177     A.U. after   13 cycles
 SCF Done:  E(RB3LYP) =  -990.507199918     A.U. after   12 cycles
 SCF Done:  E(RB3LYP) =  -990.507314671     A.U. after   12 cycles
 SCF Done:  E(RB3LYP) =  -990.507240299     A.U. after   12 cycles
 SCF Done:  E(RB3LYP) =  -990.507362440     A.U. after    9 cycles
 SCF Done:  E(RB3LYP) =  -990.507362355     A.U. after   10 cycles
 SCF Done:  E(RB3LYP) =  -990.507362885     A.U. after   10 cycles
 SCF Done:  E(RB3LYP) =  -990.507365378     A.U. after    9 cycles
 SCF Done:  E(RB3LYP) =  -990.507374514     A.U. after    9 cycles
 SCF Done:  E(RB3LYP) =  -990.507386717     A.U. after   10 cycles
 SCF Done:  E(RB3LYP) =  -990.507395609     A.U. after   10 cycles
 SCF Done:  E(RB3LYP) =  -990.507396349     A.U. after    9 cycles
 SCF Done:  E(RB3LYP) =  -990.507396119     A.U. after    7 cycles
 SCF Done:  E(RB3LYP) =  -990.507395464     A.U. after    7 cycles
 Optimization completed.
    -- Stationary point found.

                         Standard orientation:
 ---------------------------------------------------------------------
 Center     Atomic      Atomic             Coordinates (Angstroms)
 Number     Number       Type             X           Y           Z
 ---------------------------------------------------------------------
      1          1           0        6.848444   -1.939690    1.578415
      2          6           0        6.749561   -1.281623    0.709449
      3          1           0        6.615082   -1.892644   -0.188432
      4          1           0        7.683693   -0.718287    0.620088
      5          6           0        5.608611   -0.305393    0.960571
      6          8           0        5.601578    0.453040    1.926806
      7          7           0        4.606302   -0.328059    0.039517
      8          1           0        4.575115   -1.009483   -0.710298
      9          6           0        3.414272    0.486033    0.173063
     10          1           0        3.112212    0.487228    1.227650
     11          6           0        3.658550    1.943537   -0.265584
     12          1           0        3.948969    1.982110   -1.320790
     13          1           0        2.763671    2.560784   -0.127023
     14          1           0        4.464625    2.361555    0.342422
     15          6           0        2.320122   -0.183647   -0.679859
     16          8           0        2.603008   -1.034837   -1.524723
     17          7           0        1.063448    0.254876   -0.429988
     18          1           0        0.918119    1.056802    0.175631
     19          6           0       -0.135650   -0.145883   -1.161100
     20          1           0       -0.069955    0.216870   -2.199047
     21          6           0       -0.331877   -1.668514   -1.187065
     22          1           0       -0.511085   -2.059290   -0.179952
     23          1           0       -1.175444   -1.942362   -1.830815
     24          1           0        0.564411   -2.138582   -1.592419
     25          6           0       -1.285734    0.635257   -0.482906
     26          8           0       -1.068070    1.730069    0.042571
     27          7           0       -2.506450    0.060358   -0.485877
     28          1           0       -2.672691   -0.876494   -0.836485
     29          6           0       -3.659492    0.691721    0.131880
     30          1           0       -3.343571    1.117945    1.092150
     31          6           0       -4.239780    1.819420   -0.742760
     32          1           0       -4.578032    1.421086   -1.704761
     33          1           0       -5.089218    2.306210   -0.250838
     34          1           0       -3.465607    2.570569   -0.917788
     35          6           0       -4.691662   -0.426025    0.364042
     36          8           0       -4.604020   -1.503314   -0.221185
     37          7           0       -5.694283   -0.114720    1.224911
     38          1           0       -5.671040    0.784008    1.685962
     39          6           0       -6.786792   -1.024702    1.531046
     40          1           0       -6.636107   -1.928428    0.939888
     41          1           0       -6.792252   -1.288520    2.594606
     42          1           0       -7.753202   -0.579338    1.269487
 ---------------------------------------------------------------------

 The electronic state is 1-A.
 Alpha  occ. eigenvalues --  -19.13688 -19.12790 -19.11983 -19.09211 -14.38611
 Alpha  occ. eigenvalues --  -14.37156 -14.36115 -14.34255 -10.30851 -10.30059
 Alpha  occ. eigenvalues --  -10.28997 -10.27223 -10.25305 -10.24639 -10.23550
 Alpha  occ. eigenvalues --  -10.22852 -10.19872 -10.18509 -10.17979 -10.17703
 Alpha  occ. eigenvalues --   -1.05820  -1.04773  -1.03674  -1.01183  -0.94392
 Alpha  occ. eigenvalues --   -0.93766  -0.92686  -0.90754  -0.80132  -0.77723
 Alpha  occ. eigenvalues --   -0.75339  -0.72555  -0.71462  -0.67831  -0.66517
 Alpha  occ. eigenvalues --   -0.63718  -0.61164  -0.59515  -0.57730  -0.56679
 Alpha  occ. eigenvalues --   -0.56088  -0.52738  -0.49788  -0.49185  -0.48375
 Alpha  occ. eigenvalues --   -0.47408  -0.47237  -0.46232  -0.45014  -0.44646
 Alpha  occ. eigenvalues --   -0.44038  -0.43701  -0.43159  -0.42316  -0.41621
 Alpha  occ. eigenvalues --   -0.41074  -0.40719  -0.40412  -0.39797  -0.39109
 Alpha  occ. eigenvalues --   -0.39018  -0.38323  -0.38169  -0.37799  -0.37372
 Alpha  occ. eigenvalues --   -0.36654  -0.36071  -0.35359  -0.33212  -0.28107
 Alpha  occ. eigenvalues --   -0.27810  -0.26915  -0.26557  -0.25929  -0.25507
 Alpha  occ. eigenvalues --   -0.23739  -0.23203
 Alpha virt. eigenvalues --    0.00260   0.01276   0.02414   0.04455   0.05338
 Alpha virt. eigenvalues --    0.08667   0.10032   0.10456   0.10780   0.12331
 Alpha virt. eigenvalues --    0.12849   0.13318   0.13680   0.14354   0.14671

 Mulliken atomic charges:
              1
     1  H    0.180128
     2  C   -0.532844
     3  H    0.146995
     4  H    0.180533
     5  C    0.595713
     6  O   -0.525804
     7  N   -0.604753
     8  H    0.345545
     9  C   -0.029735
    10  H    0.173964
    11  C   -0.450647
    12  H    0.153863
    13  H    0.145771
    14  H    0.189318
    15  C    0.617494
    16  O   -0.543265
    17  N   -0.636532
    18  H    0.358505
    19  C    0.000829
    20  H    0.178924
    21  C   -0.487337
    22  H    0.158293
    23  H    0.147409
    24  H    0.210313
    25  C    0.600711
    26  O   -0.545977
    27  N   -0.628082
    28  H    0.365238
    29  C   -0.031971
    30  H    0.173246
    31  C   -0.446405
    32  H    0.162930
    33  H    0.140195
    34  H    0.191781
    35  C    0.606643
    36  O   -0.527778
    37  N   -0.592852
    38  H    0.333309
    39  C   -0.314892
    40  H    0.209475
    41  H    0.166648
    42  H    0.165103
 Sum of Mulliken atomic charges =   0.00000

 Dipole moment (field-independent basis, Debye):
    X=             -6.9851    Y=              0.2123    Z=              0.0323  Tot=              6.9884
 Quadrupole moment (field-independent basis, Debye-Ang):
   XX=            -99.7501   YY=           -123.1974   ZZ=           -122.3133
   XY=            -13.6284   XZ=            -22.1661   YZ=             -4.7445

 Normal termination of Gaussian 09 at Thu Dec 29 09:46:08 2016.
