 Gaussian 09, Revision A.02,
 Gaussian 09:  EM64L-G09RevA.02 11-Jun-2009

 ----------------------------------------------------------------------
 # b3lyp/6-31G* Opt=(ModRedundant, maxcycles=1000, calcfc) geom=nocrowd
 ----------------------------------------------------------------------

 ------------------
 Phi Psi fixed scan
 ------------------
 Symbolic Z-matrix:
 Charge =  0 Multiplicity = 1

 SCF Done:  E(RB3LYP) =  -990.482630130     A.U. after   15 cycles

  Exact polarizability:   0.000   0.000   0.000   0.000   0.000   0.000
 Approx polarizability: 248.386   3.594 246.700  20.387  -4.286 171.966

 SCF Done:  E(RB3LYP) =  -990.489664283     A.U. after   12 cycles
 SCF Done:  E(RB3LYP) =  -990.497257665     A.U. after   13 cycles
 SCF Done:  E(RB3LYP) =  -990.499212567     A.U. after   12 cycles
 SCF Done:  E(RB3LYP) =  -990.500930283     A.U. after   13 cycles
 SCF Done:  E(RB3LYP) =  -990.501191225     A.U. after   13 cycles
 SCF Done:  E(RB3LYP) =  -990.501512776     A.U. after   13 cycles
 SCF Done:  E(RB3LYP) =  -990.499332410     A.U. after   14 cycles
 SCF Done:  E(RB3LYP) =  -990.501622166     A.U. after   14 cycles
 SCF Done:  E(RB3LYP) =  -990.501733926     A.U. after   11 cycles
 SCF Done:  E(RB3LYP) =  -990.501778976     A.U. after   10 cycles
 SCF Done:  E(RB3LYP) =  -990.501783239     A.U. after   10 cycles
 SCF Done:  E(RB3LYP) =  -990.501786423     A.U. after    9 cycles
 SCF Done:  E(RB3LYP) =  -990.501790957     A.U. after    9 cycles
 SCF Done:  E(RB3LYP) =  -990.501795546     A.U. after    9 cycles
 SCF Done:  E(RB3LYP) =  -990.501801087     A.U. after   10 cycles
 SCF Done:  E(RB3LYP) =  -990.501802113     A.U. after    8 cycles
 SCF Done:  E(RB3LYP) =  -990.501802569     A.U. after    8 cycles
 SCF Done:  E(RB3LYP) =  -990.501802681     A.U. after    7 cycles
 SCF Done:  E(RB3LYP) =  -990.501802656     A.U. after    6 cycles
 Optimization completed.
    -- Stationary point found.

                         Standard orientation:
 ---------------------------------------------------------------------
 Center     Atomic      Atomic             Coordinates (Angstroms)
 Number     Number       Type             X           Y           Z
 ---------------------------------------------------------------------
      1          1           0       -6.876026    1.563838   -0.347432
      2          6           0       -6.101079    1.138193   -0.992462
      3          1           0       -6.143797    1.671122   -1.947472
      4          1           0       -6.321514    0.080068   -1.163646
      5          6           0       -4.741506    1.384646   -0.354727
      6          8           0       -4.339809    2.514975   -0.091843
      7          7           0       -4.005579    0.268739   -0.091873
      8          1           0       -4.309073   -0.658480   -0.365790
      9          6           0       -2.665491    0.341134    0.454766
     10          1           0       -2.127365    1.154087   -0.048952
     11          6           0       -2.677666    0.629513    1.970122
     12          1           0       -3.185794   -0.176089    2.510347
     13          1           0       -1.662716    0.732970    2.372120
     14          1           0       -3.210172    1.567980    2.141107
     15          6           0       -1.984033   -1.004442    0.144991
     16          8           0       -2.637445   -1.988140   -0.191313
     17          7           0       -0.626251   -1.002598    0.285561
     18          1           0       -0.225898   -0.196370    0.749056
     19          6           0        0.207681   -2.213330    0.253164
     20          1           0       -0.051306   -2.871767    1.090222
     21          6           0        0.060727   -2.999092   -1.063239
     22          1           0        0.318548   -2.365153   -1.918807
     23          1           0        0.742248   -3.854852   -1.040921
     24          1           0       -0.963815   -3.351177   -1.181425
     25          6           0        1.690646   -1.858648    0.441249
     26          8           0        2.463630   -2.656342    0.961355
     27          7           0        2.079564   -0.636972   -0.015349
     28          1           0        1.461972   -0.035898   -0.551419
     29          6           0        3.456965   -0.182687    0.053431
     30          1           0        3.838484   -0.413451    1.055049
     31          6           0        4.356835   -0.872575   -0.990667
     32          1           0        4.004817   -0.651278   -2.003643
     33          1           0        5.395294   -0.533790   -0.903890
     34          1           0        4.328041   -1.952431   -0.827389
     35          6           0        3.418745    1.339016   -0.168401
     36          8           0        2.459126    1.873669   -0.720095
     37          7           0        4.518954    2.014210    0.253205
     38          1           0        5.249510    1.498019    0.722942
     39          6           0        4.686973    3.447392    0.071180
     40          1           0        3.802584    3.817322   -0.448429
     41          1           0        4.775765    3.958101    1.036600
     42          1           0        5.576604    3.665565   -0.530323
 ---------------------------------------------------------------------

 The electronic state is 1-A.
 Alpha  occ. eigenvalues --  -19.13438 -19.13072 -19.11895 -19.09743 -14.38436
 Alpha  occ. eigenvalues --  -14.37511 -14.36804 -14.34882 -10.30611 -10.30010
 Alpha  occ. eigenvalues --  -10.29461 -10.27753 -10.25068 -10.24306 -10.23680
 Alpha  occ. eigenvalues --  -10.23374 -10.19536 -10.18565 -10.18381 -10.18139
 Alpha  occ. eigenvalues --   -1.05515  -1.04960  -1.03836  -1.01762  -0.94409
 Alpha  occ. eigenvalues --   -0.94149  -0.92610  -0.91390  -0.79852  -0.77900
 Alpha  occ. eigenvalues --   -0.75845  -0.72390  -0.71994  -0.67829  -0.66168
 Alpha  occ. eigenvalues --   -0.63894  -0.60805  -0.59486  -0.58290  -0.57301
 Alpha  occ. eigenvalues --   -0.56155  -0.53328  -0.49484  -0.48867  -0.48550
 Alpha  occ. eigenvalues --   -0.48190  -0.47069  -0.46426  -0.45386  -0.44793
 Alpha  occ. eigenvalues --   -0.44164  -0.43803  -0.42955  -0.42389  -0.41477
 Alpha  occ. eigenvalues --   -0.41064  -0.40934  -0.40739  -0.40237  -0.39214
 Alpha  occ. eigenvalues --   -0.38686  -0.38409  -0.38108  -0.37913  -0.37383
 Alpha  occ. eigenvalues --   -0.36851  -0.36181  -0.35459  -0.33806  -0.27838
 Alpha  occ. eigenvalues --   -0.27561  -0.27395  -0.26691  -0.26158  -0.25300
 Alpha  occ. eigenvalues --   -0.24347  -0.23738
 Alpha virt. eigenvalues --    0.00396   0.00894   0.02222   0.03873   0.05476
 Alpha virt. eigenvalues --    0.06638   0.09910   0.10690   0.11071   0.12185
 Alpha virt. eigenvalues --    0.13094   0.13584   0.13821   0.14394   0.14535

 Mulliken atomic charges:
              1
     1  H    0.181900
     2  C   -0.533256
     3  H    0.182403
     4  H    0.148033
     5  C    0.597513
     6  O   -0.523840
     7  N   -0.606914
     8  H    0.346842
     9  C   -0.032047
    10  H    0.178739
    11  C   -0.451041
    12  H    0.158015
    13  H    0.134360
    14  H    0.195751
    15  C    0.617783
    16  O   -0.526532
    17  N   -0.652952
    18  H    0.338215
    19  C    0.003160
    20  H    0.179096
    21  C   -0.460626
    22  H    0.146174
    23  H    0.167344
    24  H    0.201058
    25  C    0.583368
    26  O   -0.530028
    27  N   -0.622489
    28  H    0.352904
    29  C   -0.033490
    30  H    0.169208
    31  C   -0.447819
    32  H    0.161344
    33  H    0.140111
    34  H    0.193977
    35  C    0.608566
    36  O   -0.530472
    37  N   -0.592891
    38  H    0.332695
    39  C   -0.315184
    40  H    0.210277
    41  H    0.165825
    42  H    0.164921
 Sum of Mulliken atomic charges =   0.00000

 Dipole moment (field-independent basis, Debye):
    X=              4.7409    Y=              0.9675    Z=              0.4291  Tot=              4.8576
 Quadrupole moment (field-independent basis, Debye-Ang):
   XX=            -94.1593   YY=           -135.9793   ZZ=           -117.4934
   XY=             22.0942   XZ=              2.3410   YZ=              6.5895

 Normal termination of Gaussian 09 at Thu Dec 29 11:08:17 2016.
