 Gaussian 09, Revision A.02,
 Gaussian 09:  EM64L-G09RevA.02 11-Jun-2009

 ----------------------------------------------------------------------
 # b3lyp/6-31G* Opt=(ModRedundant, maxcycles=1000, calcfc) geom=nocrowd
 ----------------------------------------------------------------------

 ------------------
 Phi Psi fixed scan
 ------------------
 Symbolic Z-matrix:
 Charge =  0 Multiplicity = 1

 SCF Done:  E(RB3LYP) =  -990.482281579     A.U. after   15 cycles

  Exact polarizability:   0.000   0.000   0.000   0.000   0.000   0.000
 Approx polarizability: 251.400   0.226 246.305  15.697  -9.976 170.224

 SCF Done:  E(RB3LYP) =  -990.489698781     A.U. after   12 cycles
 SCF Done:  E(RB3LYP) =  -990.498046549     A.U. after   13 cycles
 SCF Done:  E(RB3LYP) =  -990.500673362     A.U. after   12 cycles
 SCF Done:  E(RB3LYP) =  -990.502579887     A.U. after   14 cycles
 SCF Done:  E(RB3LYP) =  -990.503073483     A.U. after   13 cycles
 SCF Done:  E(RB3LYP) =  -990.503382218     A.U. after   14 cycles
 SCF Done:  E(RB3LYP) =  -990.465770109     A.U. after   15 cycles
 SCF Done:  E(RB3LYP) =  -990.503427325     A.U. after   15 cycles
 SCF Done:  E(RB3LYP) =  -990.503498092     A.U. after   12 cycles
 SCF Done:  E(RB3LYP) =  -990.503597575     A.U. after    9 cycles
 SCF Done:  E(RB3LYP) =  -990.503598264     A.U. after    8 cycles
 SCF Done:  E(RB3LYP) =  -990.503599001     A.U. after    9 cycles
 SCF Done:  E(RB3LYP) =  -990.503599904     A.U. after    9 cycles
 SCF Done:  E(RB3LYP) =  -990.503600706     A.U. after    9 cycles
 SCF Done:  E(RB3LYP) =  -990.503601615     A.U. after    9 cycles
 SCF Done:  E(RB3LYP) =  -990.503602028     A.U. after    9 cycles
 SCF Done:  E(RB3LYP) =  -990.503602101     A.U. after    7 cycles
 SCF Done:  E(RB3LYP) =  -990.503602126     A.U. after    6 cycles
 SCF Done:  E(RB3LYP) =  -990.503602136     A.U. after    6 cycles
 Optimization completed.
    -- Stationary point found.

                         Standard orientation:
 ---------------------------------------------------------------------
 Center     Atomic      Atomic             Coordinates (Angstroms)
 Number     Number       Type             X           Y           Z
 ---------------------------------------------------------------------
      1          1           0       -6.995272   -1.703407   -0.086780
      2          6           0       -6.477332   -0.758584    0.104641
      3          1           0       -6.988509   -0.270976    0.940740
      4          1           0       -6.556662   -0.122771   -0.782442
      5          6           0       -5.043238   -1.059332    0.514594
      6          8           0       -4.775652   -1.772014    1.478197
      7          7           0       -4.078620   -0.490471   -0.262220
      8          1           0       -4.298054    0.176088   -0.993352
      9          6           0       -2.669878   -0.615663    0.053789
     10          1           0       -2.559620   -0.559190    1.144884
     11          6           0       -2.085122   -1.959995   -0.423413
     12          1           0       -2.175163   -2.051195   -1.510770
     13          1           0       -1.027900   -2.057716   -0.153720
     14          1           0       -2.643017   -2.771402    0.050397
     15          6           0       -1.954494    0.577214   -0.602808
     16          8           0       -2.505714    1.273181   -1.450263
     17          7           0       -0.649072    0.746992   -0.229197
     18          1           0       -0.373771    0.282469    0.628694
     19          6           0        0.101786    1.973296   -0.550065
     20          1           0        0.169958    2.030017   -1.644051
     21          6           0       -0.563431    3.251511   -0.027006
     22          1           0       -0.669910    3.212652    1.062643
     23          1           0        0.061792    4.112871   -0.271144
     24          1           0       -1.548234    3.371057   -0.481375
     25          6           0        1.537474    1.858984    0.003722
     26          8           0        2.173833    2.845987    0.355063
     27          7           0        2.043194    0.594975    0.065941
     28          1           0        1.582926   -0.182033   -0.400477
     29          6           0        3.426414    0.344345    0.430892
     30          1           0        4.052656    1.130291   -0.011626
     31          6           0        3.625212    0.362779    1.958079
     32          1           0        3.024379   -0.420361    2.431929
     33          1           0        4.675384    0.205053    2.228234
     34          1           0        3.313701    1.336208    2.345053
     35          6           0        3.797760   -1.020754   -0.177497
     36          8           0        2.936488   -1.776402   -0.622982
     37          7           0        5.122865   -1.317082   -0.162608
     38          1           0        5.766333   -0.626520    0.197499
     39          6           0        5.660139   -2.572108   -0.663710
     40          1           0        4.820127   -3.170021   -1.018380
     41          1           0        6.353053   -2.398247   -1.494647
     42          1           0        6.183855   -3.119932    0.127851
 ---------------------------------------------------------------------

 The electronic state is 1-A.
 Alpha  occ. eigenvalues --  -19.13526 -19.13190 -19.12138 -19.09817 -14.38408
 Alpha  occ. eigenvalues --  -14.37416 -14.36496 -14.34903 -10.30664 -10.29963
 Alpha  occ. eigenvalues --  -10.29503 -10.27803 -10.24967 -10.24315 -10.23695
 Alpha  occ. eigenvalues --  -10.23400 -10.19715 -10.18422 -10.18233 -10.17427
 Alpha  occ. eigenvalues --   -1.05586  -1.05054  -1.03982  -1.01827  -0.94350
 Alpha  occ. eigenvalues --   -0.94150  -0.92475  -0.91426  -0.79617  -0.77912
 Alpha  occ. eigenvalues --   -0.75575  -0.72396  -0.71951  -0.67953  -0.65782
 Alpha  occ. eigenvalues --   -0.63565  -0.60638  -0.59563  -0.58269  -0.57451
 Alpha  occ. eigenvalues --   -0.56052  -0.52708  -0.49795  -0.49062  -0.48360
 Alpha  occ. eigenvalues --   -0.47357  -0.47018  -0.46786  -0.45299  -0.44889
 Alpha  occ. eigenvalues --   -0.44342  -0.43488  -0.43190  -0.42453  -0.41352
 Alpha  occ. eigenvalues --   -0.41180  -0.40955  -0.40527  -0.40067  -0.39184
 Alpha  occ. eigenvalues --   -0.38698  -0.38436  -0.38083  -0.37424  -0.37195
 Alpha  occ. eigenvalues --   -0.36648  -0.36211  -0.35399  -0.33757  -0.27742
 Alpha  occ. eigenvalues --   -0.27684  -0.27525  -0.26680  -0.26262  -0.25618
 Alpha  occ. eigenvalues --   -0.24388  -0.23813
 Alpha virt. eigenvalues --    0.00236   0.00784   0.02020   0.03801   0.05416
 Alpha virt. eigenvalues --    0.06938   0.09759   0.10732   0.11605   0.11986
 Alpha virt. eigenvalues --    0.12701   0.13069   0.13847   0.14421   0.14589

 Mulliken atomic charges:
              1
     1  H    0.182629
     2  C   -0.533321
     3  H    0.181935
     4  H    0.148382
     5  C    0.595532
     6  O   -0.523773
     7  N   -0.603621
     8  H    0.346327
     9  C   -0.035320
    10  H    0.169468
    11  C   -0.443790
    12  H    0.157363
    13  H    0.146853
    14  H    0.188815
    15  C    0.614780
    16  O   -0.524011
    17  N   -0.638842
    18  H    0.333319
    19  C   -0.026320
    20  H    0.191535
    21  C   -0.449484
    22  H    0.143043
    23  H    0.175473
    24  H    0.178769
    25  C    0.588355
    26  O   -0.523729
    27  N   -0.629122
    28  H    0.361319
    29  C   -0.031176
    30  H    0.172912
    31  C   -0.444810
    32  H    0.159259
    33  H    0.137817
    34  H    0.191108
    35  C    0.604941
    36  O   -0.528618
    37  N   -0.592394
    38  H    0.333111
    39  C   -0.314524
    40  H    0.209332
    41  H    0.165581
    42  H    0.164898
 Sum of Mulliken atomic charges =   0.00000

 Dipole moment (field-independent basis, Debye):
    X=              5.3969    Y=             -0.8123    Z=             -0.3501  Tot=              5.4689
 Quadrupole moment (field-independent basis, Debye-Ang):
   XX=            -89.4891   YY=           -133.0745   ZZ=           -123.6417
   XY=            -16.0015   XZ=              8.3996   YZ=              4.2241

 Normal termination of Gaussian 09 at Thu Dec 29 13:23:33 2016.
