 Gaussian 09, Revision A.02,
 Gaussian 09:  EM64L-G09RevA.02 11-Jun-2009

 ----------------------------------------------------------------------
 # b3lyp/6-31G* Opt=(ModRedundant, maxcycles=1000, calcfc) geom=nocrowd
 ----------------------------------------------------------------------

 ------------------
 Phi Psi fixed scan
 ------------------
 Symbolic Z-matrix:
 Charge =  0 Multiplicity = 1

 SCF Done:  E(RB3LYP) =  -990.479485948     A.U. after   14 cycles

  Exact polarizability:   0.000   0.000   0.000   0.000   0.000   0.000
 Approx polarizability: 240.116  -8.500 224.584 -10.335  28.358 203.461

 SCF Done:  E(RB3LYP) =  -990.488112312     A.U. after   12 cycles
 SCF Done:  E(RB3LYP) =  -990.497898082     A.U. after   15 cycles
 SCF Done:  E(RB3LYP) =  -990.500522389     A.U. after   15 cycles
 SCF Done:  E(RB3LYP) =  -990.502181289     A.U. after   15 cycles
 SCF Done:  E(RB3LYP) =  -990.502669700     A.U. after   13 cycles
 SCF Done:  E(RB3LYP) =  -990.503068963     A.U. after   14 cycles
 SCF Done:  E(RB3LYP) =  -990.499104700     A.U. after   14 cycles
 SCF Done:  E(RB3LYP) =  -990.503142686     A.U. after   15 cycles
 SCF Done:  E(RB3LYP) =  -990.503227091     A.U. after   11 cycles
 SCF Done:  E(RB3LYP) =  -990.503296632     A.U. after    9 cycles
 SCF Done:  E(RB3LYP) =  -990.503304269     A.U. after   10 cycles
 SCF Done:  E(RB3LYP) =  -990.503310023     A.U. after    9 cycles
 SCF Done:  E(RB3LYP) =  -990.503315328     A.U. after    9 cycles
 SCF Done:  E(RB3LYP) =  -990.503317693     A.U. after    9 cycles
 SCF Done:  E(RB3LYP) =  -990.503319997     A.U. after   10 cycles
 SCF Done:  E(RB3LYP) =  -990.503321798     A.U. after    9 cycles
 SCF Done:  E(RB3LYP) =  -990.503322109     A.U. after    9 cycles
 SCF Done:  E(RB3LYP) =  -990.503322152     A.U. after    6 cycles
 SCF Done:  E(RB3LYP) =  -990.503322175     A.U. after    6 cycles
 Optimization completed.
    -- Stationary point found.

                         Standard orientation:
 ---------------------------------------------------------------------
 Center     Atomic      Atomic             Coordinates (Angstroms)
 Number     Number       Type             X           Y           Z
 ---------------------------------------------------------------------
      1          1           0        7.388243    1.401519    0.191151
      2          6           0        6.436443    1.629939    0.680909
      3          1           0        6.413153    2.709577    0.858942
      4          1           0        6.396696    1.108166    1.642033
      5          6           0        5.298622    1.264046   -0.261508
      6          8           0        5.190526    1.765498   -1.377594
      7          7           0        4.416934    0.341687    0.214115
      8          1           0        4.465454   -0.018051    1.160336
      9          6           0        3.244077   -0.061793   -0.535899
     10          1           0        2.816062    0.828504   -1.012652
     11          6           0        3.587317   -1.087529   -1.635096
     12          1           0        4.006177   -1.997353   -1.192469
     13          1           0        2.703720   -1.361469   -2.223194
     14          1           0        4.325480   -0.644665   -2.308231
     15          6           0        2.241918   -0.642512    0.479452
     16          8           0        2.602164   -0.981734    1.605777
     17          7           0        0.967463   -0.742529    0.017027
     18          1           0        0.819497   -0.638936   -0.980638
     19          6           0       -0.133803   -1.423262    0.712315
     20          1           0        0.068831   -2.503524    0.746349
     21          6           0       -0.335955   -0.907795    2.140532
     22          1           0       -0.523254    0.171771    2.148367
     23          1           0       -1.181330   -1.422253    2.611315
     24          1           0        0.560032   -1.097428    2.730839
     25          6           0       -1.342974   -1.242944   -0.233435
     26          8           0       -1.256186   -1.623130   -1.403001
     27          7           0       -2.422389   -0.588328    0.245143
     28          1           0       -2.473284   -0.230785    1.192634
     29          6           0       -3.580673   -0.298016   -0.581144
     30          1           0       -3.223878    0.053479   -1.557199
     31          6           0       -4.466626   -1.540197   -0.797175
     32          1           0       -4.848444   -1.907888    0.160760
     33          1           0       -5.319568   -1.310485   -1.445460
     34          1           0       -3.872007   -2.324464   -1.271838
     35          6           0       -4.354574    0.820871    0.137111
     36          8           0       -4.172441    1.053779    1.330029
     37          7           0       -5.252893    1.486940   -0.633144
     38          1           0       -5.314291    1.251087   -1.613656
     39          6           0       -6.111687    2.540687   -0.116383
     40          1           0       -5.892605    2.649824    0.946158
     41          1           0       -5.914234    3.491992   -0.623096
     42          1           0       -7.169263    2.282728   -0.242207
 ---------------------------------------------------------------------

 The electronic state is 1-A.
 Alpha  occ. eigenvalues --  -19.13548 -19.12400 -19.12236 -19.09429 -14.38500
 Alpha  occ. eigenvalues --  -14.37034 -14.36674 -14.34516 -10.30720 -10.29694
 Alpha  occ. eigenvalues --  -10.29353 -10.27444 -10.25172 -10.24480 -10.23448
 Alpha  occ. eigenvalues --  -10.23147 -10.19738 -10.18408 -10.18152 -10.17984
 Alpha  occ. eigenvalues --   -1.05647  -1.04525  -1.03883  -1.01420  -0.94269
 Alpha  occ. eigenvalues --   -0.93507  -0.93009  -0.91005  -0.80043  -0.77776
 Alpha  occ. eigenvalues --   -0.75479  -0.72454  -0.71673  -0.67758  -0.66498
 Alpha  occ. eigenvalues --   -0.63882  -0.60988  -0.59261  -0.57960  -0.56891
 Alpha  occ. eigenvalues --   -0.56000  -0.53083  -0.49734  -0.48879  -0.48475
 Alpha  occ. eigenvalues --   -0.47659  -0.47158  -0.45994  -0.45135  -0.44578
 Alpha  occ. eigenvalues --   -0.44294  -0.43760  -0.42897  -0.42440  -0.41600
 Alpha  occ. eigenvalues --   -0.40947  -0.40612  -0.40346  -0.39338  -0.39240
 Alpha  occ. eigenvalues --   -0.39083  -0.38379  -0.38242  -0.37997  -0.37603
 Alpha  occ. eigenvalues --   -0.36699  -0.36345  -0.35523  -0.33449  -0.27894
 Alpha  occ. eigenvalues --   -0.27689  -0.26942  -0.26333  -0.26182  -0.25318
 Alpha  occ. eigenvalues --   -0.23997  -0.23425
 Alpha virt. eigenvalues --    0.00294   0.01305   0.02022   0.04209   0.05428
 Alpha virt. eigenvalues --    0.08304   0.09856   0.10304   0.10912   0.12402
 Alpha virt. eigenvalues --    0.12958   0.13484   0.13739   0.14512   0.14583

 Mulliken atomic charges:
              1
     1  H    0.181163
     2  C   -0.532881
     3  H    0.180898
     4  H    0.147391
     5  C    0.596530
     6  O   -0.525561
     7  N   -0.604914
     8  H    0.345726
     9  C   -0.031231
    10  H    0.174449
    11  C   -0.451933
    12  H    0.156070
    13  H    0.144792
    14  H    0.190706
    15  C    0.616493
    16  O   -0.536248
    17  N   -0.632490
    18  H    0.351069
    19  C    0.020356
    20  H    0.174120
    21  C   -0.492710
    22  H    0.158957
    23  H    0.149650
    24  H    0.208263
    25  C    0.571843
    26  O   -0.542422
    27  N   -0.617610
    28  H    0.365973
    29  C   -0.030899
    30  H    0.170726
    31  C   -0.446450
    32  H    0.162485
    33  H    0.140298
    34  H    0.192482
    35  C    0.605927
    36  O   -0.527306
    37  N   -0.592632
    38  H    0.333034
    39  C   -0.314800
    40  H    0.209441
    41  H    0.166435
    42  H    0.164809
 Sum of Mulliken atomic charges =   0.00000

 Dipole moment (field-independent basis, Debye):
    X=             -6.0409    Y=              0.2140    Z=             -0.2342  Tot=              6.0493
 Quadrupole moment (field-independent basis, Debye-Ang):
   XX=            -99.0242   YY=           -120.7888   ZZ=           -125.9033
   XY=            -12.8869   XZ=             20.4274   YZ=             -0.5409

 Normal termination of Gaussian 09 at Thu Dec 29 10:53:12 2016.
