 Gaussian 09, Revision A.02,
 Gaussian 09:  EM64L-G09RevA.02 11-Jun-2009

 ----------------------------------------------------------------------
 # b3lyp/6-31G* Opt=(ModRedundant, maxcycles=1000, calcfc) geom=nocrowd
 ----------------------------------------------------------------------

 ------------------
 Phi Psi fixed scan
 ------------------
 Symbolic Z-matrix:
 Charge =  0 Multiplicity = 1

 SCF Done:  E(RB3LYP) =  -990.474270502     A.U. after   15 cycles

  Exact polarizability:   0.000   0.000   0.000   0.000   0.000   0.000
 Approx polarizability: 254.037  -2.321 252.455  -3.052  -9.556 160.360

 SCF Done:  E(RB3LYP) =  -990.483559317     A.U. after   12 cycles
 SCF Done:  E(RB3LYP) =  -990.494758418     A.U. after   13 cycles
 SCF Done:  E(RB3LYP) =  -990.488192086     A.U. after   13 cycles
 SCF Done:  E(RB3LYP) =  -990.493882458     A.U. after   12 cycles
 SCF Done:  E(RB3LYP) =  -990.494894129     A.U. after   13 cycles
 SCF Done:  E(RB3LYP) =  -990.496381261     A.U. after   12 cycles
 SCF Done:  E(RB3LYP) =  -990.498320559     A.U. after   12 cycles
 SCF Done:  E(RB3LYP) =  -990.499306944     A.U. after   13 cycles
 SCF Done:  E(RB3LYP) =  -990.499185915     A.U. after   13 cycles
 SCF Done:  E(RB3LYP) =  -990.501064448     A.U. after   10 cycles
 SCF Done:  E(RB3LYP) =  -990.501077173     A.U. after   10 cycles
 SCF Done:  E(RB3LYP) =  -990.501083359     A.U. after    9 cycles
 SCF Done:  E(RB3LYP) =  -990.501090850     A.U. after   10 cycles
 SCF Done:  E(RB3LYP) =  -990.501099462     A.U. after   10 cycles
 SCF Done:  E(RB3LYP) =  -990.501105309     A.U. after   10 cycles
 SCF Done:  E(RB3LYP) =  -990.501106679     A.U. after    8 cycles
 SCF Done:  E(RB3LYP) =  -990.501107339     A.U. after    9 cycles
 SCF Done:  E(RB3LYP) =  -990.501107526     A.U. after    7 cycles
 SCF Done:  E(RB3LYP) =  -990.501107542     A.U. after    6 cycles
 Optimization completed.
    -- Stationary point found.

                         Standard orientation:
 ---------------------------------------------------------------------
 Center     Atomic      Atomic             Coordinates (Angstroms)
 Number     Number       Type             X           Y           Z
 ---------------------------------------------------------------------
      1          1           0       -6.853961   -0.452633    1.324534
      2          6           0       -6.438401   -0.749743    0.356601
      3          1           0       -6.596668    0.058290   -0.364133
      4          1           0       -6.988864   -1.635466    0.024453
      5          6           0       -4.975433   -1.123169    0.544740
      6          8           0       -4.622315   -2.008732    1.318664
      7          7           0       -4.086801   -0.415995   -0.209025
      8          1           0       -4.368145    0.384251   -0.763424
      9          6           0       -2.655504   -0.601316   -0.076326
     10          1           0       -2.428872   -0.748700    0.988504
     11          6           0       -2.153752   -1.836279   -0.851041
     12          1           0       -2.355508   -1.723947   -1.921311
     13          1           0       -1.077651   -1.986911   -0.714054
     14          1           0       -2.680188   -2.718500   -0.478888
     15          6           0       -1.985858    0.691636   -0.571287
     16          8           0       -2.614488    1.554885   -1.174498
     17          7           0       -0.629929    0.759166   -0.362717
     18          1           0       -0.309767    0.168795    0.398373
     19          6           0        0.089504    2.039303   -0.473269
     20          1           0       -0.015095    2.377928   -1.509359
     21          6           0       -0.464032    3.131452    0.458922
     22          1           0       -0.397620    2.813948    1.506438
     23          1           0        0.128165    4.040907    0.337689
     24          1           0       -1.507259    3.337933    0.213698
     25          6           0        1.595278    1.874204   -0.198966
     26          8           0        2.327563    2.857482   -0.177070
     27          7           0        2.040595    0.616842    0.097010
     28          1           0        1.541854   -0.201009   -0.245758
     29          6           0        3.460650    0.363635    0.288311
     30          1           0        4.029419    1.010949   -0.393047
     31          6           0        3.895733    0.673972    1.731482
     32          1           0        3.363139    0.033164    2.441522
     33          1           0        4.972627    0.526023    1.870137
     34          1           0        3.666178    1.719309    1.952641
     35          6           0        3.693040   -1.110266   -0.096531
     36          8           0        2.752012   -1.853433   -0.371971
     37          7           0        4.989600   -1.510590   -0.103216
     38          1           0        5.704384   -0.830158    0.112053
     39          6           0        5.399125   -2.866163   -0.434696
     40          1           0        4.495473   -3.441724   -0.636713
     41          1           0        6.038167   -2.876876   -1.324879
     42          1           0        5.941659   -3.326753    0.398520
 ---------------------------------------------------------------------

 The electronic state is 1-A.
 Alpha  occ. eigenvalues --  -19.13678 -19.13404 -19.12042 -19.09843 -14.38469
 Alpha  occ. eigenvalues --  -14.37334 -14.36484 -14.34923 -10.30761 -10.30064
 Alpha  occ. eigenvalues --  -10.29521 -10.27822 -10.24906 -10.24252 -10.23728
 Alpha  occ. eigenvalues --  -10.23439 -10.19762 -10.18441 -10.18155 -10.17910
 Alpha  occ. eigenvalues --   -1.05703  -1.05216  -1.03963  -1.01856  -0.94419
 Alpha  occ. eigenvalues --   -0.94211  -0.92472  -0.91448  -0.79564  -0.77926
 Alpha  occ. eigenvalues --   -0.75653  -0.72411  -0.71960  -0.67837  -0.65851
 Alpha  occ. eigenvalues --   -0.63730  -0.60771  -0.59640  -0.57983  -0.57412
 Alpha  occ. eigenvalues --   -0.56124  -0.52738  -0.49880  -0.49109  -0.48301
 Alpha  occ. eigenvalues --   -0.47222  -0.46954  -0.46799  -0.45248  -0.44796
 Alpha  occ. eigenvalues --   -0.44199  -0.43605  -0.43306  -0.42663  -0.41335
 Alpha  occ. eigenvalues --   -0.41241  -0.41029  -0.40507  -0.40246  -0.39431
 Alpha  occ. eigenvalues --   -0.38711  -0.38505  -0.38042  -0.37533  -0.37374
 Alpha  occ. eigenvalues --   -0.36666  -0.36152  -0.35165  -0.33767  -0.28232
 Alpha  occ. eigenvalues --   -0.27795  -0.27629  -0.26916  -0.26268  -0.25478
 Alpha  occ. eigenvalues --   -0.24401  -0.23838
 Alpha virt. eigenvalues --    0.00224   0.00705   0.01824   0.03755   0.05356
 Alpha virt. eigenvalues --    0.06578   0.09788   0.10673   0.11838   0.12455
 Alpha virt. eigenvalues --    0.12861   0.13536   0.13744   0.14214   0.14388

 Mulliken atomic charges:
              1
     1  H    0.181849
     2  C   -0.533340
     3  H    0.148335
     4  H    0.182805
     5  C    0.595296
     6  O   -0.523157
     7  N   -0.603908
     8  H    0.346208
     9  C   -0.036998
    10  H    0.170312
    11  C   -0.443692
    12  H    0.155868
    13  H    0.151066
    14  H    0.188817
    15  C    0.610674
    16  O   -0.520227
    17  N   -0.633306
    18  H    0.330550
    19  C   -0.034941
    20  H    0.196301
    21  C   -0.459669
    22  H    0.140217
    23  H    0.182219
    24  H    0.182292
    25  C    0.602736
    26  O   -0.524004
    27  N   -0.642401
    28  H    0.360184
    29  C   -0.035844
    30  H    0.179077
    31  C   -0.444343
    32  H    0.160825
    33  H    0.135396
    34  H    0.191103
    35  C    0.606478
    36  O   -0.530916
    37  N   -0.592015
    38  H    0.333937
    39  C   -0.314641
    40  H    0.209614
    41  H    0.166008
    42  H    0.165231
 Sum of Mulliken atomic charges =   0.00000

 Dipole moment (field-independent basis, Debye):
    X=              5.1647    Y=             -0.8341    Z=              0.0565  Tot=              5.2320
 Quadrupole moment (field-independent basis, Debye-Ang):
   XX=            -89.0364   YY=           -134.5779   ZZ=           -121.9670
   XY=            -18.7688   XZ=              7.2763   YZ=              7.3707

 Normal termination of Gaussian 09 at Thu Dec 29 11:45:14 2016.
