 Gaussian 09, Revision A.02,
 Gaussian 09:  EM64L-G09RevA.02 11-Jun-2009

 -------------------
 #SP MP2/aug-cc-pVDZ
 -------------------

 ------------------
 Phi Psi fixed scan
 ------------------
 Symbolic Z-matrix:
 Charge =  0 Multiplicity = 1

                         Standard orientation:
 ---------------------------------------------------------------------
 Center     Atomic      Atomic             Coordinates (Angstroms)
 Number     Number       Type             X           Y           Z
 ---------------------------------------------------------------------
      1          1           0        7.195799   -1.367000   -1.230898
      2          6           0        6.133399   -1.552900   -1.415598
      3          1           0        6.006599   -2.634500   -1.528298
      4          1           0        5.840999   -1.061400   -2.348498
      5          6           0        5.335699   -1.089099   -0.205198
      6          8           0        5.571699   -1.502299    0.927402
      7          7           0        4.350500   -0.185399   -0.463898
      8          1           0        4.094000    0.080201   -1.408098
      9          6           0        3.439600    0.273902    0.564902
     10          1           0        3.173000   -0.583998    1.196302
     11          6           0        4.077201    1.358301    1.455402
     12          1           0        4.342501    2.236201    0.857002
     13          1           0        3.395401    1.674902    2.252602
     14          1           0        4.982200    0.950101    1.911902
     15          6           0        2.180700    0.799302   -0.155598
     16          8           0        2.193600    1.030202   -1.359898
     17          7           0        1.125900    1.033203    0.678802
     18          1           0        1.211900    0.631503    1.603302
     19          6           0       -0.239299    1.381903    0.299002
     20          1           0       -0.654599    1.927604    1.157502
     21          6           0       -0.352499    2.299403   -0.928398
     22          1           0       -0.037499    1.789703   -1.837598
     23          1           0       -1.393199    2.624904   -1.032498
     24          1           0        0.275002    3.185503   -0.796498
     25          6           0       -1.078100    0.092504    0.118102
     26          8           0       -0.581800   -0.970796   -0.234898
     27          7           0       -2.400800    0.239404    0.398602
     28          1           0       -2.813999    1.143305    0.607302
     29          6           0       -3.365500   -0.813995    0.140902
     30          1           0       -3.086901   -1.316695   -0.794198
     31          6           0       -3.387001   -1.860695    1.271302
     32          1           0       -3.674801   -1.394695    2.219402
     33          1           0       -4.092701   -2.670695    1.054702
     34          1           0       -2.387801   -2.291396    1.372802
     35          6           0       -4.733500   -0.127595   -0.023198
     36          8           0       -4.909000    1.037706    0.327402
     37          7           0       -5.710400   -0.908694   -0.552298
     38          1           0       -5.471701   -1.846894   -0.841398
     39          6           0       -7.076000   -0.448593   -0.746498
     40          1           0       -7.132100    0.575907   -0.377498
     41          1           0       -7.348900   -0.463093   -1.807798
     42          1           0       -7.783801   -1.072193   -0.188798
 ---------------------------------------------------------------------

 SCF Done:  E(RHF) =  -984.690937034     A.U. after   16 cycles
 E2 =    -0.3191451540D+01 EUMP2 =    -0.98788238857422D+03

 The electronic state is 1-A.
 Alpha  occ. eigenvalues --  -20.55163 -20.54021 -20.53883 -20.51724 -15.61414
 Alpha  occ. eigenvalues --  -15.60321 -15.59822 -15.58139 -11.37936 -11.36868
 Alpha  occ. eigenvalues --  -11.36512 -11.35155 -11.30465 -11.30351 -11.28756
 Alpha  occ. eigenvalues --  -11.28240 -11.24516 -11.23654 -11.23615 -11.23096
 Alpha  occ. eigenvalues --   -1.40690  -1.39727  -1.38903  -1.37046  -1.25242
 Alpha  occ. eigenvalues --   -1.24875  -1.24512  -1.22803  -1.07591  -1.04975
 Alpha  occ. eigenvalues --   -1.02386  -0.97970  -0.97053  -0.91898  -0.89986
 Alpha  occ. eigenvalues --   -0.86966  -0.81837  -0.79463  -0.78704  -0.77550
 Alpha  occ. eigenvalues --   -0.74655  -0.72374  -0.69181  -0.68320  -0.66586
 Alpha  occ. eigenvalues --   -0.65764  -0.65282  -0.64303  -0.63266  -0.62502
 Alpha  occ. eigenvalues --   -0.61462  -0.61082  -0.60182  -0.59921  -0.58335
 Alpha  occ. eigenvalues --   -0.57150  -0.56834  -0.56260  -0.55966  -0.55326
 Alpha  occ. eigenvalues --   -0.54633  -0.54181  -0.54082  -0.53627  -0.52746
 Alpha  occ. eigenvalues --   -0.52488  -0.51779  -0.50335  -0.48649  -0.44663
 Alpha  occ. eigenvalues --   -0.44090  -0.42581  -0.41510  -0.41342  -0.40110
 Alpha  occ. eigenvalues --   -0.39689  -0.38088
 Alpha virt. eigenvalues --    0.02417   0.03126   0.03829   0.03991   0.04335
 Alpha virt. eigenvalues --    0.04772   0.04927   0.05742   0.06048   0.06284
 Alpha virt. eigenvalues --    0.06432   0.06825   0.07110   0.07267   0.07787

 Mulliken atomic charges:
              1
     1  H    0.035331
     2  C    0.372295
     3  H    0.045610
     4  H   -0.168504
     5  C    0.456323
     6  O   -0.876292
     7  N   -0.165328
     8  H   -0.075039
     9  C   -0.072186
    10  H   -0.151514
    11  C    0.828736
    12  H   -0.033724
    13  H   -0.077912
    14  H   -0.084059
    15  C    0.972771
    16  O   -0.883334
    17  N   -0.259171
    18  H   -0.096933
    19  C   -0.246194
    20  H   -0.307619
    21  C    0.877589
    22  H    0.053383
    23  H   -0.126845
    24  H   -0.056078
    25  C    0.792964
    26  O   -0.854426
    27  N   -0.250690
    28  H   -0.098113
    29  C   -0.245788
    30  H   -0.140251
    31  C    0.907916
    32  H   -0.049033
    33  H   -0.098763
    34  H   -0.059654
    35  C    1.248596
    36  O   -0.900298
    37  N   -0.474434
    38  H   -0.117774
    39  C    0.708273
    40  H   -0.145365
    41  H   -0.085951
    42  H   -0.098516
 Sum of Mulliken atomic charges =   0.00000

 Dipole moment (field-independent basis, Debye):
    X=             -5.8670    Y=              0.0670    Z=             -0.4587  Tot=              5.8853
 Quadrupole moment (field-independent basis, Debye-Ang):
   XX=           -112.8935   YY=           -122.5967   ZZ=           -120.5299
   XY=             23.5449   XZ=             -4.5685   YZ=              7.8591

 Normal termination of Gaussian 09 at Mon Jan 16 19:14:45 2017.
