 Gaussian 09, Revision A.02,
 Gaussian 09:  EM64L-G09RevA.02 11-Jun-2009

 -------------------
 #SP MP2/aug-cc-pVDZ
 -------------------

 -------------------------------
 Single Point calculation at MP2
 -------------------------------
 Symbolic Z-matrix:
 Charge =  0 Multiplicity = 1

                         Standard orientation:
 ---------------------------------------------------------------------
 Center     Atomic      Atomic             Coordinates (Angstroms)
 Number     Number       Type             X           Y           Z
 ---------------------------------------------------------------------
      1          1           0       -3.933798   -0.760575    0.065005
      2          6           0       -3.093697   -0.601581    0.747405
      3          1           0       -2.982203   -1.512482    1.344505
      4          1           0       -3.328191    0.234120    1.413405
      5          6           0       -1.833595   -0.395291   -0.075495
      6          8           0       -1.490101   -1.208093   -0.937095
      7          7           0       -1.133587    0.744004    0.179205
      8          1           0       -1.392883    1.301206    0.982405
      9          6           0        0.136916    1.080895   -0.478195
     10          1           0        0.006614    0.819996   -1.534395
     11          6           0        0.415826    2.572493   -0.333495
     12          1           0        0.594628    2.832492    0.714405
     13          1           0        1.318928    2.841187   -0.887395
     14          1           0       -0.423569    3.158399   -0.721895
     15          6           0        1.313709    0.237187    0.085605
     16          8           0        2.153313    0.726581    0.835505
     17          7           0        1.323600   -1.052213   -0.342295
     18          1           0        0.490498   -1.379307   -0.827495
     19          6           0        2.289993   -2.017620    0.149905
     20          1           0        3.146397   -1.469827    0.545805
     21          1           0        1.873789   -2.642817    0.951505
     22          1           0        2.619088   -2.669323   -0.665895
 ---------------------------------------------------------------------

 SCF Done:  E(RHF) =  -492.928313571     A.U. after   14 cycles
 E2 =    -0.1603413384D+01 EUMP2 =    -0.49453172695471D+03

 The electronic state is 1-A.
 Alpha  occ. eigenvalues --  -20.54497 -20.52528 -15.61395 -15.57845 -11.37940
 Alpha  occ. eigenvalues --  -11.35150 -11.29555 -11.25887 -11.25797 -11.23610
 Alpha  occ. eigenvalues --   -1.39911  -1.37604  -1.25286  -1.22000  -1.06078
 Alpha  occ. eigenvalues --   -1.00070  -0.95518  -0.87138  -0.81441  -0.77520
 Alpha  occ. eigenvalues --   -0.72353  -0.69237  -0.67294  -0.63949  -0.62052
 Alpha  occ. eigenvalues --   -0.61091  -0.60123  -0.59334  -0.57950  -0.54868
 Alpha  occ. eigenvalues --   -0.54251  -0.53432  -0.52460  -0.51915  -0.51158
 Alpha  occ. eigenvalues --   -0.44843  -0.43739  -0.39441  -0.37940
 Alpha virt. eigenvalues --    0.02653   0.04104   0.04230   0.04671   0.05737
 Alpha virt. eigenvalues --    0.06128   0.06394   0.06940   0.07114   0.08169
 Alpha virt. eigenvalues --    0.09243   0.09919   0.11413   0.11841   0.12273

 Mulliken atomic charges:
              1
     1  H    0.047395
     2  C    0.401062
     3  H    0.050704
     4  H   -0.155015
     5  C    0.578788
     6  O   -0.925565
     7  N   -0.447922
     8  H   -0.053014
     9  C   -0.056522
    10  H   -0.208377
    11  C    0.754860
    12  H   -0.005440
    13  H   -0.064996
    14  H   -0.022342
    15  C    1.098801
    16  O   -0.832784
    17  N   -0.496688
    18  H   -0.048151
    19  C    0.750928
    20  H   -0.141219
    21  H   -0.094158
    22  H   -0.130344
 Sum of Mulliken atomic charges =   0.00000

 Dipole moment (field-independent basis, Debye):
    X=             -3.2699    Y=              0.6359    Z=              0.6795  Tot=              3.3998
 Quadrupole moment (field-independent basis, Debye-Ang):
   XX=            -61.9396   YY=            -59.0889   ZZ=            -62.8927
   XY=             -7.6079   XZ=             -9.6523   YZ=             -3.8576

 Normal termination of Gaussian 09 at Mon Feb 13 14:15:52 2017.
