 Gaussian 09, Revision A.02,
 Gaussian 09:  EM64L-G09RevA.02 11-Jun-2009

 -------------------
 #SP MP2/aug-cc-pVDZ
 -------------------

 -------------------------------
 Single Point calculation at MP2
 -------------------------------
 Symbolic Z-matrix:
 Charge =  0 Multiplicity = 1

                         Standard orientation:
 ---------------------------------------------------------------------
 Center     Atomic      Atomic             Coordinates (Angstroms)
 Number     Number       Type             X           Y           Z
 ---------------------------------------------------------------------
      1          1           0        3.950294   -1.133220   -0.232101
      2          6           0        3.055495   -0.830316   -0.778301
      3          1           0        2.574891   -1.727514   -1.186601
      4          1           0        3.335698   -0.179317   -1.613901
      5          6           0        2.089098   -0.159412    0.181299
      6          8           0        2.120997   -0.335312    1.387499
      7          7           0        1.188802    0.716592   -0.418401
      8          1           0        1.106501    0.595493   -1.422801
      9          6           0       -0.084697    0.960398    0.246399
     10          1           0        0.154603    0.989897    1.315699
     11          6           0       -0.662191    2.314200   -0.184201
     12          1           0       -0.984191    2.307102   -1.232501
     13          1           0       -1.517790    2.612604    0.433199
     14          1           0        0.104312    3.085097   -0.067401
     15          6           0       -1.012302   -0.271598    0.048999
     16          8           0       -0.545907   -1.391500   -0.117501
     17          7           0       -2.354701   -0.019492    0.017999
     18          1           0       -2.680397    0.912509    0.223799
     19          6           0       -3.340406   -1.085188   -0.064301
     20          1           0       -2.823610   -1.985990   -0.396601
     21          1           0       -3.807507   -1.285186    0.908499
     22          1           0       -4.122205   -0.825185   -0.785801
 ---------------------------------------------------------------------

 SCF Done:  E(RHF) =  -492.918831801     A.U. after   14 cycles
 E2 =    -0.1601703385D+01 EUMP2 =    -0.49452053518616D+03

 The electronic state is 1-A.
 Alpha  occ. eigenvalues --  -20.53231 -20.52549 -15.60072 -15.58741 -11.36210
 Alpha  occ. eigenvalues --  -11.35428 -11.29259 -11.27138 -11.25092 -11.23699
 Alpha  occ. eigenvalues --   -1.39063  -1.37586  -1.23723  -1.23118  -1.05422
 Alpha  occ. eigenvalues --   -0.98762  -0.95782  -0.88342  -0.79355  -0.78281
 Alpha  occ. eigenvalues --   -0.72735  -0.66944  -0.65854  -0.64065  -0.62426
 Alpha  occ. eigenvalues --   -0.61488  -0.59302  -0.58317  -0.56974  -0.56261
 Alpha  occ. eigenvalues --   -0.55041  -0.54593  -0.53222  -0.50450  -0.50085
 Alpha  occ. eigenvalues --   -0.43803  -0.41858  -0.39783  -0.38991
 Alpha virt. eigenvalues --    0.02568   0.03712   0.04113   0.04645   0.05692
 Alpha virt. eigenvalues --    0.05948   0.06138   0.06908   0.07176   0.08322
 Alpha virt. eigenvalues --    0.08940   0.09297   0.11316   0.12136   0.12257

 Mulliken atomic charges:
              1
     1  H   -0.040543
     2  C    0.296966
     3  H    0.084146
     4  H   -0.043246
     5  C    0.764698
     6  O   -0.862616
     7  N   -0.546845
     8  H   -0.031773
     9  C    0.005964
    10  H   -0.078554
    11  C    0.744360
    12  H   -0.032038
    13  H    0.017986
    14  H   -0.094818
    15  C    0.910766
    16  O   -0.832554
    17  N   -0.506115
    18  H   -0.137923
    19  C    0.747587
    20  H   -0.147621
    21  H   -0.076840
    22  H   -0.140988
 Sum of Mulliken atomic charges =   0.00000

 Dipole moment (field-independent basis, Debye):
    X=             -3.3150    Y=              3.1911    Z=             -3.0626  Tot=              5.5273
 Quadrupole moment (field-independent basis, Debye-Ang):
   XX=            -52.3409   YY=            -62.5077   ZZ=            -63.4255
   XY=             -2.3221   XZ=             -9.0654   YZ=              1.8785

 Normal termination of Gaussian 09 at Mon Feb 13 13:19:46 2017.
