 Gaussian 09, Revision A.02,
 Gaussian 09:  EM64L-G09RevA.02 11-Jun-2009

 -------------------
 #SP MP2/aug-cc-pVDZ
 -------------------

 -------------------------------
 Single Point calculation at MP2
 -------------------------------
 Symbolic Z-matrix:
 Charge =  0 Multiplicity = 1

                         Standard orientation:
 ---------------------------------------------------------------------
 Center     Atomic      Atomic             Coordinates (Angstroms)
 Number     Number       Type             X           Y           Z
 ---------------------------------------------------------------------
      1          1           0        3.085676   -1.466223   -1.268300
      2          6           0        3.137682   -0.525923   -0.710300
      3          1           0        3.336288    0.292575   -1.408700
      4          1           0        3.974982   -0.608529   -0.011000
      5          6           0        1.856184   -0.356615    0.088000
      6          8           0        1.535778   -1.165813    0.962800
      7          7           0        1.111291    0.741790   -0.206200
      8          1           0        1.377195    1.299688   -1.006500
      9          6           0       -0.163707    1.088499    0.438100
     10          1           0       -0.023008    0.883498    1.507000
     11          6           0       -0.456297    2.570300    0.228700
     12          1           0       -0.606995    2.793001   -0.833000
     13          1           0       -1.378495    2.845907    0.744000
     14          1           0        0.366307    3.179995    0.616300
     15          6           0       -1.357513    0.212306   -0.041200
     16          8           0       -2.341609    0.719213   -0.572200
     17          7           0       -1.208122   -1.116595    0.188000
     18          1           0       -0.351124   -1.422200    0.645600
     19          6           0       -2.217428   -2.088788   -0.188900
     20          1           0       -3.023124   -1.556982   -0.696900
     21          1           0       -1.801033   -2.845091   -0.865100
     22          1           0       -2.625731   -2.597885    0.692800
 ---------------------------------------------------------------------

 SCF Done:  E(RHF) =  -492.927338765     A.U. after   14 cycles
 E2 =    -0.1603628667D+01 EUMP2 =    -0.49453096743202D+03

 The electronic state is 1-A.
 Alpha  occ. eigenvalues --  -20.54557 -20.52365 -15.61502 -15.57683 -11.38044
 Alpha  occ. eigenvalues --  -11.35170 -11.29703 -11.25980 -11.25717 -11.23610
 Alpha  occ. eigenvalues --   -1.39985  -1.37524  -1.25409  -1.21879  -1.06128
 Alpha  occ. eigenvalues --   -1.00111  -0.95499  -0.87195  -0.81566  -0.77593
 Alpha  occ. eigenvalues --   -0.72429  -0.69310  -0.67350  -0.63857  -0.62072
 Alpha  occ. eigenvalues --   -0.60994  -0.60150  -0.59381  -0.58068  -0.54589
 Alpha  occ. eigenvalues --   -0.54473  -0.53272  -0.52699  -0.52108  -0.50848
 Alpha  occ. eigenvalues --   -0.44945  -0.43787  -0.39303  -0.37830
 Alpha virt. eigenvalues --    0.02565   0.04090   0.04312   0.04555   0.05765
 Alpha virt. eigenvalues --    0.06147   0.06408   0.06818   0.07130   0.08089
 Alpha virt. eigenvalues --    0.09309   0.09920   0.11320   0.11922   0.12361

 Mulliken atomic charges:
              1
     1  H    0.052012
     2  C    0.395626
     3  H   -0.159843
     4  H    0.050145
     5  C    0.557423
     6  O   -0.935242
     7  N   -0.420548
     8  H   -0.051455
     9  C   -0.002568
    10  H   -0.151130
    11  C    0.769803
    12  H   -0.027585
    13  H   -0.065825
    14  H   -0.031903
    15  C    1.006497
    16  O   -0.818649
    17  N   -0.472833
    18  H   -0.068359
    19  C    0.747378
    20  H   -0.161386
    21  H   -0.113412
    22  H   -0.098145
 Sum of Mulliken atomic charges =   0.00000

 Dipole moment (field-independent basis, Debye):
    X=              3.5881    Y=              0.6787    Z=             -1.1720  Tot=              3.8352
 Quadrupole moment (field-independent basis, Debye-Ang):
   XX=            -63.7521   YY=            -58.8770   ZZ=            -62.0119
   XY=              8.0032   XZ=             -8.7955   YZ=              3.3807

 Normal termination of Gaussian 09 at Mon Feb 13 14:37:34 2017.
