 Gaussian 09, Revision A.02,
 Gaussian 09:  EM64L-G09RevA.02 11-Jun-2009

 -------------------
 #SP MP2/aug-cc-pVDZ
 -------------------

 -------------------------------
 Single Point calculation at MP2
 -------------------------------
 Symbolic Z-matrix:
 Charge =  0 Multiplicity = 1

                         Standard orientation:
 ---------------------------------------------------------------------
 Center     Atomic      Atomic             Coordinates (Angstroms)
 Number     Number       Type             X           Y           Z
 ---------------------------------------------------------------------
      1          1           0        3.190431   -1.465534   -1.145392
      2          6           0        3.184010   -0.493934   -0.641692
      3          1           0        3.366892    0.292470   -1.379992
      4          1           0        4.003710   -0.498316    0.083308
      5          6           0        1.873606   -0.340063    0.111908
      6          8           0        1.545624   -1.136470    0.995808
      7          7           0        1.104983    0.723520   -0.238392
      8          1           0        1.391171    1.278127   -1.033692
      9          6           0       -0.169725    1.095692    0.390608
     10          1           0       -0.023222    0.955896    1.470608
     11          6           0       -0.468758    2.564086    0.102508
     12          1           0       -0.587661    2.736483   -0.973492
     13          1           0       -1.408464    2.850765    0.576308
     14          1           0        0.337928    3.200104    0.481308
     15          6           0       -1.379306    0.196866    0.000808
     16          8           0       -2.462417    0.695442   -0.291192
     17          7           0       -1.139476   -1.138729    0.012208
     18          1           0       -0.273869   -1.454510    0.446108
     19          6           0       -2.203255   -2.095652   -0.238492
     20          1           0       -2.904965   -1.661868   -0.952992
     21          1           0       -1.777435   -3.013143   -0.655092
     22          1           0       -2.758150   -2.347764    0.675508
 ---------------------------------------------------------------------

 SCF Done:  E(RHF) =  -492.926910806     A.U. after   14 cycles
 E2 =    -0.1603397068D+01 EUMP2 =    -0.49453030787356D+03

 The electronic state is 1-A.
 Alpha  occ. eigenvalues --  -20.54561 -20.52477 -15.61500 -15.57642 -11.38056
 Alpha  occ. eigenvalues --  -11.35165 -11.29826 -11.26025 -11.25754 -11.23693
 Alpha  occ. eigenvalues --   -1.40014  -1.37629  -1.25465  -1.21820  -1.06175
 Alpha  occ. eigenvalues --   -1.00143  -0.95396  -0.87336  -0.81637  -0.77584
 Alpha  occ. eigenvalues --   -0.72411  -0.69327  -0.67442  -0.63754  -0.62048
 Alpha  occ. eigenvalues --   -0.61389  -0.59824  -0.59240  -0.58158  -0.54808
 Alpha  occ. eigenvalues --   -0.54359  -0.53279  -0.53057  -0.52271  -0.50320
 Alpha  occ. eigenvalues --   -0.44923  -0.43843  -0.39534  -0.37878
 Alpha virt. eigenvalues --    0.02498   0.04045   0.04401   0.04457   0.05827
 Alpha virt. eigenvalues --    0.06170   0.06365   0.06724   0.07200   0.07946
 Alpha virt. eigenvalues --    0.09269   0.09957   0.11259   0.11859   0.12537

 Mulliken atomic charges:
              1
     1  H    0.053229
     2  C    0.388195
     3  H   -0.161371
     4  H    0.055195
     5  C    0.539349
     6  O   -0.931029
     7  N   -0.373443
     8  H   -0.053722
     9  C    0.028929
    10  H   -0.099547
    11  C    0.762497
    12  H   -0.051236
    13  H   -0.055576
    14  H   -0.034273
    15  C    0.846941
    16  O   -0.813770
    17  N   -0.415856
    18  H   -0.073553
    19  C    0.750289
    20  H   -0.131080
    21  H   -0.168660
    22  H   -0.061510
 Sum of Mulliken atomic charges =   0.00000

 Dipole moment (field-independent basis, Debye):
    X=              3.8519    Y=              0.7519    Z=             -1.6793  Tot=              4.2688
 Quadrupole moment (field-independent basis, Debye-Ang):
   XX=            -64.7626   YY=            -58.4300   ZZ=            -61.7017
   XY=              8.0873   XZ=             -7.2743   YZ=              2.8331

 Normal termination of Gaussian 09 at Mon Feb 13 14:42:09 2017.
