 Gaussian 09, Revision A.02,
 Gaussian 09:  EM64L-G09RevA.02 11-Jun-2009

 -------------------
 #SP MP2/aug-cc-pVDZ
 -------------------

 -------------------------------
 Single Point calculation at MP2
 -------------------------------
 Symbolic Z-matrix:
 Charge =  0 Multiplicity = 1

                         Standard orientation:
 ---------------------------------------------------------------------
 Center     Atomic      Atomic             Coordinates (Angstroms)
 Number     Number       Type             X           Y           Z
 ---------------------------------------------------------------------
      1          1           0        3.314809   -1.498286   -0.954910
      2          6           0        3.229508   -0.484886   -0.551910
      3          1           0        3.393007    0.236914   -1.357910
      4          1           0        4.020208   -0.364386    0.195590
      5          6           0        1.883808   -0.342788    0.139790
      6          8           0        1.528709   -1.124888    1.024990
      7          7           0        1.104807    0.690411   -0.274210
      8          1           0        1.425406    1.246912   -1.054610
      9          6           0       -0.161893    1.102810    0.342890
     10          1           0       -0.008093    1.040010    1.429590
     11          6           0       -0.465195    2.550110   -0.039710
     12          1           0       -0.560495    2.655910   -1.127410
     13          1           0       -1.416795    2.850709    0.399390
     14          1           0        0.328004    3.216811    0.313990
     15          6           0       -1.387893    0.192009    0.050590
     16          8           0       -2.516093    0.672508    0.006590
     17          7           0       -1.122591   -1.124791   -0.159710
     18          1           0       -0.238991   -1.470290    0.208290
     19          6           0       -2.218890   -2.069992   -0.308310
     20          1           0       -2.967491   -1.645593   -0.980010
     21          1           0       -1.832489   -2.999192   -0.735510
     22          1           0       -2.710190   -2.293392    0.648290
 ---------------------------------------------------------------------

 SCF Done:  E(RHF) =  -492.925941632     A.U. after   14 cycles
 E2 =    -0.1603142662D+01 EUMP2 =    -0.49452908429399D+03

 The electronic state is 1-A.
 Alpha  occ. eigenvalues --  -20.54560 -20.52627 -15.61422 -15.57761 -11.38015
 Alpha  occ. eigenvalues --  -11.35246 -11.29894 -11.26064 -11.25745 -11.23842
 Alpha  occ. eigenvalues --   -1.40026  -1.37797  -1.25468  -1.21829  -1.06217
 Alpha  occ. eigenvalues --   -1.00188  -0.95265  -0.87498  -0.81647  -0.77510
 Alpha  occ. eigenvalues --   -0.72296  -0.69329  -0.67574  -0.63633  -0.62040
 Alpha  occ. eigenvalues --   -0.61831  -0.59610  -0.59016  -0.58236  -0.54914
 Alpha  occ. eigenvalues --   -0.54279  -0.53800  -0.53118  -0.52296  -0.49885
 Alpha  occ. eigenvalues --   -0.44778  -0.43971  -0.39869  -0.37990
 Alpha virt. eigenvalues --    0.02439   0.03991   0.04364   0.04466   0.05879
 Alpha virt. eigenvalues --    0.06223   0.06245   0.06687   0.07261   0.07966
 Alpha virt. eigenvalues --    0.09250   0.10042   0.11180   0.11773   0.12475

 Mulliken atomic charges:
              1
     1  H    0.050484
     2  C    0.385195
     3  H   -0.157871
     4  H    0.060623
     5  C    0.502052
     6  O   -0.913679
     7  N   -0.370098
     8  H   -0.047320
     9  C    0.059520
    10  H   -0.039930
    11  C    0.722273
    12  H   -0.050718
    13  H   -0.057842
    14  H   -0.036415
    15  C    0.802719
    16  O   -0.829747
    17  N   -0.413198
    18  H   -0.071537
    19  C    0.759981
    20  H   -0.124758
    21  H   -0.186444
    22  H   -0.043290
 Sum of Mulliken atomic charges =   0.00000

 Dipole moment (field-independent basis, Debye):
    X=              4.0486    Y=              0.8574    Z=             -2.2263  Tot=              4.6992
 Quadrupole moment (field-independent basis, Debye-Ang):
   XX=            -64.6646   YY=            -58.0819   ZZ=            -62.0541
   XY=              7.9966   XZ=             -5.2855   YZ=              2.3865

 Normal termination of Gaussian 09 at Mon Feb 13 13:10:29 2017.
