 Gaussian 09, Revision A.02,
 Gaussian 09:  EM64L-G09RevA.02 11-Jun-2009

 -------------------
 #SP MP2/aug-cc-pVDZ
 -------------------

 -------------------------------
 Single Point calculation at MP2
 -------------------------------
 Symbolic Z-matrix:
 Charge =  0 Multiplicity = 1

                         Standard orientation:
 ---------------------------------------------------------------------
 Center     Atomic      Atomic             Coordinates (Angstroms)
 Number     Number       Type             X           Y           Z
 ---------------------------------------------------------------------
      1          1           0        3.924396   -1.140056   -0.411681
      2          6           0        2.990399   -0.853745   -0.897981
      3          1           0        2.484288   -1.763739   -1.242581
      4          1           0        3.206306   -0.228548   -1.771581
      5          6           0        2.098007   -0.153735    0.112319
      6          8           0        2.225206   -0.290236    1.316419
      7          7           0        1.154017    0.705876   -0.445081
      8          1           0        1.018616    0.578478   -1.443181
      9          6           0       -0.083780    0.963291    0.285919
     10          1           0        0.216121    1.001987    1.339219
     11          6           0       -0.673264    2.316998   -0.121581
     12          1           0       -1.011964    2.320902   -1.165281
     13          1           0       -1.518260    2.600308    0.517419
     14          1           0        0.091645    3.090789   -0.013681
     15          6           0       -1.017894   -0.273598    0.169219
     16          8           0       -0.567808   -1.408104    0.261819
     17          7           0       -2.332291   -0.022183   -0.110381
     18          1           0       -2.656980    0.932421   -0.117281
     19          6           0       -3.323604   -1.082971   -0.183581
     20          1           0       -2.786015   -2.029078   -0.255081
     21          1           0       -3.962404   -1.105864    0.708519
     22          1           0       -3.956202   -0.954164   -1.068381
 ---------------------------------------------------------------------

 SCF Done:  E(RHF) =  -492.916126972     A.U. after   14 cycles
 E2 =    -0.1602344447D+01 EUMP2 =    -0.49451847141872D+03

 The electronic state is 1-A.
 Alpha  occ. eigenvalues --  -20.53019 -20.52525 -15.60154 -15.58976 -11.36187
 Alpha  occ. eigenvalues --  -11.35477 -11.29291 -11.27164 -11.25121 -11.23839
 Alpha  occ. eigenvalues --   -1.38948  -1.37566  -1.23788  -1.23112  -1.05490
 Alpha  occ. eigenvalues --   -0.98845  -0.95794  -0.88491  -0.79341  -0.78418
 Alpha  occ. eigenvalues --   -0.72673  -0.66947  -0.65645  -0.64472  -0.62418
 Alpha  occ. eigenvalues --   -0.61341  -0.59160  -0.58451  -0.57050  -0.56304
 Alpha  occ. eigenvalues --   -0.55039  -0.54749  -0.53163  -0.50543  -0.50063
 Alpha  occ. eigenvalues --   -0.44083  -0.41813  -0.39677  -0.38735
 Alpha virt. eigenvalues --    0.02489   0.03662   0.04023   0.04614   0.05630
 Alpha virt. eigenvalues --    0.05983   0.06123   0.06877   0.07185   0.08286
 Alpha virt. eigenvalues --    0.08861   0.09177   0.11353   0.12217   0.12474

 Mulliken atomic charges:
              1
     1  H   -0.042163
     2  C    0.302049
     3  H    0.081620
     4  H   -0.049305
     5  C    0.770434
     6  O   -0.847852
     7  N   -0.548865
     8  H   -0.039434
     9  C   -0.151599
    10  H   -0.085487
    11  C    0.824913
    12  H    0.008126
    13  H    0.042223
    14  H   -0.139274
    15  C    0.988752
    16  O   -0.848640
    17  N   -0.514246
    18  H   -0.154382
    19  C    0.764134
    20  H   -0.145521
    21  H   -0.078028
    22  H   -0.137458
 Sum of Mulliken atomic charges =   0.00000

 Dipole moment (field-independent basis, Debye):
    X=             -3.5070    Y=              3.1683    Z=             -3.8350  Tot=              6.0864
 Quadrupole moment (field-independent basis, Debye-Ang):
   XX=            -53.5989   YY=            -62.4113   ZZ=            -63.0220
   XY=             -2.6065   XZ=             -8.1260   YZ=              2.8839

 Normal termination of Gaussian 09 at Mon Feb 13 13:30:35 2017.
