 Gaussian 09, Revision A.02,
 Gaussian 09:  EM64L-G09RevA.02 11-Jun-2009

 -------------------
 #SP MP2/aug-cc-pVDZ
 -------------------

 -------------------------------
 Single Point calculation at MP2
 -------------------------------
 Symbolic Z-matrix:
 Charge =  0 Multiplicity = 1

                         Standard orientation:
 ---------------------------------------------------------------------
 Center     Atomic      Atomic             Coordinates (Angstroms)
 Number     Number       Type             X           Y           Z
 ---------------------------------------------------------------------
      1          1           0       -3.879398   -1.080998    0.034087
      2          6           0       -3.071797   -0.797900    0.715387
      3          1           0       -2.877998   -1.656300    1.366887
      4          1           0       -3.400396    0.046901    1.328187
      5          6           0       -1.824797   -0.507401   -0.101913
      6          8           0       -1.389598   -1.305602   -0.930313
      7          7           0       -1.231195    0.704998    0.119187
      8          1           0       -1.480994    1.229098    0.947387
      9          6           0        0.047405    1.027196   -0.517013
     10          1           0       -0.031995    0.691296   -1.554113
     11          6           0        0.299207    2.532496   -0.462013
     12          1           0        0.444208    2.853796    0.574187
     13          1           0        1.209008    2.784694   -1.015713
     14          1           0       -0.540392    3.079197   -0.903213
     15          6           0        1.186904    0.265694    0.197487
     16          8           0        1.627305    0.642494    1.278487
     17          7           0        1.671503   -0.802106   -0.499013
     18          1           0        1.033002   -1.196705   -1.181213
     19          6           0        2.659601   -1.691708    0.091787
     20          1           0        3.330602   -1.094609    0.710987
     21          1           0        2.199000   -2.461707    0.725087
     22          1           0        3.232401   -2.180308   -0.701513
 ---------------------------------------------------------------------

 SCF Done:  E(RHF) =  -492.928752939     A.U. after   14 cycles
 E2 =    -0.1601952051D+01 EUMP2 =    -0.49453070498981D+03

 The electronic state is 1-A.
 Alpha  occ. eigenvalues --  -20.54040 -20.53007 -15.60599 -15.58709 -11.37272
 Alpha  occ. eigenvalues --  -11.35374 -11.29213 -11.26129 -11.25391 -11.23743
 Alpha  occ. eigenvalues --   -1.39485  -1.38012  -1.24656  -1.22540  -1.05815
 Alpha  occ. eigenvalues --   -0.99760  -0.95595  -0.87140  -0.80735  -0.77737
 Alpha  occ. eigenvalues --   -0.72359  -0.68553  -0.67026  -0.64021  -0.62081
 Alpha  occ. eigenvalues --   -0.61564  -0.59768  -0.58923  -0.57616  -0.55577
 Alpha  occ. eigenvalues --   -0.54098  -0.53697  -0.52214  -0.51636  -0.51084
 Alpha  occ. eigenvalues --   -0.44298  -0.43454  -0.39934  -0.38417
 Alpha virt. eigenvalues --    0.02979   0.03986   0.04221   0.04881   0.05745
 Alpha virt. eigenvalues --    0.06040   0.06337   0.07082   0.07271   0.08048
 Alpha virt. eigenvalues --    0.09100   0.09607   0.11448   0.11776   0.12373

 Mulliken atomic charges:
              1
     1  H    0.042870
     2  C    0.395309
     3  H    0.054514
     4  H   -0.139715
     5  C    0.602932
     6  O   -0.876464
     7  N   -0.434364
     8  H   -0.050138
     9  C   -0.004416
    10  H   -0.316553
    11  C    0.691168
    12  H   -0.011156
    13  H   -0.027821
    14  H   -0.010241
    15  C    1.158053
    16  O   -0.851965
    17  N   -0.604394
    18  H    0.002731
    19  C    0.744726
    20  H   -0.123977
    21  H   -0.076745
    22  H   -0.164352
 Sum of Mulliken atomic charges =   0.00000

 Dipole moment (field-independent basis, Debye):
    X=             -2.0312    Y=              0.6879    Z=             -0.2984  Tot=              2.1652
 Quadrupole moment (field-independent basis, Debye-Ang):
   XX=            -56.7120   YY=            -59.8656   ZZ=            -64.7889
   XY=             -6.4837   XZ=             -9.7710   YZ=             -4.0583

 Normal termination of Gaussian 09 at Mon Feb 13 13:25:28 2017.
