 Gaussian 09, Revision A.02,
 Gaussian 09:  EM64L-G09RevA.02 11-Jun-2009

 -------------------
 #SP MP2/aug-cc-pVDZ
 -------------------

 -------------------------------
 Single Point calculation at MP2
 -------------------------------
 Symbolic Z-matrix:
 Charge =  0 Multiplicity = 1

                         Standard orientation:
 ---------------------------------------------------------------------
 Center     Atomic      Atomic             Coordinates (Angstroms)
 Number     Number       Type             X           Y           Z
 ---------------------------------------------------------------------
      1          1           0        3.947515   -1.168988   -0.064991
      2          6           0        3.111913   -0.807891   -0.666791
      3          1           0        2.659016   -1.660993   -1.185991
      4          1           0        3.477011   -0.101590   -1.420491
      5          6           0        2.070511   -0.188295    0.247609
      6          8           0        1.999312   -0.438095    1.440109
      7          7           0        1.222308    0.722202   -0.371191
      8          1           0        1.192408    0.632702   -1.381491
      9          6           0       -0.080393    0.962197    0.229009
     10          1           0        0.093207    0.978498    1.310709
     11          6           0       -0.632098    2.319595   -0.229591
     12          1           0       -0.868998    2.316494   -1.300091
     13          1           0       -1.541099    2.604492    0.311009
     14          1           0        0.116699    3.095098   -0.045391
     15          6           0       -1.014389   -0.245406   -0.063091
     16          8           0       -0.575685   -1.297005   -0.511991
     17          7           0       -2.345990   -0.032711    0.155809
     18          1           0       -2.628193    0.817088    0.621609
     19          6           0       -3.329886   -1.096215    0.028909
     20          1           0       -2.889783   -1.881313   -0.586591
     21          1           0       -3.599284   -1.523916    1.003309
     22          1           0       -4.235687   -0.717118   -0.455191
 ---------------------------------------------------------------------

 SCF Done:  E(RHF) =  -492.921828107     A.U. after   14 cycles
 E2 =    -0.1600789778D+01 EUMP2 =    -0.49452261788539D+03

 The electronic state is 1-A.
 Alpha  occ. eigenvalues --  -20.53461 -20.52732 -15.59972 -15.58618 -11.36200
 Alpha  occ. eigenvalues --  -11.35488 -11.29215 -11.27099 -11.24999 -11.23702
 Alpha  occ. eigenvalues --   -1.39170  -1.37725  -1.23673  -1.23172  -1.05394
 Alpha  occ. eigenvalues --   -0.98758  -0.95766  -0.88119  -0.79384  -0.78198
 Alpha  occ. eigenvalues --   -0.72759  -0.67032  -0.66102  -0.63577  -0.62577
 Alpha  occ. eigenvalues --   -0.61624  -0.59412  -0.58211  -0.56996  -0.56270
 Alpha  occ. eigenvalues --   -0.55046  -0.54365  -0.53278  -0.50425  -0.50269
 Alpha  occ. eigenvalues --   -0.43589  -0.42050  -0.39807  -0.39300
 Alpha virt. eigenvalues --    0.02674   0.03766   0.04202   0.04690   0.05689
 Alpha virt. eigenvalues --    0.05975   0.06174   0.06872   0.07251   0.08223
 Alpha virt. eigenvalues --    0.09008   0.09496   0.11014   0.11818   0.12229

 Mulliken atomic charges:
              1
     1  H   -0.040432
     2  C    0.289760
     3  H    0.082983
     4  H   -0.030149
     5  C    0.741243
     6  O   -0.867242
     7  N   -0.549789
     8  H   -0.022073
     9  C    0.100772
    10  H   -0.074056
    11  C    0.712727
    12  H   -0.021944
    13  H   -0.087524
    14  H   -0.044355
    15  C    0.910363
    16  O   -0.820062
    17  N   -0.523082
    18  H   -0.112813
    19  C    0.721573
    20  H   -0.141539
    21  H   -0.076326
    22  H   -0.148036
 Sum of Mulliken atomic charges =   0.00000

 Dipole moment (field-independent basis, Debye):
    X=             -2.9204    Y=              3.1602    Z=             -2.1811  Tot=              4.8242
 Quadrupole moment (field-independent basis, Debye-Ang):
   XX=            -51.3932   YY=            -62.3815   ZZ=            -64.0388
   XY=             -1.6943   XZ=             -9.9800   YZ=              1.1556

 Normal termination of Gaussian 09 at Mon Feb 13 13:04:45 2017.
