 Gaussian 09, Revision A.02,
 Gaussian 09:  EM64L-G09RevA.02 11-Jun-2009

 -------------------
 #SP MP2/aug-cc-pVDZ
 -------------------

 -------------------------------
 Single Point calculation at MP2
 -------------------------------
 Symbolic Z-matrix:
 Charge =  0 Multiplicity = 1

                         Standard orientation:
 ---------------------------------------------------------------------
 Center     Atomic      Atomic             Coordinates (Angstroms)
 Number     Number       Type             X           Y           Z
 ---------------------------------------------------------------------
      1          1           0        3.423110   -1.774104   -0.452009
      2          6           0        3.220112   -0.704304   -0.540809
      3          1           0        3.209712   -0.424404   -1.599309
      4          1           0        4.040613   -0.171005   -0.047109
      5          6           0        1.916712   -0.392203    0.180991
      6          8           0        1.614112   -0.903902    1.247491
      7          7           0        1.089913    0.508999   -0.454309
      8          1           0        1.480014    1.039198   -1.223309
      9          6           0       -0.056186    1.096400    0.245391
     10          1           0        0.237915    1.332400    1.272991
     11          6           0       -0.518684    2.367601   -0.472509
     12          1           0       -0.821784    2.154601   -1.504009
     13          1           0       -1.378684    2.792602    0.052291
     14          1           0        0.279017    3.119800   -0.486009
     15          6           0       -1.234087    0.110902    0.400791
     16          8           0       -1.919187    0.110903    1.412791
     17          7           0       -1.537388   -0.601298   -0.727309
     18          1           0       -0.795088   -0.687299   -1.409509
     19          6           0       -2.582089   -1.611897   -0.724609
     20          1           0       -3.316389   -1.328596    0.030591
     21          1           0       -3.065289   -1.653296   -1.705909
     22          1           0       -2.194891   -2.608797   -0.475109
 ---------------------------------------------------------------------

 SCF Done:  E(RHF) =  -492.922311768     A.U. after   14 cycles
 E2 =    -0.1601835761D+01 EUMP2 =    -0.49452414752867D+03

 The electronic state is 1-A.
 Alpha  occ. eigenvalues --  -20.54117 -20.52493 -15.60817 -15.58779 -11.37130
 Alpha  occ. eigenvalues --  -11.35187 -11.29266 -11.26244 -11.25700 -11.24993
 Alpha  occ. eigenvalues --   -1.39612  -1.37743  -1.25109  -1.22167  -1.06124
 Alpha  occ. eigenvalues --   -1.00087  -0.95370  -0.88123  -0.80927  -0.77724
 Alpha  occ. eigenvalues --   -0.71163  -0.68888  -0.67951  -0.62939  -0.62461
 Alpha  occ. eigenvalues --   -0.61902  -0.59477  -0.58980  -0.58148  -0.55854
 Alpha  occ. eigenvalues --   -0.54818  -0.54230  -0.54121  -0.51798  -0.49738
 Alpha  occ. eigenvalues --   -0.43586  -0.43301  -0.39716  -0.38801
 Alpha virt. eigenvalues --    0.02142   0.03621   0.03875   0.04574   0.05547
 Alpha virt. eigenvalues --    0.05779   0.06373   0.06609   0.07209   0.07963
 Alpha virt. eigenvalues --    0.08511   0.09171   0.11088   0.11651   0.11828

 Mulliken atomic charges:
              1
     1  H    0.019180
     2  C    0.385490
     3  H   -0.143606
     4  H    0.061447
     5  C    0.531338
     6  O   -0.826602
     7  N   -0.366289
     8  H   -0.049311
     9  C    0.144095
    10  H   -0.213427
    11  C    0.754070
    12  H   -0.014207
    13  H   -0.058634
    14  H   -0.071898
    15  C    1.025168
    16  O   -0.859133
    17  N   -0.651774
    18  H   -0.028189
    19  C    0.721984
    20  H   -0.128707
    21  H   -0.153547
    22  H   -0.077448
 Sum of Mulliken atomic charges =   0.00000

 Dipole moment (field-independent basis, Debye):
    X=              2.7268    Y=              1.6450    Z=             -6.3095  Tot=              7.0676
 Quadrupole moment (field-independent basis, Debye-Ang):
   XX=            -58.2866   YY=            -57.0366   ZZ=            -67.2300
   XY=              4.3659   XZ=              0.4713   YZ=              3.3519

 Normal termination of Gaussian 09 at Mon Feb 13 14:02:29 2017.
