 Gaussian 09, Revision A.02,
 Gaussian 09:  EM64L-G09RevA.02 11-Jun-2009

 -------------------
 #SP MP2/aug-cc-pVDZ
 -------------------

 -------------------------------
 Single Point calculation at MP2
 -------------------------------
 Symbolic Z-matrix:
 Charge =  0 Multiplicity = 1

                         Standard orientation:
 ---------------------------------------------------------------------
 Center     Atomic      Atomic             Coordinates (Angstroms)
 Number     Number       Type             X           Y           Z
 ---------------------------------------------------------------------
      1          1           0       -3.711022   -1.816770    0.289312
      2          6           0       -2.638822   -1.739579    0.478512
      3          1           0       -2.125129   -2.584883    0.007712
      4          1           0       -2.480422   -1.802580    1.562012
      5          6           0       -2.152911   -0.382983   -0.026988
      6          8           0       -2.891803    0.588223   -0.061588
      7          7           0       -0.839811   -0.390693   -0.456788
      8          1           0       -0.344418   -1.236997   -0.204888
      9          6           0        0.058799    0.782000   -0.585888
     10          1           0        0.217600    0.966998   -1.660988
     11          6           0       -0.446291    2.077104    0.050312
     12          1           0       -0.616092    1.947105    1.122112
     13          1           0        0.323215    2.842797   -0.075588
     14          1           0       -1.377588    2.398511   -0.411988
     15          6           0        1.437996    0.409988    0.015112
     16          8           0        2.039601    1.129484    0.794912
     17          7           0        1.916586   -0.829015   -0.357288
     18          1           0        1.569783   -1.214313   -1.227788
     19          6           0        3.250682   -1.250326    0.055112
     20          1           0        3.379084   -1.014527    1.112412
     21          1           0        3.346774   -2.329327   -0.090588
     22          1           0        4.041686   -0.736933   -0.506788
 ---------------------------------------------------------------------

 SCF Done:  E(RHF) =  -492.909424060     A.U. after   15 cycles
 E2 =    -0.1602592978D+01 EUMP2 =    -0.49451201703802D+03

 The electronic state is 1-A.
 Alpha  occ. eigenvalues --  -20.54873 -20.53403 -15.60827 -15.60185 -11.37159
 Alpha  occ. eigenvalues --  -11.36771 -11.30118 -11.27891 -11.25017 -11.21702
 Alpha  occ. eigenvalues --   -1.40204  -1.38680  -1.25438  -1.22927  -1.05485
 Alpha  occ. eigenvalues --   -0.98990  -0.96717  -0.87793  -0.80125  -0.77264
 Alpha  occ. eigenvalues --   -0.73479  -0.67808  -0.66988  -0.65420  -0.63257
 Alpha  occ. eigenvalues --   -0.62002  -0.60320  -0.59129  -0.56856  -0.56102
 Alpha  occ. eigenvalues --   -0.54318  -0.53541  -0.52664  -0.51433  -0.50281
 Alpha  occ. eigenvalues --   -0.44922  -0.42244  -0.40874  -0.39702
 Alpha virt. eigenvalues --    0.02141   0.03755   0.04003   0.04607   0.05503
 Alpha virt. eigenvalues --    0.05994   0.06648   0.06704   0.07202   0.08192
 Alpha virt. eigenvalues --    0.08938   0.09209   0.10630   0.12239   0.12809

 Mulliken atomic charges:
              1
     1  H   -0.041555
     2  C    0.299818
     3  H   -0.072737
     4  H    0.053291
     5  C    0.635512
     6  O   -0.810542
     7  N   -0.422414
     8  H    0.032564
     9  C   -0.159684
    10  H   -0.118760
    11  C    0.735793
    12  H   -0.018150
    13  H   -0.090029
    14  H    0.079261
    15  C    0.835232
    16  O   -0.762271
    17  N   -0.489417
    18  H   -0.108506
    19  C    0.774101
    20  H   -0.106385
    21  H   -0.181314
    22  H   -0.063809
 Sum of Mulliken atomic charges =   0.00000

 Dipole moment (field-independent basis, Debye):
    X=              2.1161    Y=             -4.8696    Z=             -1.9299  Tot=              5.6494
 Quadrupole moment (field-independent basis, Debye-Ang):
   XX=            -70.5431   YY=            -58.9172   ZZ=            -60.4793
   XY=             -0.0342   XZ=             -6.2899   YZ=             -2.2216

 Normal termination of Gaussian 09 at Sun Feb 12 18:46:14 2017.
