 Gaussian 09, Revision A.02,
 Gaussian 09:  EM64L-G09RevA.02 11-Jun-2009

 -------------------
 #SP MP2/aug-cc-pVDZ
 -------------------

 -------------------------------
 Single Point calculation at MP2
 -------------------------------
 Symbolic Z-matrix:
 Charge =  0 Multiplicity = 1

                         Standard orientation:
 ---------------------------------------------------------------------
 Center     Atomic      Atomic             Coordinates (Angstroms)
 Number     Number       Type             X           Y           Z
 ---------------------------------------------------------------------
      1          1           0       -3.723693   -1.646996    0.578096
      2          6           0       -3.028493   -1.457096   -0.241804
      3          1           0       -3.618193   -1.204796   -1.131504
      4          1           0       -2.460593   -2.369296   -0.454604
      5          6           0       -2.147792   -0.267796    0.135896
      6          8           0       -2.552892    0.619304    0.866696
      7          7           0       -0.877192   -0.325496   -0.414004
      8          1           0       -0.785192   -1.041596   -1.125004
      9          6           0        0.104208    0.765304   -0.584804
     10          1           0        0.190408    0.957004   -1.664804
     11          6           0       -0.256492    2.091504    0.091696
     12          1           0       -0.372192    1.977404    1.170496
     13          1           0        0.564408    2.784204   -0.106304
     14          1           0       -1.187292    2.498704   -0.305604
     15          6           0        1.531108    0.334304   -0.157304
     16          8           0        2.435108    1.157603   -0.099604
     17          7           0        1.732708   -1.010196   -0.008204
     18          1           0        0.910307   -1.556296    0.213096
     19          6           0        3.023207   -1.520297    0.430296
     20          1           0        3.803108   -0.899597   -0.012704
     21          1           0        3.136507   -1.485997    1.521996
     22          1           0        3.141607   -2.553697    0.091696
 ---------------------------------------------------------------------

 SCF Done:  E(RHF) =  -492.912924939     A.U. after   14 cycles
 E2 =    -0.1601965224D+01 EUMP2 =    -0.49451489016349D+03

 The electronic state is 1-A.
 Alpha  occ. eigenvalues --  -20.54074 -20.53399 -15.60980 -15.59833 -11.37578
 Alpha  occ. eigenvalues --  -11.36111 -11.30122 -11.27084 -11.25721 -11.22077
 Alpha  occ. eigenvalues --   -1.39547  -1.38756  -1.25438  -1.22755  -1.05725
 Alpha  occ. eigenvalues --   -0.99538  -0.96098  -0.87984  -0.80186  -0.76632
 Alpha  occ. eigenvalues --   -0.72788  -0.70165  -0.67027  -0.63773  -0.62616
 Alpha  occ. eigenvalues --   -0.62019  -0.60659  -0.59510  -0.57179  -0.55225
 Alpha  occ. eigenvalues --   -0.54544  -0.53411  -0.52348  -0.51884  -0.50308
 Alpha  occ. eigenvalues --   -0.44803  -0.42840  -0.39969  -0.39495
 Alpha virt. eigenvalues --    0.02159   0.03608   0.04072   0.04744   0.05546
 Alpha virt. eigenvalues --    0.06021   0.06378   0.06586   0.07312   0.08260
 Alpha virt. eigenvalues --    0.08317   0.09031   0.10797   0.12431   0.12557

 Mulliken atomic charges:
              1
     1  H   -0.013782
     2  C    0.355271
     3  H    0.050895
     4  H   -0.086730
     5  C    0.649815
     6  O   -0.782974
     7  N   -0.431945
     8  H   -0.069947
     9  C   -0.163350
    10  H   -0.013623
    11  C    0.708787
    12  H    0.006990
    13  H   -0.087889
    14  H    0.006365
    15  C    0.838960
    16  O   -0.828850
    17  N   -0.474618
    18  H   -0.058769
    19  C    0.749519
    20  H   -0.119895
    21  H   -0.065853
    22  H   -0.168378
 Sum of Mulliken atomic charges =   0.00000

 Dipole moment (field-independent basis, Debye):
    X=             -1.0211    Y=             -5.0711    Z=             -2.2800  Tot=              5.6531
 Quadrupole moment (field-independent basis, Debye-Ang):
   XX=            -70.3697   YY=            -59.0993   ZZ=            -60.7463
   XY=             -1.3276   XZ=              7.2191   YZ=             -1.7170

 Normal termination of Gaussian 09 at Sun Feb 12 18:14:16 2017.
