 Gaussian 09, Revision A.02,
 Gaussian 09:  EM64L-G09RevA.02 11-Jun-2009

 -------------------
 #SP MP2/aug-cc-pVDZ
 -------------------

 -------------------------------
 Single Point calculation at MP2
 -------------------------------
 Symbolic Z-matrix:
 Charge =  0 Multiplicity = 1

                         Standard orientation:
 ---------------------------------------------------------------------
 Center     Atomic      Atomic             Coordinates (Angstroms)
 Number     Number       Type             X           Y           Z
 ---------------------------------------------------------------------
      1          1           0        3.518289   -1.841398   -0.341095
      2          6           0        3.040889   -1.328798    0.497205
      3          1           0        3.832889   -0.857397    1.090205
      4          1           0        2.528389   -2.064098    1.126105
      5          6           0        2.125689   -0.240598   -0.059095
      6          8           0        2.460688    0.439702   -1.018395
      7          7           0        0.933089   -0.115798    0.613405
      8          1           0        0.820889   -0.714798    1.420805
      9          6           0       -0.110912    0.914901    0.498005
     10          1           0       -0.127112    1.486801    1.433405
     11          6           0        0.052888    1.901901   -0.664695
     12          1           0        0.061588    1.404901   -1.636495
     13          1           0       -0.793912    2.596201   -0.630495
     14          1           0        0.980988    2.467202   -0.575195
     15          6           0       -1.498412    0.233701    0.452905
     16          8           0       -2.365712    0.501900    1.275805
     17          7           0       -1.677111   -0.628999   -0.587595
     18          1           0       -0.877011   -0.840299   -1.167695
     19          6           0       -2.909711   -1.366400   -0.796795
     20          1           0       -3.640211   -0.989900   -0.079295
     21          1           0       -3.288911   -1.212400   -1.813295
     22          1           0       -2.770111   -2.442300   -0.632095
 ---------------------------------------------------------------------

 SCF Done:  E(RHF) =  -492.915318737     A.U. after   14 cycles
 E2 =    -0.1601290588D+01 EUMP2 =    -0.49451660932446D+03

 The electronic state is 1-A.
 Alpha  occ. eigenvalues --  -20.53610 -20.53606 -15.60900 -15.59713 -11.37410
 Alpha  occ. eigenvalues --  -11.36154 -11.29890 -11.27099 -11.25449 -11.23417
 Alpha  occ. eigenvalues --   -1.39228  -1.38673  -1.25192  -1.22994  -1.06094
 Alpha  occ. eigenvalues --   -0.99645  -0.95843  -0.89123  -0.79794  -0.77780
 Alpha  occ. eigenvalues --   -0.72773  -0.69532  -0.66989  -0.63941  -0.62562
 Alpha  occ. eigenvalues --   -0.62075  -0.59791  -0.59296  -0.57127  -0.56198
 Alpha  occ. eigenvalues --   -0.55001  -0.54042  -0.53279  -0.52101  -0.51101
 Alpha  occ. eigenvalues --   -0.44311  -0.42303  -0.39991  -0.38971
 Alpha virt. eigenvalues --    0.02655   0.03746   0.04288   0.04713   0.05534
 Alpha virt. eigenvalues --    0.05961   0.06154   0.06625   0.07394   0.07890
 Alpha virt. eigenvalues --    0.08708   0.09036   0.11209   0.11804   0.12525

 Mulliken atomic charges:
              1
     1  H    0.015250
     2  C    0.373969
     3  H    0.058222
     4  H   -0.137647
     5  C    0.644066
     6  O   -0.821864
     7  N   -0.329282
     8  H   -0.088951
     9  C    0.176013
    10  H   -0.264353
    11  C    0.773571
    12  H   -0.027156
    13  H   -0.088074
    14  H   -0.016740
    15  C    0.805571
    16  O   -0.825982
    17  N   -0.585798
    18  H   -0.053224
    19  C    0.728184
    20  H   -0.146866
    21  H   -0.100056
    22  H   -0.088853
 Sum of Mulliken atomic charges =   0.00000

 Dipole moment (field-independent basis, Debye):
    X=              0.9544    Y=             -3.0511    Z=              0.1454  Tot=              3.2002
 Quadrupole moment (field-independent basis, Debye-Ang):
   XX=            -69.6963   YY=            -57.2101   ZZ=            -63.9485
   XY=             -0.8303   XZ=             14.9431   YZ=              0.0581

 Normal termination of Gaussian 09 at Sun Feb 12 17:40:44 2017.
