 Gaussian 09, Revision A.02,
 Gaussian 09:  EM64L-G09RevA.02 11-Jun-2009

 -------------------
 #SP MP2/aug-cc-pVDZ
 -------------------

 -------------------------------
 Single Point calculation at MP2
 -------------------------------
 Symbolic Z-matrix:
 Charge =  0 Multiplicity = 1

                         Standard orientation:
 ---------------------------------------------------------------------
 Center     Atomic      Atomic             Coordinates (Angstroms)
 Number     Number       Type             X           Y           Z
 ---------------------------------------------------------------------
      1          1           0       -3.746604   -1.833295    0.015304
      2          6           0       -2.726603   -1.740797    0.394904
      3          1           0       -2.132805   -2.592697    0.046604
      4          1           0       -2.773504   -1.777697    1.489404
      5          6           0       -2.172302   -0.382897   -0.030796
      6          8           0       -2.878601    0.614104   -0.046096
      7          7           0       -0.844202   -0.412099   -0.385296
      8          1           0       -0.386203   -1.308700   -0.292896
      9          6           0        0.080600    0.717600   -0.602896
     10          1           0        0.288700    0.787300   -1.683296
     11          6           0       -0.415799    2.076201   -0.112596
     12          1           0       -0.589799    2.054901    0.964604
     13          1           0        0.364102    2.818100   -0.314196
     14          1           0       -1.337698    2.363702   -0.614196
     15          6           0        1.394799    0.343898    0.126804
     16          8           0        1.699800    0.787898    1.222404
     17          7           0        2.140698   -0.602803   -0.532096
     18          1           0        1.936198   -0.768602   -1.508496
     19          6           0        3.421797   -1.065304   -0.019396
     20          1           0        3.427398   -0.897904    1.058204
     21          1           0        3.546996   -2.132904   -0.224796
     22          1           0        4.263198   -0.516105   -0.461096
 ---------------------------------------------------------------------

 SCF Done:  E(RHF) =  -492.911528375     A.U. after   14 cycles
 E2 =    -0.1602120952D+01 EUMP2 =    -0.49451364932681D+03

 The electronic state is 1-A.
 Alpha  occ. eigenvalues --  -20.54330 -20.52868 -15.60843 -15.60257 -11.36877
 Alpha  occ. eigenvalues --  -11.36598 -11.30105 -11.27795 -11.24773 -11.21798
 Alpha  occ. eigenvalues --   -1.39728  -1.38267  -1.25083  -1.23261  -1.05561
 Alpha  occ. eigenvalues --   -0.98884  -0.96721  -0.87925  -0.80021  -0.77498
 Alpha  occ. eigenvalues --   -0.73042  -0.68783  -0.66722  -0.65082  -0.62843
 Alpha  occ. eigenvalues --   -0.62051  -0.60306  -0.58922  -0.56567  -0.55777
 Alpha  occ. eigenvalues --   -0.53912  -0.53543  -0.52772  -0.51410  -0.50530
 Alpha  occ. eigenvalues --   -0.44662  -0.41861  -0.40356  -0.39239
 Alpha virt. eigenvalues --    0.02128   0.03590   0.04019   0.04650   0.05557
 Alpha virt. eigenvalues --    0.06090   0.06346   0.06739   0.07487   0.07955
 Alpha virt. eigenvalues --    0.08850   0.09331   0.10731   0.12332   0.12681

 Mulliken atomic charges:
              1
     1  H    0.001903
     2  C    0.364535
     3  H   -0.145392
     4  H    0.054953
     5  C    0.580250
     6  O   -0.816518
     7  N   -0.427671
     8  H   -0.026281
     9  C    0.003229
    10  H   -0.211069
    11  C    0.666605
    12  H    0.032177
    13  H   -0.091304
    14  H    0.089269
    15  C    0.957664
    16  O   -0.797227
    17  N   -0.501172
    18  H   -0.107623
    19  C    0.733371
    20  H   -0.128937
    21  H   -0.145574
    22  H   -0.085188
 Sum of Mulliken atomic charges =   0.00000

 Dipole moment (field-independent basis, Debye):
    X=              2.8275    Y=             -4.2903    Z=             -3.0988  Tot=              6.0003
 Quadrupole moment (field-independent basis, Debye-Ang):
   XX=            -66.6373   YY=            -58.2335   ZZ=            -62.0318
   XY=              2.7127   XZ=             -7.2103   YZ=             -2.3647

 Normal termination of Gaussian 09 at Sun Feb 12 19:16:23 2017.
