 Gaussian 09, Revision A.02,
 Gaussian 09:  EM64L-G09RevA.02 11-Jun-2009

 -------------------
 #SP MP2/aug-cc-pVDZ
 -------------------

 -------------------------------
 Single Point calculation at MP2
 -------------------------------
 Symbolic Z-matrix:
 Charge =  0 Multiplicity = 1

                         Standard orientation:
 ---------------------------------------------------------------------
 Center     Atomic      Atomic             Coordinates (Angstroms)
 Number     Number       Type             X           Y           Z
 ---------------------------------------------------------------------
      1          1           0       -4.069199   -1.362384   -0.069090
      2          6           0       -2.998499   -1.517286    0.072410
      3          1           0       -2.655201   -2.319987   -0.589390
      4          1           0       -2.827400   -1.835086    1.108110
      5          6           0       -2.276697   -0.197588   -0.181790
      6          8           0       -2.850394    0.878514   -0.102490
      7          7           0       -0.951597   -0.349990   -0.534990
      8          1           0       -0.608599   -1.294391   -0.411090
      9          6           0        0.108905    0.664607   -0.427690
     10          1           0        0.348106    1.026807   -1.438790
     11          6           0       -0.221692    1.875308    0.459310
     12          1           0       -0.418393    1.544909    1.482510
     13          1           0        0.645709    2.545806    0.472510
     14          1           0       -1.093391    2.410910    0.088410
     15          6           0        1.340604   -0.037195    0.180310
     16          8           0        1.285203   -0.594295    1.270210
     17          7           0        2.457304   -0.020897   -0.602890
     18          1           0        2.419805    0.472403   -1.483290
     19          6           0        3.729603   -0.572500   -0.168490
     20          1           0        3.558402   -1.071400    0.786310
     21          1           0        4.106501   -1.301001   -0.894990
     22          1           0        4.481904    0.213798   -0.032190
 ---------------------------------------------------------------------

 SCF Done:  E(RHF) =  -492.914096469     A.U. after   14 cycles
 E2 =    -0.1602141023D+01 EUMP2 =    -0.49451623749164D+03

 The electronic state is 1-A.
 Alpha  occ. eigenvalues --  -20.53993 -20.52943 -15.60987 -15.59487 -11.36917
 Alpha  occ. eigenvalues --  -11.36186 -11.29928 -11.27748 -11.24307 -11.22549
 Alpha  occ. eigenvalues --   -1.39569  -1.38137  -1.24566  -1.23410  -1.05557
 Alpha  occ. eigenvalues --   -0.98849  -0.96503  -0.88097  -0.80262  -0.76894
 Alpha  occ. eigenvalues --   -0.73146  -0.68274  -0.66644  -0.64095  -0.63069
 Alpha  occ. eigenvalues --   -0.62010  -0.60209  -0.58487  -0.56484  -0.55699
 Alpha  occ. eigenvalues --   -0.55082  -0.54201  -0.52592  -0.51441  -0.50244
 Alpha  occ. eigenvalues --   -0.43838  -0.41323  -0.40507  -0.39580
 Alpha virt. eigenvalues --    0.02481   0.03890   0.04162   0.04517   0.05750
 Alpha virt. eigenvalues --    0.06079   0.06341   0.06646   0.07874   0.07928
 Alpha virt. eigenvalues --    0.08793   0.09064   0.11585   0.12146   0.12368

 Mulliken atomic charges:
              1
     1  H   -0.055521
     2  C    0.319139
     3  H   -0.040414
     4  H    0.063236
     5  C    0.703119
     6  O   -0.809895
     7  N   -0.409920
     8  H   -0.013425
     9  C   -0.184371
    10  H   -0.265441
    11  C    0.688595
    12  H    0.008735
    13  H   -0.096079
    14  H    0.056888
    15  C    1.086873
    16  O   -0.853315
    17  N   -0.462954
    18  H   -0.111628
    19  C    0.733154
    20  H   -0.149974
    21  H   -0.118235
    22  H   -0.088568
 Sum of Mulliken atomic charges =   0.00000

 Dipole moment (field-independent basis, Debye):
    X=              3.5795    Y=             -1.4684    Z=             -2.9748  Tot=              4.8804
 Quadrupole moment (field-independent basis, Debye-Ang):
   XX=            -60.0869   YY=            -59.5517   ZZ=            -63.4763
   XY=             10.1474   XZ=             -6.5056   YZ=              1.0714

 Normal termination of Gaussian 09 at Sun Feb 12 18:09:12 2017.
