 Gaussian 09, Revision A.02,
 Gaussian 09:  EM64L-G09RevA.02 11-Jun-2009

 -------------------
 #SP MP2/aug-cc-pVDZ
 -------------------

 -------------------------------
 Single Point calculation at MP2
 -------------------------------
 Symbolic Z-matrix:
 Charge =  0 Multiplicity = 1

                         Standard orientation:
 ---------------------------------------------------------------------
 Center     Atomic      Atomic             Coordinates (Angstroms)
 Number     Number       Type             X           Y           Z
 ---------------------------------------------------------------------
      1          1           0       -4.017706   -1.195401   -0.016203
      2          6           0       -3.055807   -1.326102    0.489397
      3          1           0       -2.614008   -2.275902    0.172497
      4          1           0       -3.256607   -1.367801    1.564197
      5          6           0       -2.188205   -0.102203    0.206097
      6          8           0       -2.553504    1.018898    0.539997
      7          7           0       -1.019706   -0.387904   -0.444203
      8          1           0       -0.819207   -1.357504   -0.654403
      9          6           0        0.082395    0.498195   -0.840603
     10          1           0        0.116595    0.521795   -1.939603
     11          6           0       -0.026803    1.939795   -0.340003
     12          1           0       -0.079603    2.001395    0.750597
     13          1           0        0.842898    2.503594   -0.698903
     14          1           0       -0.930202    2.414896   -0.720603
     15          6           0        1.363295   -0.270907   -0.431803
     16          8           0        1.547293   -1.396807   -0.890303
     17          7           0        2.195395    0.319992    0.463097
     18          1           0        1.961296    1.237293    0.811297
     19          6           0        3.405395   -0.321709    0.949897
     20          1           0        3.479593   -1.293709    0.461197
     21          1           0        4.292495    0.274290    0.706597
     22          1           0        3.362694   -0.466709    2.035597
 ---------------------------------------------------------------------

 SCF Done:  E(RHF) =  -492.916034957     A.U. after   14 cycles
 E2 =    -0.1601678697D+01 EUMP2 =    -0.49451771365438D+03

 The electronic state is 1-A.
 Alpha  occ. eigenvalues --  -20.53680 -20.52401 -15.60685 -15.59727 -11.36799
 Alpha  occ. eigenvalues --  -11.36369 -11.30150 -11.27529 -11.24375 -11.23838
 Alpha  occ. eigenvalues --   -1.39333  -1.37808  -1.24421  -1.23649  -1.05950
 Alpha  occ. eigenvalues --   -0.98987  -0.96016  -0.89823  -0.80487  -0.76894
 Alpha  occ. eigenvalues --   -0.72825  -0.69070  -0.66165  -0.65332  -0.62470
 Alpha  occ. eigenvalues --   -0.61700  -0.59202  -0.58876  -0.56542  -0.55900
 Alpha  occ. eigenvalues --   -0.55750  -0.54471  -0.53232  -0.52136  -0.50596
 Alpha  occ. eigenvalues --   -0.43929  -0.41664  -0.40081  -0.38739
 Alpha virt. eigenvalues --    0.02923   0.03905   0.04145   0.04825   0.05516
 Alpha virt. eigenvalues --    0.06162   0.06531   0.06665   0.07257   0.07808
 Alpha virt. eigenvalues --    0.09434   0.09879   0.10592   0.11593   0.13020

 Mulliken atomic charges:
              1
     1  H    0.044393
     2  C    0.399418
     3  H   -0.182044
     4  H    0.033921
     5  C    0.583576
     6  O   -0.839425
     7  N   -0.466827
     8  H   -0.057263
     9  C    0.152294
    10  H   -0.054447
    11  C    0.777878
    12  H    0.077280
    13  H   -0.094643
    14  H   -0.092266
    15  C    0.946223
    16  O   -0.923106
    17  N   -0.582321
    18  H   -0.114046
    19  C    0.732704
    20  H   -0.147641
    21  H   -0.100364
    22  H   -0.093293
 Sum of Mulliken atomic charges =   0.00000

 Dipole moment (field-independent basis, Debye):
    X=              2.0461    Y=              0.2891    Z=              0.7825  Tot=              2.2096
 Quadrupole moment (field-independent basis, Debye-Ang):
   XX=            -61.1143   YY=            -63.4044   ZZ=            -61.0775
   XY=             14.1146   XZ=              7.4059   YZ=             -4.3280

 Normal termination of Gaussian 09 at Sun Feb 12 18:45:03 2017.
