 Gaussian 09, Revision A.02,
 Gaussian 09:  EM64L-G09RevA.02 11-Jun-2009

 -------------------
 #SP MP2/aug-cc-pVDZ
 -------------------

 -------------------------------
 Single Point calculation at MP2
 -------------------------------
 Symbolic Z-matrix:
 Charge =  0 Multiplicity = 1

                         Standard orientation:
 ---------------------------------------------------------------------
 Center     Atomic      Atomic             Coordinates (Angstroms)
 Number     Number       Type             X           Y           Z
 ---------------------------------------------------------------------
      1          1           0        3.932706   -1.225497    0.345903
      2          6           0        3.008907   -1.444802   -0.199597
      3          1           0        2.540812   -2.330304    0.241903
      4          1           0        3.286408   -1.665500   -1.234097
      5          6           0        2.129801   -0.196706   -0.190997
      6          8           0        2.476896    0.822496   -0.773897
      7          7           0        0.961502   -0.339912    0.510903
      8          1           0        0.816706   -1.225013    0.978803
      9          6           0       -0.086903    0.647983    0.813503
     10          1           0       -0.094104    0.805083    1.899203
     11          6           0        0.075590    2.009684    0.132803
     12          1           0        0.150490    1.940784   -0.954997
     13          1           0       -0.787713    2.630979    0.396303
     14          1           0        0.985587    2.506188    0.471203
     15          6           0       -1.431800   -0.064624    0.534303
     16          8           0       -1.959996   -0.741627    1.411303
     17          7           0       -1.922000    0.047374   -0.729797
     18          1           0       -1.401203    0.591076   -1.402097
     19          6           0       -3.120697   -0.643732   -1.171697
     20          1           0       -3.562494   -1.123335   -0.297297
     21          1           0       -3.841600    0.060564   -1.601697
     22          1           0       -2.886693   -1.411031   -1.919997
 ---------------------------------------------------------------------

 SCF Done:  E(RHF) =  -492.914821309     A.U. after   14 cycles
 E2 =    -0.1601315777D+01 EUMP2 =    -0.49451613708554D+03

 The electronic state is 1-A.
 Alpha  occ. eigenvalues --  -20.53687 -20.53018 -15.60483 -15.60083 -11.36946
 Alpha  occ. eigenvalues --  -11.36387 -11.29996 -11.27236 -11.24948 -11.23788
 Alpha  occ. eigenvalues --   -1.39124  -1.38386  -1.24679  -1.23414  -1.06042
 Alpha  occ. eigenvalues --   -0.99341  -0.95859  -0.89660  -0.80009  -0.77512
 Alpha  occ. eigenvalues --   -0.72647  -0.69447  -0.66531  -0.64788  -0.62259
 Alpha  occ. eigenvalues --   -0.61941  -0.59443  -0.59083  -0.56867  -0.55906
 Alpha  occ. eigenvalues --   -0.55532  -0.54279  -0.53243  -0.52169  -0.51129
 Alpha  occ. eigenvalues --   -0.44062  -0.42046  -0.39824  -0.39000
 Alpha virt. eigenvalues --    0.02985   0.03718   0.04170   0.04985   0.05588
 Alpha virt. eigenvalues --    0.05879   0.06392   0.06738   0.07317   0.07690
 Alpha virt. eigenvalues --    0.08985   0.09687   0.11458   0.11827   0.12721

 Mulliken atomic charges:
              1
     1  H    0.049881
     2  C    0.402930
     3  H   -0.160055
     4  H    0.033954
     5  C    0.606322
     6  O   -0.834544
     7  N   -0.480568
     8  H   -0.083454
     9  C    0.389469
    10  H   -0.168292
    11  C    0.693996
    12  H    0.032267
    13  H   -0.111762
    14  H   -0.020126
    15  C    0.821067
    16  O   -0.890408
    17  N   -0.579433
    18  H   -0.087612
    19  C    0.726004
    20  H   -0.147830
    21  H   -0.100437
    22  H   -0.091367
 Sum of Mulliken atomic charges =   0.00000

 Dipole moment (field-independent basis, Debye):
    X=             -0.4076    Y=             -0.9488    Z=             -1.3105  Tot=              1.6685
 Quadrupole moment (field-independent basis, Debye-Ang):
   XX=            -65.4040   YY=            -59.6411   ZZ=            -63.2586
   XY=            -10.4302   XZ=             12.5713   YZ=              4.0106

 Normal termination of Gaussian 09 at Sun Feb 12 18:49:21 2017.
