 Gaussian 09, Revision A.02,
 Gaussian 09:  EM64L-G09RevA.02 11-Jun-2009

 -------------------
 #SP MP2/aug-cc-pVDZ
 -------------------

 -------------------------------
 Single Point calculation at MP2
 -------------------------------
 Symbolic Z-matrix:
 Charge =  0 Multiplicity = 1

                         Standard orientation:
 ---------------------------------------------------------------------
 Center     Atomic      Atomic             Coordinates (Angstroms)
 Number     Number       Type             X           Y           Z
 ---------------------------------------------------------------------
      1          1           0       -4.127489   -1.116317    0.058895
      2          6           0       -3.109888   -1.297010    0.415495
      3          1           0       -2.729981   -2.221707   -0.029505
      4          1           0       -3.161787   -1.426210    1.502195
      5          6           0       -2.263397   -0.064004    0.108995
      6          8           0       -2.676005    1.061193    0.367395
      7          7           0       -1.060395   -0.350695   -0.476205
      8          1           0       -0.796688   -1.327193   -0.552405
      9          6           0        0.094399    0.518214   -0.709205
     10          1           0        0.208898    0.653614   -1.797305
     11          6           0        0.002289    1.910713   -0.074405
     12          1           0        0.003989    1.862113    1.018695
     13          1           0        0.846884    2.524519   -0.411805
     14          1           0       -0.919815    2.405506   -0.373205
     15          6           0        1.327305   -0.321678   -0.277205
     16          8           0        1.308914   -1.543878   -0.414605
     17          7           0        2.400400    0.353930    0.205595
     18          1           0        2.324393    1.349330    0.347895
     19          6           0        3.630505   -0.311461    0.603695
     20          1           0        3.532512   -1.366362    0.346395
     21          1           0        4.490702    0.113545    0.074495
     22          1           0        3.797804   -0.220660    1.683395
 ---------------------------------------------------------------------

 SCF Done:  E(RHF) =  -492.916724338     A.U. after   14 cycles
 E2 =    -0.1601851039D+01 EUMP2 =    -0.49451857537674D+03

 The electronic state is 1-A.
 Alpha  occ. eigenvalues --  -20.54136 -20.52139 -15.60868 -15.58969 -11.37183
 Alpha  occ. eigenvalues --  -11.35976 -11.30292 -11.27715 -11.23973 -11.23832
 Alpha  occ. eigenvalues --   -1.39795  -1.37488  -1.24614  -1.23344  -1.05828
 Alpha  occ. eigenvalues --   -0.98748  -0.96085  -0.89689  -0.80837  -0.76258
 Alpha  occ. eigenvalues --   -0.73132  -0.68515  -0.66244  -0.65423  -0.62615
 Alpha  occ. eigenvalues --   -0.61794  -0.59349  -0.58681  -0.56663  -0.56033
 Alpha  occ. eigenvalues --   -0.55498  -0.54585  -0.52841  -0.52283  -0.50147
 Alpha  occ. eigenvalues --   -0.43998  -0.41277  -0.40580  -0.38647
 Alpha virt. eigenvalues --    0.02744   0.04099   0.04152   0.04587   0.05626
 Alpha virt. eigenvalues --    0.06331   0.06384   0.06565   0.07345   0.07889
 Alpha virt. eigenvalues --    0.09518   0.10171   0.10834   0.11334   0.13176

 Mulliken atomic charges:
              1
     1  H    0.022151
     2  C    0.386195
     3  H   -0.152066
     4  H    0.037130
     5  C    0.590874
     6  O   -0.842851
     7  N   -0.412402
     8  H   -0.024141
     9  C   -0.071740
    10  H   -0.007383
    11  C    0.799544
    12  H   -0.004208
    13  H   -0.057823
    14  H   -0.066202
    15  C    0.975065
    16  O   -0.897187
    17  N   -0.522415
    18  H   -0.121071
    19  C    0.726831
    20  H   -0.151690
    21  H   -0.117662
    22  H   -0.088947
 Sum of Mulliken atomic charges =   0.00000

 Dipole moment (field-independent basis, Debye):
    X=              3.1983    Y=              0.5334    Z=              0.1423  Tot=              3.2456
 Quadrupole moment (field-independent basis, Debye-Ang):
   XX=            -59.3443   YY=            -64.4050   ZZ=            -60.6220
   XY=             14.3699   XZ=              3.8288   YZ=             -2.7032

 Normal termination of Gaussian 09 at Mon Feb 13 00:34:03 2017.
