 Gaussian 09, Revision A.02,
 Gaussian 09:  EM64L-G09RevA.02 11-Jun-2009

 -------------------
 #SP MP2/aug-cc-pVDZ
 -------------------

 -------------------------------
 Single Point calculation at MP2
 -------------------------------
 Symbolic Z-matrix:
 Charge =  0 Multiplicity = 1

                         Standard orientation:
 ---------------------------------------------------------------------
 Center     Atomic      Atomic             Coordinates (Angstroms)
 Number     Number       Type             X           Y           Z
 ---------------------------------------------------------------------
      1          1           0       -3.846600   -1.725316   -0.063799
      2          6           0       -2.821800   -1.693313    0.312301
      3          1           0       -2.268098   -2.556712   -0.072099
      4          1           0       -2.863200   -1.770213    1.404901
      5          6           0       -2.208304   -0.347211   -0.066499
      6          8           0       -2.875507    0.676587   -0.069899
      7          7           0       -0.874404   -0.417308   -0.391399
      8          1           0       -0.457701   -1.336406   -0.330899
      9          6           0        0.093193    0.678295   -0.573899
     10          1           0        0.319093    0.762496   -1.649299
     11          6           0       -0.360711    2.045694   -0.061499
     12          1           0       -0.535211    2.006093    1.015301
     13          1           0        0.442887    2.766196   -0.250799
     14          1           0       -1.272212    2.373291   -0.557099
     15          6           0        1.376494    0.251099    0.179201
     16          8           0        1.541094    0.464099    1.371301
     17          7           0        2.265996   -0.453099   -0.588999
     18          1           0        2.120296   -0.473799   -1.588699
     19          6           0        3.539698   -0.925195   -0.069999
     20          1           0        3.491097   -0.866295    1.018101
     21          1           0        3.717401   -1.962594   -0.372199
     22          1           0        4.374996   -0.305593   -0.419499
 ---------------------------------------------------------------------

 SCF Done:  E(RHF) =  -492.911867497     A.U. after   14 cycles
 E2 =    -0.1602156698D+01 EUMP2 =    -0.49451402419574D+03

 The electronic state is 1-A.
 Alpha  occ. eigenvalues --  -20.54002 -20.52778 -15.60917 -15.60154 -11.36773
 Alpha  occ. eigenvalues --  -11.36501 -11.30069 -11.27746 -11.24648 -11.21945
 Alpha  occ. eigenvalues --   -1.39503  -1.38165  -1.24845  -1.23425  -1.05568
 Alpha  occ. eigenvalues --   -0.98868  -0.96656  -0.87987  -0.80071  -0.77420
 Alpha  occ. eigenvalues --   -0.72974  -0.68904  -0.66670  -0.64755  -0.62750
 Alpha  occ. eigenvalues --   -0.62072  -0.60229  -0.58802  -0.56483  -0.55672
 Alpha  occ. eigenvalues --   -0.54344  -0.53456  -0.52824  -0.51212  -0.50549
 Alpha  occ. eigenvalues --   -0.44344  -0.41629  -0.40309  -0.39161
 Alpha virt. eigenvalues --    0.02189   0.03602   0.04037   0.04633   0.05605
 Alpha virt. eigenvalues --    0.06157   0.06230   0.06707   0.07629   0.07924
 Alpha virt. eigenvalues --    0.08692   0.09326   0.11084   0.12238   0.12524

 Mulliken atomic charges:
              1
     1  H   -0.003806
     2  C    0.369518
     3  H   -0.130354
     4  H    0.058024
     5  C    0.610537
     6  O   -0.815331
     7  N   -0.426788
     8  H   -0.040443
     9  C   -0.046230
    10  H   -0.237340
    11  C    0.666561
    12  H    0.033151
    13  H   -0.080155
    14  H    0.085573
    15  C    0.998607
    16  O   -0.807369
    17  N   -0.496541
    18  H   -0.110726
    19  C    0.728627
    20  H   -0.139572
    21  H   -0.130623
    22  H   -0.085322
 Sum of Mulliken atomic charges =   0.00000

 Dipole moment (field-independent basis, Debye):
    X=              3.1123    Y=             -3.7178    Z=             -3.4332  Tot=              5.9410
 Quadrupole moment (field-independent basis, Debye-Ang):
   XX=            -64.3396   YY=            -57.9484   ZZ=            -63.0439
   XY=              4.7339   XZ=             -7.4438   YZ=             -1.6242

 Normal termination of Gaussian 09 at Sun Feb 12 19:13:41 2017.
