 Gaussian 09, Revision A.02,
 Gaussian 09:  EM64L-G09RevA.02 11-Jun-2009

 -------------------
 #SP MP2/aug-cc-pVDZ
 -------------------

 -------------------------------
 Single Point calculation at MP2
 -------------------------------
 Symbolic Z-matrix:
 Charge =  0 Multiplicity = 1

                         Standard orientation:
 ---------------------------------------------------------------------
 Center     Atomic      Atomic             Coordinates (Angstroms)
 Number     Number       Type             X           Y           Z
 ---------------------------------------------------------------------
      1          1           0       -4.178798   -1.075237    0.146113
      2          6           0       -3.119197   -1.311630    0.259313
      3          1           0       -2.857591   -2.147429   -0.397787
      4          1           0       -2.949395   -1.627229    1.295913
      5          6           0       -2.305505   -0.052425   -0.025287
      6          8           0       -2.766612    1.064272    0.175813
      7          7           0       -1.059003   -0.310117   -0.543387
      8          1           0       -0.758697   -1.280115   -0.485587
      9          6           0        0.105691    0.571190   -0.565487
     10          1           0        0.296489    0.890792   -1.602087
     11          6           0       -0.016517    1.831990    0.310413
     12          1           0       -0.092315    1.567989    1.369913
     13          1           0        0.860679    2.475095    0.176913
     14          1           0       -0.908721    2.394684    0.042313
     15          6           0        1.313297   -0.304202   -0.131087
     16          8           0        1.182305   -1.502203    0.109713
     17          7           0        2.511993    0.333106   -0.084887
     18          1           0        2.541786    1.323006   -0.278987
     19          6           0        3.750097   -0.337986    0.276013
     20          1           0        3.525704   -1.397687    0.399613
     21          1           0        4.501696   -0.217181   -0.512087
     22          1           0        4.155495    0.054217    1.216213
 ---------------------------------------------------------------------

 SCF Done:  E(RHF) =  -492.917323780     A.U. after   14 cycles
 E2 =    -0.1601789352D+01 EUMP2 =    -0.49451911313196D+03

 The electronic state is 1-A.
 Alpha  occ. eigenvalues --  -20.54627 -20.52398 -15.60811 -15.58475 -11.37362
 Alpha  occ. eigenvalues --  -11.35802 -11.30171 -11.27812 -11.23823 -11.23677
 Alpha  occ. eigenvalues --   -1.40148  -1.37594  -1.24687  -1.23134  -1.05652
 Alpha  occ. eigenvalues --   -0.98675  -0.96123  -0.89151  -0.80798  -0.75975
 Alpha  occ. eigenvalues --   -0.73254  -0.68179  -0.66390  -0.64931  -0.62926
 Alpha  occ. eigenvalues --   -0.61984  -0.59636  -0.58600  -0.56718  -0.55764
 Alpha  occ. eigenvalues --   -0.55435  -0.54669  -0.52608  -0.52165  -0.49993
 Alpha  occ. eigenvalues --   -0.43954  -0.41440  -0.40857  -0.38825
 Alpha virt. eigenvalues --    0.02613   0.04090   0.04269   0.04418   0.05785
 Alpha virt. eigenvalues --    0.06136   0.06491   0.06617   0.07391   0.08000
 Alpha virt. eigenvalues --    0.09550   0.09969   0.11129   0.12055   0.12620

 Mulliken atomic charges:
              1
     1  H   -0.031288
     2  C    0.340700
     3  H   -0.049468
     4  H    0.051750
     5  C    0.658688
     6  O   -0.829142
     7  N   -0.477828
     8  H   -0.002189
     9  C   -0.146556
    10  H   -0.064975
    11  C    0.695255
    12  H   -0.013435
    13  H   -0.169927
    14  H    0.048802
    15  C    1.126102
    16  O   -0.850425
    17  N   -0.524283
    18  H   -0.114300
    19  C    0.702576
    20  H   -0.149964
    21  H   -0.108193
    22  H   -0.091898
 Sum of Mulliken atomic charges =   0.00000

 Dipole moment (field-independent basis, Debye):
    X=              3.8112    Y=              0.4295    Z=             -0.6241  Tot=              3.8858
 Quadrupole moment (field-independent basis, Debye-Ang):
   XX=            -58.4846   YY=            -63.9781   ZZ=            -61.0297
   XY=             14.0904   XZ=             -0.0291   YZ=             -0.8605

 Normal termination of Gaussian 09 at Mon Feb 13 01:03:41 2017.
