 Gaussian 09, Revision A.02,
 Gaussian 09:  EM64L-G09RevA.02 11-Jun-2009

 -------------------
 #SP MP2/aug-cc-pVDZ
 -------------------

 -------------------------------
 Single Point calculation at MP2
 -------------------------------
 Symbolic Z-matrix:
 Charge =  0 Multiplicity = 1

                         Standard orientation:
 ---------------------------------------------------------------------
 Center     Atomic      Atomic             Coordinates (Angstroms)
 Number     Number       Type             X           Y           Z
 ---------------------------------------------------------------------
      1          1           0        3.736417   -1.634984   -0.673182
      2          6           0        3.026516   -1.503687    0.145518
      3          1           0        3.600416   -1.324684    1.063018
      4          1           0        2.449120   -2.425289    0.275918
      5          6           0        2.160211   -0.282490   -0.156782
      6          8           0        2.586908    0.657112   -0.804682
      7          7           0        0.874012   -0.378595    0.352418
      8          1           0        0.780915   -1.136396    1.018918
      9          6           0       -0.094893    0.710801    0.607318
     10          1           0       -0.206393    0.788500    1.699718
     11          6           0        0.309502    2.089203    0.081418
     12          1           0        0.445702    2.085503   -1.000382
     13          1           0       -0.497201    2.781499    0.330718
     14          1           0        1.240501    2.427006    0.539118
     15          6           0       -1.513191    0.340795    0.096918
     16          8           0       -2.344795    1.205392   -0.141482
     17          7           0       -1.821986   -0.995406    0.115118
     18          1           0       -1.044583   -1.627103   -0.025082
     19          6           0       -3.123784   -1.445411   -0.360282
     20          1           0       -3.888887   -0.780814    0.043818
     21          1           0       -3.200784   -1.426511   -1.455382
     22          1           0       -3.302480   -2.464012   -0.005282
 ---------------------------------------------------------------------

 SCF Done:  E(RHF) =  -492.910422669     A.U. after   14 cycles
 E2 =    -0.1601688602D+01 EUMP2 =    -0.49451211127080D+03

 The electronic state is 1-A.
 Alpha  occ. eigenvalues --  -20.54046 -20.53718 -15.60997 -15.59809 -11.37523
 Alpha  occ. eigenvalues --  -11.36152 -11.30181 -11.27084 -11.25687 -11.21875
 Alpha  occ. eigenvalues --   -1.39531  -1.38953  -1.25344  -1.22749  -1.05676
 Alpha  occ. eigenvalues --   -0.99483  -0.96029  -0.87855  -0.80227  -0.76412
 Alpha  occ. eigenvalues --   -0.72638  -0.70247  -0.66905  -0.64126  -0.62702
 Alpha  occ. eigenvalues --   -0.61878  -0.60700  -0.59379  -0.57171  -0.55241
 Alpha  occ. eigenvalues --   -0.53855  -0.53426  -0.52261  -0.51844  -0.50574
 Alpha  occ. eigenvalues --   -0.45050  -0.42772  -0.40128  -0.39529
 Alpha virt. eigenvalues --    0.02082   0.03600   0.03991   0.04801   0.05528
 Alpha virt. eigenvalues --    0.06002   0.06358   0.06622   0.07351   0.08242
 Alpha virt. eigenvalues --    0.08354   0.09033   0.10903   0.12413   0.12700

 Mulliken atomic charges:
              1
     1  H   -0.016608
     2  C    0.363574
     3  H    0.050973
     4  H   -0.085811
     5  C    0.589090
     6  O   -0.775287
     7  N   -0.431819
     8  H   -0.073159
     9  C   -0.057619
    10  H   -0.044529
    11  C    0.719715
    12  H    0.013483
    13  H   -0.094850
    14  H    0.011356
    15  C    0.761643
    16  O   -0.803034
    17  N   -0.458910
    18  H   -0.063739
    19  C    0.752858
    20  H   -0.116807
    21  H   -0.059149
    22  H   -0.181371
 Sum of Mulliken atomic charges =   0.00000

 Dipole moment (field-independent basis, Debye):
    X=              0.7026    Y=             -5.3210    Z=              2.6061  Tot=              5.9664
 Quadrupole moment (field-independent basis, Debye-Ang):
   XX=            -69.3084   YY=            -59.2316   ZZ=            -60.9494
   XY=              0.7940   XZ=              5.4329   YZ=              2.2522

 Normal termination of Gaussian 09 at Sun Feb 12 19:05:08 2017.
