 Gaussian 09, Revision A.02,
 Gaussian 09:  EM64L-G09RevA.02 11-Jun-2009

 -------------------
 #SP MP2/aug-cc-pVDZ
 -------------------

 -------------------------------
 Single Point calculation at MP2
 -------------------------------
 Symbolic Z-matrix:
 Charge =  0 Multiplicity = 1

                         Standard orientation:
 ---------------------------------------------------------------------
 Center     Atomic      Atomic             Coordinates (Angstroms)
 Number     Number       Type             X           Y           Z
 ---------------------------------------------------------------------
      1          1           0       -3.706032   -1.859259    0.137501
      2          6           0       -2.666331   -1.751169    0.453701
      3          1           0       -2.083539   -2.598275    0.076401
      4          1           0       -2.645431   -1.779269    1.549601
      5          6           0       -2.154418   -0.392574   -0.020099
      6          8           0       -2.884308    0.586533   -0.050299
      7          7           0       -0.834018   -0.402987   -0.410799
      8          1           0       -0.346426   -1.272892   -0.241299
      9          6           0        0.068393    0.753704   -0.603699
     10          1           0        0.252994    0.865003   -1.684999
     11          6           0       -0.443094    2.086309   -0.060599
     12          1           0       -0.620394    2.025911    1.015101
     13          1           0        0.327913    2.843602   -0.230899
     14          1           0       -1.368691    2.379018   -0.552499
     15          6           0        1.415890    0.391691    0.070201
     16          8           0        1.873796    0.998487    1.024401
     17          7           0        2.018879   -0.729014   -0.455399
     18          1           0        1.746076   -1.009912   -1.388899
     19          6           0        3.324275   -1.170727    0.017301
     20          1           0        3.381676   -0.977228    1.089201
     21          1           0        3.436964   -2.242728   -0.166699
     22          1           0        4.146680   -0.633535   -0.472799
 ---------------------------------------------------------------------

 SCF Done:  E(RHF) =  -492.910880822     A.U. after   14 cycles
 E2 =    -0.1602215265D+01 EUMP2 =    -0.49451309608641D+03

 The electronic state is 1-A.
 Alpha  occ. eigenvalues --  -20.54691 -20.53062 -15.60799 -15.60242 -11.37022
 Alpha  occ. eigenvalues --  -11.36671 -11.30120 -11.27867 -11.24882 -11.21719
 Alpha  occ. eigenvalues --   -1.40009  -1.38424  -1.25289  -1.23070  -1.05528
 Alpha  occ. eigenvalues --   -0.98913  -0.96747  -0.87847  -0.80032  -0.77457
 Alpha  occ. eigenvalues --   -0.73234  -0.68363  -0.66835  -0.65324  -0.63042
 Alpha  occ. eigenvalues --   -0.61992  -0.60353  -0.59018  -0.56691  -0.55960
 Alpha  occ. eigenvalues --   -0.53922  -0.53516  -0.52774  -0.51447  -0.50434
 Alpha  occ. eigenvalues --   -0.44888  -0.42065  -0.40547  -0.39437
 Alpha virt. eigenvalues --    0.02118   0.03654   0.04010   0.04632   0.05538
 Alpha virt. eigenvalues --    0.06005   0.06498   0.06719   0.07362   0.08058
 Alpha virt. eigenvalues --    0.08997   0.09201   0.10583   0.12333   0.12771

 Mulliken atomic charges:
              1
     1  H   -0.010363
     2  C    0.336659
     3  H   -0.127831
     4  H    0.053884
     5  C    0.597539
     6  O   -0.816013
     7  N   -0.404362
     8  H   -0.004627
     9  C   -0.064794
    10  H   -0.166774
    11  C    0.710791
    12  H    0.012194
    13  H   -0.099066
    14  H    0.082419
    15  C    0.877773
    16  O   -0.774466
    17  N   -0.490044
    18  H   -0.105738
    19  C    0.752404
    20  H   -0.115100
    21  H   -0.167753
    22  H   -0.076731
 Sum of Mulliken atomic charges =   0.00000

 Dipole moment (field-independent basis, Debye):
    X=              2.4999    Y=             -4.6355    Z=             -2.5535  Tot=              5.8530
 Quadrupole moment (field-independent basis, Debye-Ang):
   XX=            -68.7715   YY=            -58.6368   ZZ=            -61.1010
   XY=              1.1301   XZ=             -6.9151   YZ=             -2.5111

 Normal termination of Gaussian 09 at Sun Feb 12 18:46:14 2017.
