 Gaussian 09, Revision A.02,
 Gaussian 09:  EM64L-G09RevA.02 11-Jun-2009

 ----------------------------------------------------------------------
 # b3lyp/6-31G* Opt=(ModRedundant, maxcycles=1000, calcfc) geom=nocrowd
 ----------------------------------------------------------------------

 ------------------
 Phi Psi fixed scan
 ------------------
 Symbolic Z-matrix:
 Charge =  0 Multiplicity = 1

 SCF Done:  E(RB3LYP) =  -495.846919661     A.U. after   14 cycles

  Exact polarizability:   0.000   0.000   0.000   0.000   0.000   0.000
 Approx polarizability: 116.641  -0.175 112.926   0.119 -24.886 104.305

 SCF Done:  E(RB3LYP) =  -495.849522114     A.U. after   12 cycles
 SCF Done:  E(RB3LYP) =  -495.852006754     A.U. after   12 cycles
 SCF Done:  E(RB3LYP) =  -495.852101835     A.U. after   12 cycles
 SCF Done:  E(RB3LYP) =  -495.852302639     A.U. after   12 cycles
 SCF Done:  E(RB3LYP) =  -495.852390767     A.U. after   12 cycles
 SCF Done:  E(RB3LYP) =  -495.852442005     A.U. after   11 cycles
 SCF Done:  E(RB3LYP) =  -495.852502800     A.U. after   12 cycles
 SCF Done:  E(RB3LYP) =  -495.852520407     A.U. after   11 cycles
 SCF Done:  E(RB3LYP) =  -495.852525651     A.U. after   10 cycles
 SCF Done:  E(RB3LYP) =  -495.852526877     A.U. after    9 cycles
 SCF Done:  E(RB3LYP) =  -495.852527532     A.U. after    7 cycles
 SCF Done:  E(RB3LYP) =  -495.852527650     A.U. after    7 cycles
 SCF Done:  E(RB3LYP) =  -495.852527679     A.U. after    6 cycles
 SCF Done:  E(RB3LYP) =  -495.852527696     A.U. after    6 cycles
 Optimization completed.
    -- Stationary point found.

                         Standard orientation:
 ---------------------------------------------------------------------
 Center     Atomic      Atomic             Coordinates (Angstroms)
 Number     Number       Type             X           Y           Z
 ---------------------------------------------------------------------
      1          1           0       -4.189941   -0.692318    0.498829
      2          6           0       -3.327124   -1.171769    0.026139
      3          1           0       -3.674666   -1.614156   -0.912690
      4          1           0       -2.958599   -1.967338    0.680970
      5          6           0       -2.286201   -0.107873   -0.289659
      6          8           0       -2.534821    0.854160   -1.010956
      7          7           0       -1.064052   -0.293446    0.285031
      8          1           0       -0.846008   -1.114286    0.836623
      9          6           0        0.050974    0.599259    0.031292
     10          1           0       -0.064906    0.984473   -0.988200
     11          6           0        0.078071    1.789843    1.008766
     12          1           0        0.181378    1.434275    2.039032
     13          1           0        0.913732    2.463889    0.787290
     14          1           0       -0.856334    2.349785    0.915299
     15          6           0        1.333235   -0.235579    0.156149
     16          8           0        1.395603   -1.191032    0.926572
     17          7           0        2.372062    0.178457   -0.617824
     18          1           0        2.219495    0.949998   -1.251710
     19          6           0        3.683033   -0.447930   -0.583407
     20          1           0        3.646076   -1.239650    0.165702
     21          1           0        3.937023   -0.886011   -1.555555
     22          1           0        4.458498    0.275528   -0.306641
 ---------------------------------------------------------------------

 The electronic state is 1-A.
 Alpha  occ. eigenvalues --  -19.12261 -19.09901 -14.37486 -14.35113 -10.29461
 Alpha  occ. eigenvalues --  -10.27943 -10.23566 -10.22660 -10.18559 -10.18491
 Alpha  occ. eigenvalues --   -1.04276  -1.01906  -0.93164  -0.91514  -0.77919
 Alpha  occ. eigenvalues --   -0.72710  -0.71314  -0.64585  -0.59711  -0.57708
 Alpha  occ. eigenvalues --   -0.53621  -0.48205  -0.46934  -0.46316  -0.45422
 Alpha  occ. eigenvalues --   -0.44352  -0.42816  -0.41614  -0.40548  -0.39976
 Alpha  occ. eigenvalues --   -0.38874  -0.37953  -0.36945  -0.36605  -0.34003
 Alpha  occ. eigenvalues --   -0.26619  -0.26446  -0.24357  -0.23911
 Alpha virt. eigenvalues --    0.01733   0.03956   0.06567   0.09554   0.11634
 Alpha virt. eigenvalues --    0.13138   0.13505   0.15173   0.15675   0.15964
 Alpha virt. eigenvalues --    0.16726   0.17383   0.18155   0.18576   0.19107

 Mulliken atomic charges:
              1
     1  H    0.182680
     2  C   -0.532934
     3  H    0.182342
     4  H    0.147753
     5  C    0.595984
     6  O   -0.523939
     7  N   -0.600515
     8  H    0.343461
     9  C   -0.031786
    10  H    0.165623
    11  C   -0.440270
    12  H    0.160973
    13  H    0.138798
    14  H    0.182331
    15  C    0.602714
    16  O   -0.532262
    17  N   -0.590644
    18  H    0.331605
    19  C   -0.313479
    20  H    0.207041
    21  H    0.163193
    22  H    0.161332
 Sum of Mulliken atomic charges =   0.00000

 Dipole moment (field-independent basis, Debye):
    X=              2.7657    Y=              0.0822    Z=             -0.3364  Tot=              2.7873
 Quadrupole moment (field-independent basis, Debye-Ang):
   XX=            -55.0585   YY=            -60.8340   ZZ=            -61.3786
   XY=              9.8115   XZ=             -9.9742   YZ=              2.6277

 Normal termination of Gaussian 09 at Fri Feb 10 21:42:25 2017.
