 Gaussian 09, Revision A.02,
 Gaussian 09:  EM64L-G09RevA.02 11-Jun-2009

 ----------------------------------------------------------------------
 # b3lyp/6-31G* Opt=(ModRedundant, maxcycles=1000, calcfc) geom=nocrowd
 ----------------------------------------------------------------------

 ------------------
 Phi Psi fixed scan
 ------------------
 Symbolic Z-matrix:
 Charge =  0 Multiplicity = 1

 SCF Done:  E(RB3LYP) =  -495.840179432     A.U. after   15 cycles

  Exact polarizability:   0.000   0.000   0.000   0.000   0.000   0.000
 Approx polarizability: 122.062   4.123 120.431   5.289 -14.518  92.858

 SCF Done:  E(RB3LYP) =  -495.844004256     A.U. after   12 cycles
 SCF Done:  E(RB3LYP) =  -495.848373671     A.U. after   12 cycles
 SCF Done:  E(RB3LYP) =  -495.850001167     A.U. after   13 cycles
 SCF Done:  E(RB3LYP) =  -495.850577904     A.U. after   13 cycles
 SCF Done:  E(RB3LYP) =  -495.850738430     A.U. after   12 cycles
 SCF Done:  E(RB3LYP) =  -495.851143327     A.U. after   12 cycles
 SCF Done:  E(RB3LYP) =  -495.851074359     A.U. after   12 cycles
 SCF Done:  E(RB3LYP) =  -495.851171873     A.U. after   11 cycles
 SCF Done:  E(RB3LYP) =  -495.851193254     A.U. after   11 cycles
 SCF Done:  E(RB3LYP) =  -495.851199095     A.U. after   10 cycles
 SCF Done:  E(RB3LYP) =  -495.851205006     A.U. after   10 cycles
 SCF Done:  E(RB3LYP) =  -495.851220976     A.U. after   11 cycles
 SCF Done:  E(RB3LYP) =  -495.851227685     A.U. after   11 cycles
 SCF Done:  E(RB3LYP) =  -495.851229326     A.U. after   10 cycles
 SCF Done:  E(RB3LYP) =  -495.851230370     A.U. after   10 cycles
 SCF Done:  E(RB3LYP) =  -495.851230426     A.U. after    7 cycles
 Optimization completed.
    -- Stationary point found.

                         Standard orientation:
 ---------------------------------------------------------------------
 Center     Atomic      Atomic             Coordinates (Angstroms)
 Number     Number       Type             X           Y           Z
 ---------------------------------------------------------------------
      1          1           0       -4.217535   -0.655507    0.670053
      2          6           0       -3.343100   -1.133874    0.219653
      3          1           0       -3.677077   -1.623192   -0.701548
      4          1           0       -2.956231   -1.893347    0.905654
      5          6           0       -2.324103   -0.061319   -0.134422
      6          8           0       -2.623946    0.934080   -0.786264
      7          7           0       -1.058195   -0.271835    0.342741
      8          1           0       -0.780777   -1.211276    0.610700
      9          6           0        0.047652    0.545183   -0.132097
     10          1           0       -0.133212    0.792364   -1.188973
     11          6           0        0.137552    1.864537    0.653298
     12          1           0        0.378241    1.682504    1.705593
     13          1           0        0.884774    2.549124    0.233120
     14          1           0       -0.831483    2.365056    0.591073
     15          6           0        1.310929   -0.337564   -0.060897
     16          8           0        1.227364   -1.555060    0.090700
     17          7           0        2.498321    0.316373   -0.156595
     18          1           0        2.489642    1.314813   -0.301993
     19          6           0        3.777342   -0.374100   -0.170876
     20          1           0        3.590557   -1.418625    0.079933
     21          1           0        4.249707   -0.323741   -1.159527
     22          1           0        4.457529    0.060717    0.569452
 ---------------------------------------------------------------------

 The electronic state is 1-A.
 Alpha  occ. eigenvalues --  -19.12454 -19.10214 -14.37431 -14.34746 -10.29680
 Alpha  occ. eigenvalues --  -10.27897 -10.23666 -10.22687 -10.18754 -10.18481
 Alpha  occ. eigenvalues --   -1.04492  -1.02072  -0.93222  -0.91369  -0.77924
 Alpha  occ. eigenvalues --   -0.72735  -0.71053  -0.64991  -0.59705  -0.56918
 Alpha  occ. eigenvalues --   -0.53657  -0.48466  -0.47516  -0.45913  -0.45429
 Alpha  occ. eigenvalues --   -0.44139  -0.42724  -0.41622  -0.40246  -0.40013
 Alpha  occ. eigenvalues --   -0.38993  -0.38113  -0.37522  -0.36783  -0.33751
 Alpha  occ. eigenvalues --   -0.26767  -0.26349  -0.24909  -0.23994
 Alpha virt. eigenvalues --    0.01844   0.03326   0.06367   0.10219   0.11318
 Alpha virt. eigenvalues --    0.13221   0.14601   0.14803   0.15222   0.15687
 Alpha virt. eigenvalues --    0.16072   0.17803   0.18145   0.19322   0.20036

 Mulliken atomic charges:
              1
     1  H    0.183031
     2  C   -0.534567
     3  H    0.181935
     4  H    0.151368
     5  C    0.584955
     6  O   -0.516621
     7  N   -0.596304
     8  H    0.347997
     9  C   -0.035166
    10  H    0.183743
    11  C   -0.454433
    12  H    0.157456
    13  H    0.127153
    14  H    0.194783
    15  C    0.597482
    16  O   -0.530880
    17  N   -0.592768
    18  H    0.332579
    19  C   -0.312645
    20  H    0.207088
    21  H    0.162835
    22  H    0.160981
 Sum of Mulliken atomic charges =   0.00000

 Dipole moment (field-independent basis, Debye):
    X=              3.2643    Y=              0.5694    Z=              0.7878  Tot=              3.4059
 Quadrupole moment (field-independent basis, Debye-Ang):
   XX=            -53.8171   YY=            -62.0255   ZZ=            -60.8824
   XY=             11.2914   XZ=             -5.1923   YZ=              1.0746

 Normal termination of Gaussian 09 at Fri Feb 10 21:47:55 2017.
