 Gaussian 09, Revision A.02,
 Gaussian 09:  EM64L-G09RevA.02 11-Jun-2009

 ----------------------------------------------------------------------
 # b3lyp/6-31G* Opt=(ModRedundant, maxcycles=1000, calcfc) geom=nocrowd
 ----------------------------------------------------------------------

 ------------------
 Phi Psi fixed scan
 ------------------
 Symbolic Z-matrix:
 Charge =  0 Multiplicity = 1

 SCF Done:  E(RB3LYP) =  -495.846454214     A.U. after   14 cycles

  Exact polarizability:   0.000   0.000   0.000   0.000   0.000   0.000
 Approx polarizability: 115.412  -2.611  98.902   1.269 -21.605 120.410

 SCF Done:  E(RB3LYP) =  -495.848965979     A.U. after   11 cycles
 SCF Done:  E(RB3LYP) =  -495.851350092     A.U. after   12 cycles
 SCF Done:  E(RB3LYP) =  -495.851446523     A.U. after   12 cycles
 SCF Done:  E(RB3LYP) =  -495.851615740     A.U. after   12 cycles
 SCF Done:  E(RB3LYP) =  -495.825338102     A.U. after   15 cycles
 SCF Done:  E(RB3LYP) =  -495.851658362     A.U. after   14 cycles
 SCF Done:  E(RB3LYP) =  -495.851723550     A.U. after   11 cycles
 SCF Done:  E(RB3LYP) =  -495.851775191     A.U. after   11 cycles
 SCF Done:  E(RB3LYP) =  -495.851802244     A.U. after   11 cycles
 SCF Done:  E(RB3LYP) =  -495.851808025     A.U. after   11 cycles
 SCF Done:  E(RB3LYP) =  -495.851808981     A.U. after    9 cycles
 SCF Done:  E(RB3LYP) =  -495.851809107     A.U. after    9 cycles
 SCF Done:  E(RB3LYP) =  -495.851809120     A.U. after    6 cycles
 SCF Done:  E(RB3LYP) =  -495.851809126     A.U. after    6 cycles
 Optimization completed.
    -- Stationary point found.

                         Standard orientation:
 ---------------------------------------------------------------------
 Center     Atomic      Atomic             Coordinates (Angstroms)
 Number     Number       Type             X           Y           Z
 ---------------------------------------------------------------------
      1          1           0       -3.656648   -1.779321   -0.651787
      2          6           0       -3.285806   -1.201823    0.200228
      3          1           0       -2.900212   -1.889961    0.958767
      4          1           0       -4.136857   -0.653892    0.617433
      5          6           0       -2.254171   -0.201166   -0.299572
      6          8           0       -2.500985    0.595089   -1.200424
      7          7           0       -1.040155   -0.251854    0.320553
      8          1           0       -0.853472   -0.897668    1.077020
      9          6           0        0.048782    0.646273   -0.028262
     10          1           0       -0.065544    0.882118   -1.091276
     11          6           0        0.011546    1.952599    0.783540
     12          1           0        0.112357    1.735988    1.851619
     13          1           0        0.827422    2.622051    0.486347
     14          1           0       -0.939622    2.462370    0.606500
     15          6           0        1.353089   -0.114688    0.240975
     16          8           0        1.499238   -0.754871    1.279768
     17          7           0        2.300480   -0.022108   -0.730285
     18          1           0        2.080298    0.498810   -1.567033
     19          6           0        3.610008   -0.642259   -0.617458
     20          1           0        3.645615   -1.154171    0.344954
     21          1           0        3.769934   -1.372441   -1.419035
     22          1           0        4.407748    0.108485   -0.656844
 ---------------------------------------------------------------------

 The electronic state is 1-A.
 Alpha  occ. eigenvalues --  -19.11992 -19.10046 -14.37450 -14.35388 -10.29283
 Alpha  occ. eigenvalues --  -10.28111 -10.23515 -10.22580 -10.18707 -10.18306
 Alpha  occ. eigenvalues --   -1.04060  -1.02049  -0.93043  -0.91655  -0.77874
 Alpha  occ. eigenvalues --   -0.72717  -0.71403  -0.64477  -0.59582  -0.57972
 Alpha  occ. eigenvalues --   -0.53584  -0.48170  -0.46844  -0.46313  -0.45497
 Alpha  occ. eigenvalues --   -0.44430  -0.42622  -0.41623  -0.40607  -0.39864
 Alpha  occ. eigenvalues --   -0.39011  -0.37819  -0.36761  -0.36552  -0.34226
 Alpha  occ. eigenvalues --   -0.26566  -0.26298  -0.24334  -0.24053
 Alpha virt. eigenvalues --    0.01721   0.03980   0.06691   0.09204   0.11714
 Alpha virt. eigenvalues --    0.13093   0.13330   0.15326   0.15827   0.16243
 Alpha virt. eigenvalues --    0.16664   0.17256   0.18141   0.18423   0.19413

 Mulliken atomic charges:
              1
     1  H    0.183403
     2  C   -0.533272
     3  H    0.147227
     4  H    0.182963
     5  C    0.597297
     6  O   -0.522430
     7  N   -0.599493
     8  H    0.340367
     9  C   -0.027291
    10  H    0.163124
    11  C   -0.443216
    12  H    0.164048
    13  H    0.142850
    14  H    0.177105
    15  C    0.602709
    16  O   -0.534982
    17  N   -0.589936
    18  H    0.332134
    19  C   -0.314110
    20  H    0.207082
    21  H    0.162897
    22  H    0.161524
 Sum of Mulliken atomic charges =   0.00000

 Dipole moment (field-independent basis, Debye):
    X=              2.3726    Y=             -0.3316    Z=             -0.5500  Tot=              2.4580
 Quadrupole moment (field-independent basis, Debye-Ang):
   XX=            -55.9083   YY=            -59.0948   ZZ=            -62.6120
   XY=              6.6972   XZ=            -12.7223   YZ=              2.3049

 Normal termination of Gaussian 09 at Fri Feb 10 21:48:31 2017.
