 Gaussian 09, Revision A.02,
 Gaussian 09:  EM64L-G09RevA.02 11-Jun-2009

 ----------------------------------------------------------------------
 # b3lyp/6-31G* Opt=(ModRedundant, maxcycles=1000, calcfc) geom=nocrowd
 ----------------------------------------------------------------------

 ------------------
 Phi Psi fixed scan
 ------------------
 Symbolic Z-matrix:
 Charge =  0 Multiplicity = 1

 SCF Done:  E(RB3LYP) =  -495.838322500     A.U. after   15 cycles

  Exact polarizability:   0.000   0.000   0.000   0.000   0.000   0.000
 Approx polarizability: 121.286   2.287 123.039   8.549 -13.232  92.837

 SCF Done:  E(RB3LYP) =  -495.841863712     A.U. after   12 cycles
 SCF Done:  E(RB3LYP) =  -495.846305430     A.U. after   12 cycles
 SCF Done:  E(RB3LYP) =  -495.848192958     A.U. after   16 cycles
 SCF Done:  E(RB3LYP) =  -495.848406184     A.U. after   12 cycles
 SCF Done:  E(RB3LYP) =  -495.783443341     A.U. after   16 cycles
 SCF Done:  E(RB3LYP) =  -495.848446974     A.U. after   15 cycles
 SCF Done:  E(RB3LYP) =  -495.848909560     A.U. after   12 cycles
 SCF Done:  E(RB3LYP) =  -495.848419317     A.U. after   12 cycles
 SCF Done:  E(RB3LYP) =  -495.849113140     A.U. after   12 cycles
 SCF Done:  E(RB3LYP) =  -495.849164876     A.U. after    9 cycles
 SCF Done:  E(RB3LYP) =  -495.849176442     A.U. after   10 cycles
 SCF Done:  E(RB3LYP) =  -495.849185485     A.U. after   10 cycles
 SCF Done:  E(RB3LYP) =  -495.849197657     A.U. after   10 cycles
 SCF Done:  E(RB3LYP) =  -495.849213490     A.U. after   11 cycles
 SCF Done:  E(RB3LYP) =  -495.849216332     A.U. after   11 cycles
 SCF Done:  E(RB3LYP) =  -495.849222587     A.U. after   10 cycles
 SCF Done:  E(RB3LYP) =  -495.849222390     A.U. after    9 cycles
 SCF Done:  E(RB3LYP) =  -495.849222871     A.U. after    9 cycles
 SCF Done:  E(RB3LYP) =  -495.849222887     A.U. after    6 cycles
 Optimization completed.
    -- Stationary point found.

                         Standard orientation:
 ---------------------------------------------------------------------
 Center     Atomic      Atomic             Coordinates (Angstroms)
 Number     Number       Type             X           Y           Z
 ---------------------------------------------------------------------
      1          1           0        3.741397   -1.757519    0.132923
      2          6           0        3.115712   -1.209624   -0.575449
      3          1           0        2.608482   -1.918950   -1.237258
      4          1           0        3.777336   -0.579395   -1.181137
      5          6           0        2.158143   -0.320921    0.204025
      6          8           0        2.495670    0.274854    1.215103
      7          7           0        0.872299   -0.254132   -0.304185
      8          1           0        0.761964   -0.548350   -1.268662
      9          6           0       -0.047906    0.796402    0.142421
     10          1           0        0.203628    0.967899    1.194752
     11          6           0        0.135914    2.110889   -0.625139
     12          1           0       -0.024026    1.964004   -1.700386
     13          1           0       -0.590783    2.846839   -0.275132
     14          1           0        1.147970    2.495053   -0.467741
     15          6           0       -1.518918    0.339769    0.098792
     16          8           0       -2.430605    1.155936    0.160647
     17          7           0       -1.716058   -1.005225   -0.023402
     18          1           0       -0.902475   -1.595907    0.083675
     19          6           0       -3.039841   -1.597624    0.054545
     20          1           0       -3.766969   -0.809727   -0.146772
     21          1           0       -3.146140   -2.392289   -0.691309
     22          1           0       -3.243215   -2.015824    1.048984
 ---------------------------------------------------------------------

 The electronic state is 1-A.
 Alpha  occ. eigenvalues --  -19.12134 -19.10968 -14.37059 -14.36212 -10.29791
 Alpha  occ. eigenvalues --  -10.28485 -10.23465 -10.21923 -10.20153 -10.17955
 Alpha  occ. eigenvalues --   -1.04138  -1.02967  -0.93609  -0.91458  -0.78018
 Alpha  occ. eigenvalues --   -0.73331  -0.71296  -0.64180  -0.59228  -0.57986
 Alpha  occ. eigenvalues --   -0.53749  -0.48462  -0.48188  -0.45985  -0.45513
 Alpha  occ. eigenvalues --   -0.44255  -0.42397  -0.41929  -0.40706  -0.40432
 Alpha  occ. eigenvalues --   -0.39106  -0.38251  -0.36638  -0.36489  -0.34793
 Alpha  occ. eigenvalues --   -0.27621  -0.25890  -0.25549  -0.24207
 Alpha virt. eigenvalues --    0.01343   0.02749   0.06400   0.10066   0.12031
 Alpha virt. eigenvalues --    0.12686   0.13083   0.14275   0.15152   0.15711
 Alpha virt. eigenvalues --    0.16784   0.17499   0.17612   0.18151   0.19550

 Mulliken atomic charges:
              1
     1  H    0.192223
     2  C   -0.542575
     3  H    0.148677
     4  H    0.186698
     5  C    0.591991
     6  O   -0.490261
     7  N   -0.623429
     8  H    0.322304
     9  C   -0.053558
    10  H    0.208886
    11  C   -0.446680
    12  H    0.137524
    13  H    0.187454
    14  H    0.160588
    15  C    0.594616
    16  O   -0.522717
    17  N   -0.593036
    18  H    0.334018
    19  C   -0.308869
    20  H    0.202397
    21  H    0.153190
    22  H    0.160558
 Sum of Mulliken atomic charges =   0.00000

 Dipole moment (field-independent basis, Debye):
    X=              0.8305    Y=             -3.6953    Z=             -2.8648  Tot=              4.7490
 Quadrupole moment (field-independent basis, Debye-Ang):
   XX=            -66.1506   YY=            -57.4654   ZZ=            -60.7611
   XY=              4.0978   XZ=             -6.6428   YZ=             -0.6120

 Normal termination of Gaussian 09 at Fri Feb 10 21:54:47 2017.
