 Gaussian 09, Revision A.02,
 Gaussian 09:  EM64L-G09RevA.02 11-Jun-2009

 ----------------------------------------------------------------------
 # b3lyp/6-31G* Opt=(ModRedundant, maxcycles=1000, calcfc) geom=nocrowd
 ----------------------------------------------------------------------

 ------------------
 Phi Psi fixed scan
 ------------------
 Symbolic Z-matrix:
 Charge =  0 Multiplicity = 1

 SCF Done:  E(RB3LYP) =  -495.841861146     A.U. after   15 cycles

  Exact polarizability:   0.000   0.000   0.000   0.000   0.000   0.000
 Approx polarizability: 113.942  -1.575 102.477  12.846  -9.402 119.837

 SCF Done:  E(RB3LYP) =  -495.844620004     A.U. after   11 cycles
 SCF Done:  E(RB3LYP) =  -495.847585649     A.U. after   16 cycles
 SCF Done:  E(RB3LYP) =  -495.848228232     A.U. after   12 cycles
 SCF Done:  E(RB3LYP) =  -495.791345485     A.U. after   16 cycles
 SCF Done:  E(RB3LYP) =  -495.807280100     A.U. after   12 cycles
 SCF Done:  E(RB3LYP) =  -495.820049853     A.U. after   12 cycles
 SCF Done:  E(RB3LYP) =  -495.830050145     A.U. after   12 cycles
 SCF Done:  E(RB3LYP) =  -495.837733052     A.U. after   12 cycles
 SCF Done:  E(RB3LYP) =  -495.843641398     A.U. after   12 cycles
 SCF Done:  E(RB3LYP) =  -495.848439879     A.U. after   13 cycles
 SCF Done:  E(RB3LYP) =  -495.848502982     A.U. after   11 cycles
 SCF Done:  E(RB3LYP) =  -495.848526579     A.U. after    9 cycles
 SCF Done:  E(RB3LYP) =  -495.848558496     A.U. after   10 cycles
 SCF Done:  E(RB3LYP) =  -495.848591510     A.U. after   11 cycles
 SCF Done:  E(RB3LYP) =  -495.848595859     A.U. after   10 cycles
 SCF Done:  E(RB3LYP) =  -495.848598327     A.U. after   10 cycles
 SCF Done:  E(RB3LYP) =  -495.848601104     A.U. after   10 cycles
 SCF Done:  E(RB3LYP) =  -495.848601541     A.U. after    8 cycles
 SCF Done:  E(RB3LYP) =  -495.848601582     A.U. after    7 cycles
 Optimization completed.
    -- Stationary point found.

                         Standard orientation:
 ---------------------------------------------------------------------
 Center     Atomic      Atomic             Coordinates (Angstroms)
 Number     Number       Type             X           Y           Z
 ---------------------------------------------------------------------
      1          1           0       -3.586359   -1.904642    0.476928
      2          6           0       -3.132103   -1.009603    0.909853
      3          1           0       -2.676417   -1.265035    1.871631
      4          1           0       -3.935647   -0.285163    1.082917
      5          6           0       -2.149191   -0.426539   -0.094708
      6          8           0       -2.424934   -0.304691   -1.281887
      7          7           0       -0.930323   -0.062652    0.420311
      8          1           0       -0.813880   -0.035560    1.425488
      9          6           0        0.040163    0.699282   -0.368251
     10          1           0       -0.113616    0.381825   -1.403701
     11          6           0       -0.168703    2.211206   -0.260108
     12          1           0        0.001842    2.546369    0.766746
     13          1           0        0.536346    2.743987   -0.907847
     14          1           0       -1.186436    2.467000   -0.568551
     15          6           0        1.440377    0.293217    0.126845
     16          8           0        1.976044    0.860596    1.073442
     17          7           0        1.991461   -0.766822   -0.528615
     18          1           0        1.452971   -1.206426   -1.261605
     19          6           0        3.257754   -1.362316   -0.140218
     20          1           0        3.693002   -0.727498    0.632686
     21          1           0        3.118762   -2.372628    0.264254
     22          1           0        3.942802   -1.414623   -0.993731
 ---------------------------------------------------------------------

 The electronic state is 1-A.
 Alpha  occ. eigenvalues --  -19.11548 -19.11031 -14.36778 -14.36329 -10.28929
 Alpha  occ. eigenvalues --  -10.28798 -10.23391 -10.22184 -10.19425 -10.17690
 Alpha  occ. eigenvalues --   -1.03636  -1.02883  -0.92769  -0.91993  -0.77823
 Alpha  occ. eigenvalues --   -0.72915  -0.71400  -0.64146  -0.58849  -0.58570
 Alpha  occ. eigenvalues --   -0.53450  -0.48144  -0.47392  -0.46217  -0.45258
 Alpha  occ. eigenvalues --   -0.44782  -0.42106  -0.41642  -0.40639  -0.39780
 Alpha  occ. eigenvalues --   -0.39405  -0.37460  -0.36993  -0.35992  -0.35028
 Alpha  occ. eigenvalues --   -0.26792  -0.25578  -0.25037  -0.24471
 Alpha virt. eigenvalues --    0.01717   0.03123   0.07438   0.07905   0.11956
 Alpha virt. eigenvalues --    0.12775   0.12864   0.15206   0.15843   0.16350
 Alpha virt. eigenvalues --    0.16626   0.17202   0.18070   0.19015   0.19744

 Mulliken atomic charges:
              1
     1  H    0.187030
     2  C   -0.537159
     3  H    0.148500
     4  H    0.185177
     5  C    0.594216
     6  O   -0.510501
     7  N   -0.598967
     8  H    0.332224
     9  C   -0.042161
    10  H    0.170317
    11  C   -0.442366
    12  H    0.166381
    13  H    0.152729
    14  H    0.161055
    15  C    0.595430
    16  O   -0.521971
    17  N   -0.584823
    18  H    0.333991
    19  C   -0.312925
    20  H    0.204582
    21  H    0.159320
    22  H    0.159921
 Sum of Mulliken atomic charges =   0.00000

 Dipole moment (field-independent basis, Debye):
    X=              0.5965    Y=             -2.0256    Z=              0.6593  Tot=              2.2121
 Quadrupole moment (field-independent basis, Debye-Ang):
   XX=            -61.1835   YY=            -57.6920   ZZ=            -61.9108
   XY=             -5.5419   XZ=            -12.8656   YZ=             -1.7961

 Normal termination of Gaussian 09 at Fri Feb 10 22:14:29 2017.
