 Gaussian 09, Revision A.02,
 Gaussian 09:  EM64L-G09RevA.02 11-Jun-2009

 ----------------------------------------------------------------------
 # b3lyp/6-31G* Opt=(ModRedundant, maxcycles=1000, calcfc) geom=nocrowd
 ----------------------------------------------------------------------

 ------------------
 Phi Psi fixed scan
 ------------------
 Symbolic Z-matrix:
 Charge =  0 Multiplicity = 1

 SCF Done:  E(RB3LYP) =  -495.845167085     A.U. after   14 cycles

  Exact polarizability:   0.000   0.000   0.000   0.000   0.000   0.000
 Approx polarizability: 114.370  -2.872  89.104   5.355  -1.758 132.128

 SCF Done:  E(RB3LYP) =  -495.847709947     A.U. after   12 cycles
 SCF Done:  E(RB3LYP) =  -495.850221746     A.U. after   12 cycles
 SCF Done:  E(RB3LYP) =  -495.850348153     A.U. after   12 cycles
 SCF Done:  E(RB3LYP) =  -495.850601229     A.U. after   12 cycles
 SCF Done:  E(RB3LYP) =  -495.821337037     A.U. after   15 cycles
 SCF Done:  E(RB3LYP) =  -495.850641042     A.U. after   15 cycles
 SCF Done:  E(RB3LYP) =  -495.850707449     A.U. after   11 cycles
 SCF Done:  E(RB3LYP) =  -495.850739797     A.U. after   11 cycles
 SCF Done:  E(RB3LYP) =  -495.850757787     A.U. after   10 cycles
 SCF Done:  E(RB3LYP) =  -495.850774691     A.U. after   10 cycles
 SCF Done:  E(RB3LYP) =  -495.850772341     A.U. after   11 cycles
 SCF Done:  E(RB3LYP) =  -495.850780637     A.U. after   11 cycles
 SCF Done:  E(RB3LYP) =  -495.850784612     A.U. after   10 cycles
 SCF Done:  E(RB3LYP) =  -495.850784726     A.U. after    7 cycles
 SCF Done:  E(RB3LYP) =  -495.850784685     A.U. after    7 cycles
 SCF Done:  E(RB3LYP) =  -495.850784569     A.U. after    7 cycles
 SCF Done:  E(RB3LYP) =  -495.850784503     A.U. after    6 cycles
 Optimization completed.
    -- Stationary point found.

                         Standard orientation:
 ---------------------------------------------------------------------
 Center     Atomic      Atomic             Coordinates (Angstroms)
 Number     Number       Type             X           Y           Z
 ---------------------------------------------------------------------
      1          1           0       -3.576571   -1.975854    0.011950
      2          6           0       -3.229742   -1.124318    0.604786
      3          1           0       -2.838598   -1.488799    1.559690
      4          1           0       -4.098246   -0.486066    0.797041
      5          6           0       -2.215455   -0.339399   -0.214168
      6          8           0       -2.467802    0.073337   -1.341388
      7          7           0       -1.005268   -0.138206    0.387431
      8          1           0       -0.848054   -0.415493    1.347666
      9          6           0        0.044811    0.664469   -0.227755
     10          1           0       -0.076795    0.548855   -1.308991
     11          6           0       -0.063097    2.151235    0.140357
     12          1           0        0.056378    2.280265    1.220195
     13          1           0        0.715183    2.735177   -0.365127
     14          1           0       -1.040175    2.534298   -0.167355
     15          6           0        1.378208    0.081868    0.259682
     16          8           0        1.628498    0.025628    1.461291
     17          7           0        2.212529   -0.381531   -0.709580
     18          1           0        1.912433   -0.317976   -1.671676
     19          6           0        3.509223   -0.969330   -0.418585
     20          1           0        3.634420   -0.959546    0.664879
     21          1           0        3.561457   -2.003562   -0.777773
     22          1           0        4.318479   -0.392009   -0.880580
 ---------------------------------------------------------------------

 The electronic state is 1-A.
 Alpha  occ. eigenvalues --  -19.11769 -19.10306 -14.37319 -14.35702 -10.29106
 Alpha  occ. eigenvalues --  -10.28348 -10.23461 -10.22466 -10.18913 -10.18077
 Alpha  occ. eigenvalues --   -1.03864  -1.02286  -0.92883  -0.91839  -0.77823
 Alpha  occ. eigenvalues --   -0.72747  -0.71448  -0.64373  -0.59372  -0.58213
 Alpha  occ. eigenvalues --   -0.53535  -0.48136  -0.46920  -0.46239  -0.45539
 Alpha  occ. eigenvalues --   -0.44531  -0.42375  -0.41618  -0.40680  -0.39739
 Alpha  occ. eigenvalues --   -0.39225  -0.37686  -0.36738  -0.36347  -0.34487
 Alpha  occ. eigenvalues --   -0.26542  -0.26114  -0.24444  -0.24235
 Alpha virt. eigenvalues --    0.01695   0.03861   0.06829   0.08786   0.11786
 Alpha virt. eigenvalues --    0.13042   0.13222   0.15347   0.15989   0.16467
 Alpha virt. eigenvalues --    0.16700   0.17060   0.18042   0.18570   0.19706

 Mulliken atomic charges:
              1
     1  H    0.184496
     2  C   -0.533747
     3  H    0.146909
     4  H    0.183782
     5  C    0.597436
     6  O   -0.519274
     7  N   -0.598950
     8  H    0.337633
     9  C   -0.026839
    10  H    0.162936
    11  C   -0.445559
    12  H    0.166713
    13  H    0.145851
    14  H    0.171447
    15  C    0.602187
    16  O   -0.535152
    17  N   -0.588686
    18  H    0.332667
    19  C   -0.314159
    20  H    0.206704
    21  H    0.162175
    22  H    0.161430
 Sum of Mulliken atomic charges =   0.00000

 Dipole moment (field-independent basis, Debye):
    X=              1.8688    Y=             -0.9850    Z=             -0.3815  Tot=              2.1467
 Quadrupole moment (field-independent basis, Debye-Ang):
   XX=            -57.2120   YY=            -57.5190   ZZ=            -63.5478
   XY=              0.4152   XZ=            -14.5556   YZ=              0.0961

 Normal termination of Gaussian 09 at Fri Feb 10 21:42:25 2017.
