 Gaussian 09, Revision A.02,
 Gaussian 09:  EM64L-G09RevA.02 11-Jun-2009

 ----------------------------------------------------------------------
 # b3lyp/6-31G* Opt=(ModRedundant, maxcycles=1000, calcfc) geom=nocrowd
 ----------------------------------------------------------------------

 ------------------
 Phi Psi fixed scan
 ------------------
 Symbolic Z-matrix:
 Charge =  0 Multiplicity = 1

 SCF Done:  E(RB3LYP) =  -495.831578048     A.U. after   15 cycles

  Exact polarizability:   0.000   0.000   0.000   0.000   0.000   0.000
 Approx polarizability: 118.707  -5.125 120.965  -1.568  21.565  95.692

 SCF Done:  E(RB3LYP) =  -495.835205330     A.U. after   12 cycles
 SCF Done:  E(RB3LYP) =  -495.839826849     A.U. after   12 cycles
 SCF Done:  E(RB3LYP) =  -495.836747115     A.U. after   13 cycles
 SCF Done:  E(RB3LYP) =  -495.839827339     A.U. after   13 cycles
 SCF Done:  E(RB3LYP) =  -495.840259711     A.U. after   11 cycles
 SCF Done:  E(RB3LYP) =  -495.840947972     A.U. after   15 cycles
 SCF Done:  E(RB3LYP) =  -495.841277660     A.U. after   12 cycles
 SCF Done:  E(RB3LYP) =  -495.841492712     A.U. after   12 cycles
 SCF Done:  E(RB3LYP) =  -495.841725071     A.U. after   12 cycles
 SCF Done:  E(RB3LYP) =  -495.842518933     A.U. after   11 cycles
 SCF Done:  E(RB3LYP) =  -495.842533528     A.U. after   10 cycles
 SCF Done:  E(RB3LYP) =  -495.842547570     A.U. after   10 cycles
 SCF Done:  E(RB3LYP) =  -495.842564960     A.U. after   11 cycles
 SCF Done:  E(RB3LYP) =  -495.842573518     A.U. after   11 cycles
 SCF Done:  E(RB3LYP) =  -495.842577846     A.U. after   10 cycles
 SCF Done:  E(RB3LYP) =  -495.842578508     A.U. after    8 cycles
 SCF Done:  E(RB3LYP) =  -495.842578763     A.U. after    7 cycles
 SCF Done:  E(RB3LYP) =  -495.842578807     A.U. after    6 cycles
 SCF Done:  E(RB3LYP) =  -495.842578814     A.U. after    6 cycles
 Optimization completed.
    -- Stationary point found.

                         Standard orientation:
 ---------------------------------------------------------------------
 Center     Atomic      Atomic             Coordinates (Angstroms)
 Number     Number       Type             X           Y           Z
 ---------------------------------------------------------------------
      1          1           0       -3.923951   -1.521262   -0.504555
      2          6           0       -3.172546   -1.314527    0.260520
      3          1           0       -2.656860   -2.243275    0.524878
      4          1           0       -3.696849   -0.941427    1.148512
      5          6           0       -2.232301   -0.236439   -0.258244
      6          8           0       -2.615829    0.680631   -0.965579
      7          7           0       -0.903911   -0.391515    0.115573
      8          1           0       -0.783661   -0.951735    0.954164
      9          6           0        0.018116    0.744306   -0.005152
     10          1           0       -0.313187    1.297721   -0.885597
     11          6           0       -0.029023    1.679442    1.214842
     12          1           0        0.259851    1.148502    2.130282
     13          1           0        0.663794    2.512997    1.069272
     14          1           0       -1.040279    2.078830    1.339338
     15          6           0        1.471656    0.328815   -0.277176
     16          8           0        2.253397    1.124562   -0.779924
     17          7           0        1.870587   -0.882651    0.231111
     18          1           0        1.154613   -1.593347    0.304945
     19          6           0        3.230307   -1.353560    0.000149
     20          1           0        3.914183   -0.517571    0.152874
     21          1           0        3.461458   -2.148893    0.713999
     22          1           0        3.376356   -1.731143   -1.020508
 ---------------------------------------------------------------------

 The electronic state is 1-A.
 Alpha  occ. eigenvalues --  -19.12130 -19.11347 -14.36929 -14.36507 -10.29707
 Alpha  occ. eigenvalues --  -10.28577 -10.23338 -10.22068 -10.20069 -10.18757
 Alpha  occ. eigenvalues --   -1.04109  -1.03275  -0.93519  -0.91650  -0.78164
 Alpha  occ. eigenvalues --   -0.73459  -0.71072  -0.64620  -0.59051  -0.58100
 Alpha  occ. eigenvalues --   -0.53702  -0.48347  -0.48089  -0.45873  -0.45577
 Alpha  occ. eigenvalues --   -0.43906  -0.42752  -0.42003  -0.41342  -0.40537
 Alpha  occ. eigenvalues --   -0.39520  -0.38184  -0.36880  -0.36399  -0.34880
 Alpha  occ. eigenvalues --   -0.28048  -0.26088  -0.25735  -0.24113
 Alpha virt. eigenvalues --    0.01363   0.02020   0.04983   0.09984   0.11901
 Alpha virt. eigenvalues --    0.12003   0.13492   0.14393   0.14920   0.15542
 Alpha virt. eigenvalues --    0.16575   0.17253   0.17553   0.18634   0.19441

 Mulliken atomic charges:
              1
     1  H    0.193849
     2  C   -0.544447
     3  H    0.150810
     4  H    0.183014
     5  C    0.591318
     6  O   -0.485625
     7  N   -0.610846
     8  H    0.313726
     9  C   -0.054313
    10  H    0.207960
    11  C   -0.453927
    12  H    0.139817
    13  H    0.182535
    14  H    0.168158
    15  C    0.593052
    16  O   -0.509918
    17  N   -0.592994
    18  H    0.322386
    19  C   -0.304619
    20  H    0.195764
    21  H    0.150791
    22  H    0.163510
 Sum of Mulliken atomic charges =   0.00000

 Dipole moment (field-independent basis, Debye):
    X=             -0.2542    Y=             -4.4096    Z=              3.5267  Tot=              5.6522
 Quadrupole moment (field-independent basis, Debye-Ang):
   XX=            -64.3437   YY=            -57.8202   ZZ=            -61.7131
   XY=             -1.3350   XZ=             -2.6070   YZ=              2.3293

 Normal termination of Gaussian 09 at Fri Feb 10 22:07:49 2017.
