 Gaussian 09, Revision A.02,
 Gaussian 09:  EM64L-G09RevA.02 11-Jun-2009

 ----------------------------------------------------------------------
 # b3lyp/6-31G* Opt=(ModRedundant, maxcycles=1000, calcfc) geom=nocrowd
 ----------------------------------------------------------------------

 ------------------
 Phi Psi fixed scan
 ------------------
 Symbolic Z-matrix:
 Charge =  0 Multiplicity = 1

 SCF Done:  E(RB3LYP) =  -495.840969397     A.U. after   15 cycles

  Exact polarizability:   0.000   0.000   0.000   0.000   0.000   0.000
 Approx polarizability: 115.147  -3.915 108.069  14.904  -6.700 113.027

 SCF Done:  E(RB3LYP) =  -495.843870165     A.U. after   11 cycles
 SCF Done:  E(RB3LYP) =  -495.846968575     A.U. after   12 cycles
 SCF Done:  E(RB3LYP) =  -495.847650769     A.U. after   12 cycles
 SCF Done:  E(RB3LYP) =  -495.807711230     A.U. after   14 cycles
 SCF Done:  E(RB3LYP) =  -495.820826850     A.U. after   12 cycles
 SCF Done:  E(RB3LYP) =  -495.830791681     A.U. after   12 cycles
 SCF Done:  E(RB3LYP) =  -495.838062684     A.U. after   12 cycles
 SCF Done:  E(RB3LYP) =  -495.843230742     A.U. after   12 cycles
 SCF Done:  E(RB3LYP) =  -495.845379428     A.U. after   12 cycles
 SCF Done:  E(RB3LYP) =  -495.847316310     A.U. after   13 cycles
 SCF Done:  E(RB3LYP) =  -495.847985706     A.U. after   12 cycles
 SCF Done:  E(RB3LYP) =  -495.848017751     A.U. after   10 cycles
 SCF Done:  E(RB3LYP) =  -495.848039745     A.U. after   10 cycles
 SCF Done:  E(RB3LYP) =  -495.848049847     A.U. after   10 cycles
 SCF Done:  E(RB3LYP) =  -495.848054409     A.U. after   10 cycles
 SCF Done:  E(RB3LYP) =  -495.848056135     A.U. after    9 cycles
 SCF Done:  E(RB3LYP) =  -495.848057194     A.U. after   10 cycles
 SCF Done:  E(RB3LYP) =  -495.848057024     A.U. after    7 cycles
 SCF Done:  E(RB3LYP) =  -495.848057022     A.U. after    6 cycles
 Optimization completed.
    -- Stationary point found.

                         Standard orientation:
 ---------------------------------------------------------------------
 Center     Atomic      Atomic             Coordinates (Angstroms)
 Number     Number       Type             X           Y           Z
 ---------------------------------------------------------------------
      1          1           0        3.599973   -1.885990   -0.427961
      2          6           0        3.111641   -1.029856   -0.900281
      3          1           0        2.639915   -1.351990   -1.833972
      4          1           0        3.890890   -0.296364   -1.135843
      5          6           0        2.137301   -0.413930    0.092853
      6          8           0        2.426587   -0.241774    1.269794
      7          7           0        0.905958   -0.081986   -0.420651
      8          1           0        0.793809   -0.084576   -1.426928
      9          6           0       -0.043526    0.734424    0.341616
     10          1           0        0.129012    0.471282    1.389711
     11          6           0        0.180642    2.234447    0.148546
     12          1           0        0.009432    2.520824   -0.893105
     13          1           0       -0.516651    2.808719    0.766959
     14          1           0        1.202929    2.494117    0.438518
     15          6           0       -1.470797    0.321475   -0.073439
     16          8           0       -2.161431    1.009913   -0.815766
     17          7           0       -1.877474   -0.873747    0.443261
     18          1           0       -1.211181   -1.406206    0.985234
     19          6           0       -3.150549   -1.485316    0.107209
     20          1           0       -3.731432   -0.746565   -0.446600
     21          1           0       -3.019066   -2.376809   -0.519266
     22          1           0       -3.696532   -1.768886    1.013738
 ---------------------------------------------------------------------

 The electronic state is 1-A.
 Alpha  occ. eigenvalues --  -19.11503 -19.11346 -14.36593 -14.36497 -10.29186
 Alpha  occ. eigenvalues --  -10.28690 -10.23378 -10.22074 -10.19667 -10.17604
 Alpha  occ. eigenvalues --   -1.03651  -1.03078  -0.92960  -0.91828  -0.77854
 Alpha  occ. eigenvalues --   -0.73018  -0.71357  -0.64049  -0.58907  -0.58416
 Alpha  occ. eigenvalues --   -0.53456  -0.48182  -0.47708  -0.46171  -0.45214
 Alpha  occ. eigenvalues --   -0.44793  -0.42100  -0.41755  -0.40400  -0.40013
 Alpha  occ. eigenvalues --   -0.39235  -0.37433  -0.37133  -0.36055  -0.35145
 Alpha  occ. eigenvalues --   -0.26990  -0.25458  -0.25227  -0.24516
 Alpha virt. eigenvalues --    0.01806   0.02573   0.07412   0.08135   0.11999
 Alpha virt. eigenvalues --    0.12569   0.12642   0.15027   0.15720   0.16382
 Alpha virt. eigenvalues --    0.16690   0.17203   0.17950   0.18978   0.19548

 Mulliken atomic charges:
              1
     1  H    0.188004
     2  C   -0.538386
     3  H    0.148578
     4  H    0.186140
     5  C    0.591903
     6  O   -0.506332
     7  N   -0.598976
     8  H    0.328932
     9  C   -0.055140
    10  H    0.179850
    11  C   -0.436838
    12  H    0.160164
    13  H    0.158406
    14  H    0.158019
    15  C    0.589375
    16  O   -0.515214
    17  N   -0.580960
    18  H    0.334309
    19  C   -0.311936
    20  H    0.203662
    21  H    0.156889
    22  H    0.159550
 Sum of Mulliken atomic charges =   0.00000

 Dipole moment (field-independent basis, Debye):
    X=             -0.0257    Y=             -2.4730    Z=             -1.2787  Tot=              2.7842
 Quadrupole moment (field-independent basis, Debye-Ang):
   XX=            -63.2628   YY=            -57.5706   ZZ=            -61.3522
   XY=              5.9317   XZ=            -11.6654   YZ=              1.6656

 Normal termination of Gaussian 09 at Fri Feb 10 22:02:34 2017.
