 Gaussian 09, Revision A.02,
 Gaussian 09:  EM64L-G09RevA.02 11-Jun-2009

 ----------------------------------------------------------------------
 # b3lyp/6-31G* Opt=(ModRedundant, maxcycles=1000, calcfc) geom=nocrowd
 ----------------------------------------------------------------------

 ------------------
 Phi Psi fixed scan
 ------------------
 Symbolic Z-matrix:
 Charge =  0 Multiplicity = 1

 SCF Done:  E(RB3LYP) =  -495.835210986     A.U. after   15 cycles

  Exact polarizability:   0.000   0.000   0.000   0.000   0.000   0.000
 Approx polarizability: 117.446 -10.391 111.537  -2.837  19.161 106.926

 SCF Done:  E(RB3LYP) =  -495.838415637     A.U. after   15 cycles
 SCF Done:  E(RB3LYP) =  -495.841957719     A.U. after   15 cycles
 SCF Done:  E(RB3LYP) =  -495.842848034     A.U. after   14 cycles
 SCF Done:  E(RB3LYP) =  -495.793075384     A.U. after   14 cycles
 SCF Done:  E(RB3LYP) =  -495.808924228     A.U. after   12 cycles
 SCF Done:  E(RB3LYP) =  -495.821027531     A.U. after   12 cycles
 SCF Done:  E(RB3LYP) =  -495.829976788     A.U. after   12 cycles
 SCF Done:  E(RB3LYP) =  -495.836288832     A.U. after   12 cycles
 SCF Done:  E(RB3LYP) =  -495.839968446     A.U. after   12 cycles
 SCF Done:  E(RB3LYP) =  -495.843202606     A.U. after   11 cycles
 SCF Done:  E(RB3LYP) =  -495.843216626     A.U. after   11 cycles
 SCF Done:  E(RB3LYP) =  -495.843227265     A.U. after   10 cycles
 SCF Done:  E(RB3LYP) =  -495.843250280     A.U. after   11 cycles
 SCF Done:  E(RB3LYP) =  -495.843276935     A.U. after   11 cycles
 SCF Done:  E(RB3LYP) =  -495.843280964     A.U. after   10 cycles
 SCF Done:  E(RB3LYP) =  -495.843282165     A.U. after    8 cycles
 SCF Done:  E(RB3LYP) =  -495.843283089     A.U. after    9 cycles
 SCF Done:  E(RB3LYP) =  -495.843283968     A.U. after   10 cycles
 SCF Done:  E(RB3LYP) =  -495.843284098     A.U. after    8 cycles
 Optimization completed.
    -- Stationary point found.

                         Standard orientation:
 ---------------------------------------------------------------------
 Center     Atomic      Atomic             Coordinates (Angstroms)
 Number     Number       Type             X           Y           Z
 ---------------------------------------------------------------------
      1          1           0        3.919030   -1.339838   -0.692002
      2          6           0        3.035295   -1.537041   -0.079270
      3          1           0        3.385921   -1.852654    0.909284
      4          1           0        2.463356   -2.355625   -0.527876
      5          6           0        2.244031   -0.245253    0.068440
      6          8           0        2.773258    0.812836    0.382866
      7          7           0        0.898548   -0.344838   -0.181414
      8          1           0        0.493067   -1.265694   -0.277222
      9          6           0       -0.008645    0.768864    0.128074
     10          1           0        0.352832    1.253820    1.038197
     11          6           0       -0.040934    1.811741   -1.000435
     12          1           0       -0.357337    1.374275   -1.954950
     13          1           0       -0.725232    2.629315   -0.748154
     14          1           0        0.962974    2.223662   -1.130175
     15          6           0       -1.397231    0.210163    0.476228
     16          8           0       -1.915645    0.383786    1.569135
     17          7           0       -1.989551   -0.521091   -0.524297
     18          1           0       -1.598647   -0.454296   -1.454361
     19          6           0       -3.342198   -1.040883   -0.392721
     20          1           0       -3.542739   -1.183946    0.669702
     21          1           0       -4.091141   -0.346984   -0.796308
     22          1           0       -3.427870   -1.999046   -0.914062
 ---------------------------------------------------------------------

 The electronic state is 1-A.
 Alpha  occ. eigenvalues --  -19.11970 -19.10962 -14.37240 -14.36385 -10.29223
 Alpha  occ. eigenvalues --  -10.28825 -10.23481 -10.22626 -10.19436 -10.18715
 Alpha  occ. eigenvalues --   -1.03998  -1.02924  -0.93391  -0.91757  -0.78209
 Alpha  occ. eigenvalues --   -0.73088  -0.71410  -0.64970  -0.59057  -0.58388
 Alpha  occ. eigenvalues --   -0.53926  -0.49387  -0.47303  -0.45957  -0.44986
 Alpha  occ. eigenvalues --   -0.44444  -0.42878  -0.41780  -0.41159  -0.40049
 Alpha  occ. eigenvalues --   -0.39628  -0.38264  -0.37470  -0.36603  -0.34463
 Alpha  occ. eigenvalues --   -0.27120  -0.26244  -0.24896  -0.24454
 Alpha virt. eigenvalues --    0.01052   0.03147   0.06048   0.08015   0.11260
 Alpha virt. eigenvalues --    0.12529   0.13710   0.14819   0.15413   0.15451
 Alpha virt. eigenvalues --    0.16477   0.17408   0.18320   0.18680   0.19562

 Mulliken atomic charges:
              1
     1  H    0.187529
     2  C   -0.536757
     3  H    0.187768
     4  H    0.142987
     5  C    0.596862
     6  O   -0.505448
     7  N   -0.614572
     8  H    0.326341
     9  C   -0.019841
    10  H    0.195275
    11  C   -0.453481
    12  H    0.128496
    13  H    0.160948
    14  H    0.191910
    15  C    0.559943
    16  O   -0.500228
    17  N   -0.589432
    18  H    0.328155
    19  C   -0.307721
    20  H    0.202928
    21  H    0.163379
    22  H    0.154960
 Sum of Mulliken atomic charges =   0.00000

 Dipole moment (field-independent basis, Debye):
    X=             -1.7262    Y=             -3.2793    Z=             -3.8629  Tot=              5.3531
 Quadrupole moment (field-independent basis, Debye-Ang):
   XX=            -63.4441   YY=            -57.1515   ZZ=            -62.7164
   XY=             -4.0094   XZ=              5.1180   YZ=             -1.3017

 Normal termination of Gaussian 09 at Fri Feb 10 22:05:19 2017.
