 Gaussian 09, Revision A.02,
 Gaussian 09:  EM64L-G09RevA.02 11-Jun-2009

 ----------------------------------------------------------------------
 # b3lyp/6-31G* Opt=(ModRedundant, maxcycles=1000, calcfc) geom=nocrowd
 ----------------------------------------------------------------------

 ------------------
 Phi Psi fixed scan
 ------------------
 Symbolic Z-matrix:
 Charge =  0 Multiplicity = 1

 SCF Done:  E(RB3LYP) =  -495.841669670     A.U. after   15 cycles

  Exact polarizability:   0.000   0.000   0.000   0.000   0.000   0.000
 Approx polarizability: 119.140  -5.305 116.921  14.004   3.006 100.626

 SCF Done:  E(RB3LYP) =  -495.845060616     A.U. after   12 cycles
 SCF Done:  E(RB3LYP) =  -495.848167610     A.U. after   12 cycles
 SCF Done:  E(RB3LYP) =  -495.848737580     A.U. after   12 cycles
 SCF Done:  E(RB3LYP) =  -495.849076239     A.U. after   12 cycles
 SCF Done:  E(RB3LYP) =  -495.848886677     A.U. after   14 cycles
 SCF Done:  E(RB3LYP) =  -495.849117926     A.U. after   12 cycles
 SCF Done:  E(RB3LYP) =  -495.849130828     A.U. after   11 cycles
 SCF Done:  E(RB3LYP) =  -495.849134652     A.U. after   10 cycles
 SCF Done:  E(RB3LYP) =  -495.849134793     A.U. after    7 cycles
 SCF Done:  E(RB3LYP) =  -495.849135004     A.U. after    7 cycles
 SCF Done:  E(RB3LYP) =  -495.849135291     A.U. after    8 cycles
 SCF Done:  E(RB3LYP) =  -495.849135731     A.U. after    9 cycles
 SCF Done:  E(RB3LYP) =  -495.849135787     A.U. after    7 cycles
 Optimization completed.
    -- Stationary point found.

                         Standard orientation:
 ---------------------------------------------------------------------
 Center     Atomic      Atomic             Coordinates (Angstroms)
 Number     Number       Type             X           Y           Z
 ---------------------------------------------------------------------
      1          1           0        3.653206   -1.844994   -0.147698
      2          6           0        3.096612   -1.129082   -0.757326
      3          1           0        2.598313   -1.658974   -1.575460
      4          1           0        3.821953   -0.427988   -1.185841
      5          6           0        2.137535   -0.362852    0.141577
      6          8           0        2.455710    0.026038    1.256094
      7          7           0        0.879201   -0.154485   -0.383267
      8          1           0        0.758679   -0.316547   -1.375922
      9          6           0       -0.053590    0.789360    0.240200
     10          1           0        0.152142    0.726291    1.314550
     11          6           0        0.162845    2.229574   -0.227770
     12          1           0        0.010105    2.319267   -1.308758
     13          1           0       -0.550525    2.897228    0.260950
     14          1           0        1.180313    2.546671    0.019074
     15          6           0       -1.509344    0.333892    0.003107
     16          8           0       -2.394634    1.123430   -0.302695
     17          7           0       -1.722494   -0.996946    0.213416
     18          1           0       -0.918140   -1.570948    0.424733
     19          6           0       -3.029863   -1.614456    0.092963
     20          1           0       -3.741074   -0.825907   -0.157144
     21          1           0       -3.043016   -2.373354   -0.699014
     22          1           0       -3.332686   -2.085092    1.035786
 ---------------------------------------------------------------------

 The electronic state is 1-A.
 Alpha  occ. eigenvalues --  -19.11816 -19.11222 -14.36954 -14.36206 -10.29571
 Alpha  occ. eigenvalues --  -10.28540 -10.23430 -10.21962 -10.20007 -10.17604
 Alpha  occ. eigenvalues --   -1.03897  -1.03057  -0.93386  -0.91533  -0.77936
 Alpha  occ. eigenvalues --   -0.73186  -0.71345  -0.64011  -0.59184  -0.58119
 Alpha  occ. eigenvalues --   -0.53599  -0.48372  -0.48124  -0.46010  -0.45393
 Alpha  occ. eigenvalues --   -0.44641  -0.42132  -0.41955  -0.40423  -0.40039
 Alpha  occ. eigenvalues --   -0.39036  -0.37975  -0.36764  -0.36373  -0.35072
 Alpha  occ. eigenvalues --   -0.27267  -0.25745  -0.25218  -0.24440
 Alpha virt. eigenvalues --    0.01733   0.02313   0.06956   0.09360   0.12035
 Alpha virt. eigenvalues --    0.12610   0.12630   0.14631   0.15745   0.16011
 Alpha virt. eigenvalues --    0.16640   0.17410   0.17602   0.18360   0.19559

 Mulliken atomic charges:
              1
     1  H    0.190174
     2  C   -0.540823
     3  H    0.148147
     4  H    0.187283
     5  C    0.591699
     6  O   -0.497182
     7  N   -0.611609
     8  H    0.324099
     9  C   -0.059020
    10  H    0.199793
    11  C   -0.435369
    12  H    0.144153
    13  H    0.174719
    14  H    0.157197
    15  C    0.585091
    16  O   -0.518000
    17  N   -0.581674
    18  H    0.333894
    19  C   -0.310171
    20  H    0.203861
    21  H    0.154021
    22  H    0.159715
 Sum of Mulliken atomic charges =   0.00000

 Dipole moment (field-independent basis, Debye):
    X=              0.6372    Y=             -3.2233    Z=             -2.2739  Tot=              3.9958
 Quadrupole moment (field-independent basis, Debye-Ang):
   XX=            -65.8314   YY=            -57.3832   ZZ=            -60.7200
   XY=              5.1665   XZ=             -9.1788   YZ=              0.8339

 Normal termination of Gaussian 09 at Fri Feb 10 21:54:53 2017.
