 Gaussian 09, Revision A.02,
 Gaussian 09:  EM64L-G09RevA.02 11-Jun-2009

 ----------------------------------------------------------------------
 # b3lyp/6-31G* Opt=(ModRedundant, maxcycles=1000, calcfc) geom=nocrowd
 ----------------------------------------------------------------------

 ------------------
 Phi Psi fixed scan
 ------------------
 Symbolic Z-matrix:
 Charge =  0 Multiplicity = 1

 SCF Done:  E(RB3LYP) =  -495.843507648     A.U. after   15 cycles

  Exact polarizability:   0.000   0.000   0.000   0.000   0.000   0.000
 Approx polarizability: 113.753  -0.944  95.598   9.523   8.479 126.778

 SCF Done:  E(RB3LYP) =  -495.846112552     A.U. after   11 cycles
 SCF Done:  E(RB3LYP) =  -495.848852257     A.U. after   12 cycles
 SCF Done:  E(RB3LYP) =  -495.849338108     A.U. after   12 cycles
 SCF Done:  E(RB3LYP) =  -495.786856179     A.U. after   15 cycles
 SCF Done:  E(RB3LYP) =  -495.803156593     A.U. after   15 cycles
 SCF Done:  E(RB3LYP) =  -495.816300385     A.U. after   11 cycles
 SCF Done:  E(RB3LYP) =  -495.826746881     A.U. after   12 cycles
 SCF Done:  E(RB3LYP) =  -495.835007552     A.U. after   12 cycles
 SCF Done:  E(RB3LYP) =  -495.841702166     A.U. after   12 cycles
 SCF Done:  E(RB3LYP) =  -495.849470985     A.U. after   11 cycles
 SCF Done:  E(RB3LYP) =  -495.845636929     A.U. after   13 cycles
 SCF Done:  E(RB3LYP) =  -495.849519312     A.U. after   12 cycles
 SCF Done:  E(RB3LYP) =  -495.849591662     A.U. after   11 cycles
 SCF Done:  E(RB3LYP) =  -495.849636117     A.U. after   11 cycles
 SCF Done:  E(RB3LYP) =  -495.849650069     A.U. after   10 cycles
 SCF Done:  E(RB3LYP) =  -495.849652531     A.U. after    9 cycles
 SCF Done:  E(RB3LYP) =  -495.849652671     A.U. after    7 cycles
 SCF Done:  E(RB3LYP) =  -495.849652714     A.U. after    7 cycles
 SCF Done:  E(RB3LYP) =  -495.849652737     A.U. after    7 cycles
 Optimization completed.
    -- Stationary point found.

                         Standard orientation:
 ---------------------------------------------------------------------
 Center     Atomic      Atomic             Coordinates (Angstroms)
 Number     Number       Type             X           Y           Z
 ---------------------------------------------------------------------
      1          1           0       -3.583665   -1.935190    0.395738
      2          6           0       -3.175931   -1.023689    0.841332
      3          1           0       -2.748527   -1.261695    1.820345
      4          1           0       -4.009454   -0.326707    0.979973
      5          6           0       -2.177250   -0.410523   -0.129267
      6          8           0       -2.438701   -0.244379   -1.315171
      7          7           0       -0.966142   -0.070817    0.412153
      8          1           0       -0.835422   -0.103376    1.415098
      9          6           0        0.040963    0.667081   -0.347524
     10          1           0       -0.094400    0.365192   -1.390105
     11          6           0       -0.128366    2.185506   -0.228315
     12          1           0        0.017933    2.500471    0.808869
     13          1           0        0.608886    2.706871   -0.849867
     14          1           0       -1.129409    2.472746   -0.562432
     15          6           0        1.407960    0.222463    0.195154
     16          8           0        1.790009    0.583271    1.304956
     17          7           0        2.108163   -0.625972   -0.606638
     18          1           0        1.698759   -0.899396   -1.488439
     19          6           0        3.387169   -1.197833   -0.222499
     20          1           0        3.668549   -0.753035    0.732878
     21          1           0        3.317115   -2.285848   -0.104178
     22          1           0        4.157760   -0.971684   -0.968047
 ---------------------------------------------------------------------

 The electronic state is 1-A.
 Alpha  occ. eigenvalues --  -19.11617 -19.10669 -14.37076 -14.36028 -10.28935
 Alpha  occ. eigenvalues --  -10.28640 -10.23416 -10.22324 -10.19165 -10.17855
 Alpha  occ. eigenvalues --   -1.03710  -1.02595  -0.92735  -0.92008  -0.77807
 Alpha  occ. eigenvalues --   -0.72818  -0.71438  -0.64261  -0.59094  -0.58433
 Alpha  occ. eigenvalues --   -0.53482  -0.48128  -0.47120  -0.46208  -0.45430
 Alpha  occ. eigenvalues --   -0.44659  -0.42181  -0.41614  -0.40728  -0.39578
 Alpha  occ. eigenvalues --   -0.39504  -0.37558  -0.36831  -0.36111  -0.34788
 Alpha  occ. eigenvalues --   -0.26631  -0.25841  -0.24721  -0.24377
 Alpha virt. eigenvalues --    0.01690   0.03566   0.07077   0.08315   0.11872
 Alpha virt. eigenvalues --    0.12965   0.13082   0.15305   0.16059   0.16289
 Alpha virt. eigenvalues --    0.16694   0.17039   0.18084   0.18826   0.19876

 Mulliken atomic charges:
              1
     1  H    0.185865
     2  C   -0.535437
     3  H    0.147739
     4  H    0.184405
     5  C    0.596208
     6  O   -0.514800
     7  N   -0.598947
     8  H    0.335021
     9  C   -0.031583
    10  H    0.165019
    11  C   -0.445677
    12  H    0.168026
    13  H    0.148956
    14  H    0.165688
    15  C    0.599894
    16  O   -0.530318
    17  N   -0.587230
    18  H    0.333304
    19  C   -0.313685
    20  H    0.205744
    21  H    0.161392
    22  H    0.160417
 Sum of Mulliken atomic charges =   0.00000

 Dipole moment (field-independent basis, Debye):
    X=              1.2419    Y=             -1.5399    Z=              0.1020  Tot=              1.9809
 Quadrupole moment (field-independent basis, Debye-Ang):
   XX=            -58.9826   YY=            -57.6192   ZZ=            -62.7611
   XY=             -3.9007   XZ=            -13.9580   YZ=             -1.4529

 Normal termination of Gaussian 09 at Fri Feb 10 22:01:48 2017.
