 Gaussian 09, Revision A.02,
 Gaussian 09:  EM64L-G09RevA.02 11-Jun-2009

 ----------------------------------------------------------------------
 # b3lyp/6-31G* Opt=(ModRedundant, maxcycles=1000, calcfc) geom=nocrowd
 ----------------------------------------------------------------------

 ------------------
 Phi Psi fixed scan
 ------------------
 Symbolic Z-matrix:
 Charge =  0 Multiplicity = 1

 SCF Done:  E(RB3LYP) =  -495.833004281     A.U. after   15 cycles

  Exact polarizability:   0.000   0.000   0.000   0.000   0.000   0.000
 Approx polarizability: 120.926   0.117 124.004   5.632 -17.323  91.675

 SCF Done:  E(RB3LYP) =  -495.837820137     A.U. after   12 cycles
 SCF Done:  E(RB3LYP) =  -495.844277442     A.U. after   13 cycles
 SCF Done:  E(RB3LYP) =  -495.833193127     A.U. after   13 cycles
 SCF Done:  E(RB3LYP) =  -495.845390681     A.U. after   13 cycles
 SCF Done:  E(RB3LYP) =  -495.846062841     A.U. after   12 cycles
 SCF Done:  E(RB3LYP) =  -495.846876816     A.U. after   13 cycles
 SCF Done:  E(RB3LYP) =  -495.847008912     A.U. after   12 cycles
 SCF Done:  E(RB3LYP) =  -495.799296827     A.U. after   15 cycles
 SCF Done:  E(RB3LYP) =  -495.847059516     A.U. after   15 cycles
 SCF Done:  E(RB3LYP) =  -495.847775357     A.U. after   11 cycles
 SCF Done:  E(RB3LYP) =  -495.847782895     A.U. after   10 cycles
 SCF Done:  E(RB3LYP) =  -495.847792579     A.U. after   11 cycles
 SCF Done:  E(RB3LYP) =  -495.847797512     A.U. after    8 cycles
 SCF Done:  E(RB3LYP) =  -495.847808619     A.U. after   10 cycles
 SCF Done:  E(RB3LYP) =  -495.847812047     A.U. after   10 cycles
 SCF Done:  E(RB3LYP) =  -495.847812708     A.U. after    9 cycles
 SCF Done:  E(RB3LYP) =  -495.847812882     A.U. after    8 cycles
 SCF Done:  E(RB3LYP) =  -495.847813039     A.U. after    9 cycles
 SCF Done:  E(RB3LYP) =  -495.847813068     A.U. after    7 cycles
 Optimization completed on the basis of negligible forces.
    -- Stationary point found.

                         Standard orientation:
 ---------------------------------------------------------------------
 Center     Atomic      Atomic             Coordinates (Angstroms)
 Number     Number       Type             X           Y           Z
 ---------------------------------------------------------------------
      1          1           0       -3.787679   -1.705098   -0.264485
      2          6           0       -3.129490   -1.249632    0.478964
      3          1           0       -2.615150   -2.036385    1.040114
      4          1           0       -3.759300   -0.680781    1.173049
      5          6           0       -2.179093   -0.295580   -0.228824
      6          8           0       -2.533881    0.409334   -1.159966
      7          7           0       -0.876787   -0.304695    0.246642
      8          1           0       -0.766092   -0.675291    1.185107
      9          6           0        0.038934    0.787544   -0.099206
     10          1           0       -0.244377    1.091374   -1.111534
     11          6           0       -0.103927    1.999863    0.831956
     12          1           0        0.095929    1.720991    1.874172
     13          1           0        0.614134    2.770390    0.542780
     14          1           0       -1.117489    2.405994    0.763684
     15          6           0        1.509460    0.338014   -0.162553
     16          8           0        2.396567    1.155046   -0.376211
     17          7           0        1.749058   -0.981065    0.105314
     18          1           0        0.955807   -1.603826    0.026409
     19          6           0        3.084177   -1.542078   -0.026924
     20          1           0        3.804010   -0.755747    0.204230
     21          1           0        3.208855   -2.371212    0.676053
     22          1           0        3.283599   -1.903914   -1.044333
 ---------------------------------------------------------------------

 The electronic state is 1-A.
 Alpha  occ. eigenvalues --  -19.12199 -19.11025 -14.37040 -14.36283 -10.29817
 Alpha  occ. eigenvalues --  -10.28488 -10.23434 -10.21959 -10.20161 -10.18240
 Alpha  occ. eigenvalues --   -1.04181  -1.03036  -0.93629  -0.91497  -0.78063
 Alpha  occ. eigenvalues --   -0.73390  -0.71233  -0.64320  -0.59173  -0.57953
 Alpha  occ. eigenvalues --   -0.53759  -0.48444  -0.48168  -0.45991  -0.45526
 Alpha  occ. eigenvalues --   -0.44033  -0.42558  -0.41943  -0.40942  -0.40564
 Alpha  occ. eigenvalues --   -0.39229  -0.38247  -0.36751  -0.36479  -0.34693
 Alpha  occ. eigenvalues --   -0.27854  -0.25970  -0.25669  -0.24156
 Alpha virt. eigenvalues --    0.01261   0.02595   0.06057   0.10137   0.12023
 Alpha virt. eigenvalues --    0.12504   0.13235   0.14267   0.14973   0.15521
 Alpha virt. eigenvalues --    0.16912   0.17398   0.17875   0.18106   0.19488

 Mulliken atomic charges:
              1
     1  H    0.192910
     2  C   -0.543024
     3  H    0.148858
     4  H    0.185983
     5  C    0.591431
     6  O   -0.487680
     7  N   -0.622291
     8  H    0.320850
     9  C   -0.052767
    10  H    0.209295
    11  C   -0.450624
    12  H    0.137427
    13  H    0.188695
    14  H    0.162849
    15  C    0.595690
    16  O   -0.520628
    17  N   -0.595523
    18  H    0.332282
    19  C   -0.307162
    20  H    0.199484
    21  H    0.152190
    22  H    0.161755
 Sum of Mulliken atomic charges =   0.00000

 Dipole moment (field-independent basis, Debye):
    X=             -0.7357    Y=             -3.9207    Z=              3.1020  Tot=              5.0533
 Quadrupole moment (field-independent basis, Debye-Ang):
   XX=            -65.8177   YY=            -57.5114   ZZ=            -61.0116
   XY=             -3.3165   XZ=             -5.3053   YZ=              1.3710

 Normal termination of Gaussian 09 at Fri Feb 10 21:47:55 2017.
