 Gaussian 09, Revision A.02,
 Gaussian 09:  EM64L-G09RevA.02 11-Jun-2009

 ----------------------------------------------------------------------
 # b3lyp/6-31G* Opt=(ModRedundant, maxcycles=1000, calcfc) geom=nocrowd
 ----------------------------------------------------------------------

 ------------------
 Phi Psi fixed scan
 ------------------
 Symbolic Z-matrix:
 Charge =  0 Multiplicity = 1

 SCF Done:  E(RB3LYP) =  -495.831353488     A.U. after   15 cycles

  Exact polarizability:   0.000   0.000   0.000   0.000   0.000   0.000
 Approx polarizability: 121.503   1.857 105.744  15.221  -1.945 110.493

 SCF Done:  E(RB3LYP) =  -495.836122667     A.U. after   12 cycles
 SCF Done:  E(RB3LYP) =  -495.841492109     A.U. after   13 cycles
 SCF Done:  E(RB3LYP) =  -495.842558989     A.U. after   13 cycles
 SCF Done:  E(RB3LYP) =  -495.840843911     A.U. after   12 cycles
 SCF Done:  E(RB3LYP) =  -495.842722784     A.U. after   12 cycles
 SCF Done:  E(RB3LYP) =  -495.843011385     A.U. after   12 cycles
 SCF Done:  E(RB3LYP) =  -495.808562635     A.U. after   14 cycles
 SCF Done:  E(RB3LYP) =  -495.843118403     A.U. after   13 cycles
 SCF Done:  E(RB3LYP) =  -495.843325293     A.U. after   12 cycles
 SCF Done:  E(RB3LYP) =  -495.843503387     A.U. after   10 cycles
 SCF Done:  E(RB3LYP) =  -495.843510110     A.U. after   10 cycles
 SCF Done:  E(RB3LYP) =  -495.843509717     A.U. after   10 cycles
 SCF Done:  E(RB3LYP) =  -495.843512062     A.U. after   10 cycles
 SCF Done:  E(RB3LYP) =  -495.843512996     A.U. after    9 cycles
 SCF Done:  E(RB3LYP) =  -495.843513422     A.U. after    8 cycles
 SCF Done:  E(RB3LYP) =  -495.843515546     A.U. after   10 cycles
 SCF Done:  E(RB3LYP) =  -495.843516411     A.U. after    9 cycles
 SCF Done:  E(RB3LYP) =  -495.843516543     A.U. after    7 cycles
 SCF Done:  E(RB3LYP) =  -495.843516552     A.U. after    6 cycles
 Optimization completed.
    -- Stationary point found.

                         Standard orientation:
 ---------------------------------------------------------------------
 Center     Atomic      Atomic             Coordinates (Angstroms)
 Number     Number       Type             X           Y           Z
 ---------------------------------------------------------------------
      1          1           0        4.095510   -0.779022   -1.016396
      2          6           0        3.176781   -1.235576   -0.640263
      3          1           0        3.456434   -1.934867    0.155935
      4          1           0        2.695484   -1.797791   -1.446669
      5          6           0        2.292404   -0.145288   -0.053618
      6          8           0        2.741010    0.765816    0.630156
      7          7           0        0.954663   -0.247825   -0.353472
      8          1           0        0.629000   -1.146615   -0.685128
      9          6           0       -0.022766    0.574604    0.374053
     10          1           0        0.310571    0.650266    1.415436
     11          6           0       -0.092971    1.988989   -0.213563
     12          1           0       -0.330879    1.972169   -1.284272
     13          1           0       -0.834715    2.599945    0.314278
     14          1           0        0.884375    2.463280   -0.099452
     15          6           0       -1.339990   -0.225442    0.418212
     16          8           0       -1.427712   -1.228989    1.117868
     17          7           0       -2.333203    0.190858   -0.417624
     18          1           0       -2.205641    1.050299   -0.930424
     19          6           0       -3.628489   -0.464902   -0.476718
     20          1           0       -3.554350   -1.389231    0.097415
     21          1           0       -4.417395    0.161892   -0.042871
     22          1           0       -3.894807   -0.700493   -1.512986
 ---------------------------------------------------------------------

 The electronic state is 1-A.
 Alpha  occ. eigenvalues --  -19.11523 -19.10939 -14.37122 -14.35947 -10.29097
 Alpha  occ. eigenvalues --  -10.28563 -10.23509 -10.22453 -10.19102 -10.18668
 Alpha  occ. eigenvalues --   -1.03767  -1.02745  -0.92805  -0.91894  -0.78087
 Alpha  occ. eigenvalues --   -0.72996  -0.71030  -0.65158  -0.59011  -0.57779
 Alpha  occ. eigenvalues --   -0.53706  -0.49290  -0.47366  -0.45571  -0.44885
 Alpha  occ. eigenvalues --   -0.44653  -0.42347  -0.41694  -0.40361  -0.39786
 Alpha  occ. eigenvalues --   -0.38965  -0.38549  -0.38044  -0.36805  -0.34170
 Alpha  occ. eigenvalues --   -0.26435  -0.25646  -0.25111  -0.24602
 Alpha virt. eigenvalues --    0.01409   0.03041   0.07214   0.08387   0.11411
 Alpha virt. eigenvalues --    0.12829   0.13826   0.14934   0.15742   0.15808
 Alpha virt. eigenvalues --    0.16093   0.17054   0.18152   0.18959   0.19056

 Mulliken atomic charges:
              1
     1  H    0.186553
     2  C   -0.539268
     3  H    0.186894
     4  H    0.149509
     5  C    0.593706
     6  O   -0.505796
     7  N   -0.598338
     8  H    0.335180
     9  C    0.009244
    10  H    0.188052
    11  C   -0.480612
    12  H    0.139415
    13  H    0.148399
    14  H    0.198486
    15  C    0.538357
    16  O   -0.513747
    17  N   -0.584084
    18  H    0.335099
    19  C   -0.313469
    20  H    0.206082
    21  H    0.162138
    22  H    0.158199
 Sum of Mulliken atomic charges =   0.00000

 Dipole moment (field-independent basis, Debye):
    X=             -2.6131    Y=              0.1465    Z=             -3.5154  Tot=              4.3827
 Quadrupole moment (field-independent basis, Debye-Ang):
   XX=            -57.4842   YY=            -59.8408   ZZ=            -61.8901
   XY=             -9.9780   XZ=              0.3406   YZ=              2.2019

 Normal termination of Gaussian 09 at Fri Feb 10 22:00:08 2017.
