 Gaussian 09, Revision A.02,
 Gaussian 09:  EM64L-G09RevA.02 11-Jun-2009

 ----------------------------------------------------------------------
 # b3lyp/6-31G* Opt=(ModRedundant, maxcycles=1000, calcfc) geom=nocrowd
 ----------------------------------------------------------------------

 ------------------
 Phi Psi fixed scan
 ------------------
 Symbolic Z-matrix:
 Charge =  0 Multiplicity = 1

 SCF Done:  E(RB3LYP) =  -495.831980819     A.U. after   15 cycles

  Exact polarizability:   0.000   0.000   0.000   0.000   0.000   0.000
 Approx polarizability: 119.684   7.072  99.961  13.189   1.674 117.752

 SCF Done:  E(RB3LYP) =  -495.836387152     A.U. after   12 cycles
 SCF Done:  E(RB3LYP) =  -495.841311599     A.U. after   13 cycles
 SCF Done:  E(RB3LYP) =  -495.842183036     A.U. after   13 cycles
 SCF Done:  E(RB3LYP) =  -495.840530886     A.U. after   12 cycles
 SCF Done:  E(RB3LYP) =  -495.842228962     A.U. after   12 cycles
 SCF Done:  E(RB3LYP) =  -495.842405549     A.U. after   12 cycles
 SCF Done:  E(RB3LYP) =  -495.817783878     A.U. after   15 cycles
 SCF Done:  E(RB3LYP) =  -495.842458274     A.U. after   14 cycles
 SCF Done:  E(RB3LYP) =  -495.842577080     A.U. after   12 cycles
 SCF Done:  E(RB3LYP) =  -495.842604308     A.U. after   11 cycles
 SCF Done:  E(RB3LYP) =  -495.842612650     A.U. after   10 cycles
 SCF Done:  E(RB3LYP) =  -495.842623667     A.U. after   10 cycles
 SCF Done:  E(RB3LYP) =  -495.842630788     A.U. after   10 cycles
 SCF Done:  E(RB3LYP) =  -495.842634992     A.U. after   11 cycles
 SCF Done:  E(RB3LYP) =  -495.842635790     A.U. after    9 cycles
 SCF Done:  E(RB3LYP) =  -495.842635619     A.U. after    8 cycles
 SCF Done:  E(RB3LYP) =  -495.842635459     A.U. after    7 cycles
 SCF Done:  E(RB3LYP) =  -495.842635394     A.U. after    6 cycles
 Optimization completed.
    -- Stationary point found.

                         Standard orientation:
 ---------------------------------------------------------------------
 Center     Atomic      Atomic             Coordinates (Angstroms)
 Number     Number       Type             X           Y           Z
 ---------------------------------------------------------------------
      1          1           0        3.996637   -0.865653   -1.115795
      2          6           0        3.131531   -1.312821   -0.618942
      3          1           0        3.508456   -1.940578    0.195605
      4          1           0        2.595928   -1.947886   -1.331851
      5          6           0        2.277909   -0.201360   -0.025919
      6          8           0        2.757692    0.705980    0.642557
      7          7           0        0.935802   -0.285330   -0.285153
      8          1           0        0.576989   -1.092446   -0.774767
      9          6           0       -0.017761    0.638674    0.336799
     10          1           0        0.333317    0.821991    1.355902
     11          6           0       -0.071583    1.980846   -0.407019
     12          1           0       -0.303906    1.855133   -1.472283
     13          1           0       -0.812825    2.651446    0.042408
     14          1           0        0.910363    2.455971   -0.340468
     15          6           0       -1.360506   -0.102555    0.493179
     16          8           0       -1.592350   -0.792558    1.477014
     17          7           0       -2.223031    0.006120   -0.563050
     18          1           0       -2.016070    0.680020   -1.285459
     19          6           0       -3.539693   -0.610004   -0.554899
     20          1           0       -3.553838   -1.344295    0.251369
     21          1           0       -4.331902    0.127555   -0.373888
     22          1           0       -3.734667   -1.110836   -1.509119
 ---------------------------------------------------------------------

 The electronic state is 1-A.
 Alpha  occ. eigenvalues --  -19.11545 -19.10705 -14.37075 -14.36279 -10.29035
 Alpha  occ. eigenvalues --  -10.28616 -10.23522 -10.22453 -10.19229 -10.18886
 Alpha  occ. eigenvalues --   -1.03714  -1.02667  -0.92911  -0.91905  -0.78170
 Alpha  occ. eigenvalues --   -0.73034  -0.71124  -0.65266  -0.58987  -0.58494
 Alpha  occ. eigenvalues --   -0.53784  -0.49131  -0.47315  -0.45840  -0.44933
 Alpha  occ. eigenvalues --   -0.44481  -0.42428  -0.41794  -0.40803  -0.39864
 Alpha  occ. eigenvalues --   -0.39275  -0.38380  -0.37819  -0.36609  -0.34390
 Alpha  occ. eigenvalues --   -0.26638  -0.25726  -0.24799  -0.24380
 Alpha virt. eigenvalues --    0.01307   0.03388   0.06568   0.07887   0.11321
 Alpha virt. eigenvalues --    0.12643   0.13675   0.14823   0.15613   0.16063
 Alpha virt. eigenvalues --    0.16283   0.17719   0.17909   0.18743   0.19280

 Mulliken atomic charges:
              1
     1  H    0.185728
     2  C   -0.535624
     3  H    0.189080
     4  H    0.142953
     5  C    0.602183
     6  O   -0.510625
     7  N   -0.604800
     8  H    0.328810
     9  C    0.000067
    10  H    0.196058
    11  C   -0.471539
    12  H    0.131295
    13  H    0.154757
    14  H    0.194570
    15  C    0.541983
    16  O   -0.501573
    17  N   -0.586422
    18  H    0.331107
    19  C   -0.311823
    20  H    0.205560
    21  H    0.162215
    22  H    0.156039
 Sum of Mulliken atomic charges =   0.00000

 Dipole moment (field-independent basis, Debye):
    X=             -2.3366    Y=             -0.5329    Z=             -4.5720  Tot=              5.1620
 Quadrupole moment (field-independent basis, Debye-Ang):
   XX=            -59.7462   YY=            -58.3385   ZZ=            -62.7721
   XY=             -8.2550   XZ=              1.7448   YZ=              1.9824

 Normal termination of Gaussian 09 at Fri Feb 10 21:53:07 2017.
