 Gaussian 09, Revision A.02,
 Gaussian 09:  EM64L-G09RevA.02 11-Jun-2009

 ----------------------------------------------------------------------
 # b3lyp/6-31G* Opt=(ModRedundant, maxcycles=1000, calcfc) geom=nocrowd
 ----------------------------------------------------------------------

 ------------------
 Phi Psi fixed scan
 ------------------
 Symbolic Z-matrix:
 Charge =  0 Multiplicity = 1

 SCF Done:  E(RB3LYP) =  -495.846298480     A.U. after   14 cycles

  Exact polarizability:   0.000   0.000   0.000   0.000   0.000   0.000
 Approx polarizability: 118.138   1.989 118.700   0.882 -22.342  96.796

 SCF Done:  E(RB3LYP) =  -495.849074225     A.U. after   12 cycles
 SCF Done:  E(RB3LYP) =  -495.851930454     A.U. after   12 cycles
 SCF Done:  E(RB3LYP) =  -495.852431180     A.U. after   12 cycles
 SCF Done:  E(RB3LYP) =  -495.808038393     A.U. after   14 cycles
 SCF Done:  E(RB3LYP) =  -495.821474149     A.U. after   12 cycles
 SCF Done:  E(RB3LYP) =  -495.831991681     A.U. after   12 cycles
 SCF Done:  E(RB3LYP) =  -495.840342518     A.U. after   12 cycles
 SCF Done:  E(RB3LYP) =  -495.847150459     A.U. after   12 cycles
 SCF Done:  E(RB3LYP) =  -495.849945073     A.U. after   12 cycles
 SCF Done:  E(RB3LYP) =  -495.852586954     A.U. after   13 cycles
 SCF Done:  E(RB3LYP) =  -495.852638606     A.U. after   11 cycles
 SCF Done:  E(RB3LYP) =  -495.852688932     A.U. after   11 cycles
 SCF Done:  E(RB3LYP) =  -495.852730489     A.U. after   10 cycles
 SCF Done:  E(RB3LYP) =  -495.852773798     A.U. after   11 cycles
 SCF Done:  E(RB3LYP) =  -495.852778338     A.U. after   10 cycles
 SCF Done:  E(RB3LYP) =  -495.852778965     A.U. after    9 cycles
 SCF Done:  E(RB3LYP) =  -495.852779139     A.U. after    7 cycles
 SCF Done:  E(RB3LYP) =  -495.852779182     A.U. after    6 cycles
 SCF Done:  E(RB3LYP) =  -495.852779200     A.U. after    6 cycles
 Optimization completed.
    -- Stationary point found.

                         Standard orientation:
 ---------------------------------------------------------------------
 Center     Atomic      Atomic             Coordinates (Angstroms)
 Number     Number       Type             X           Y           Z
 ---------------------------------------------------------------------
      1          1           0       -4.206290   -0.678853    0.536869
      2          6           0       -3.350402   -1.142829    0.037172
      3          1           0       -3.709228   -1.546662   -0.914891
      4          1           0       -2.978599   -1.964655    0.656638
      5          6           0       -2.307425   -0.072029   -0.246235
      6          8           0       -2.565195    0.932038   -0.904385
      7          7           0       -1.074219   -0.295591    0.291855
      8          1           0       -0.827807   -1.183949    0.713730
      9          6           0        0.050897    0.569497   -0.003319
     10          1           0       -0.076664    0.951643   -1.024088
     11          6           0        0.119435    1.770527    0.960233
     12          1           0        0.247373    1.427649    1.992185
     13          1           0        0.950580    2.440118    0.710861
     14          1           0       -0.813843    2.334666    0.885729
     15          6           0        1.320255   -0.294914    0.078060
     16          8           0        1.315712   -1.392434    0.631234
     17          7           0        2.431156    0.261701   -0.474639
     18          1           0        2.338860    1.151175   -0.944536
     19          6           0        3.732486   -0.385072   -0.459480
     20          1           0        3.626990   -1.318683    0.094090
     21          1           0        4.075136   -0.608908   -1.476454
     22          1           0        4.479323    0.245777    0.035965
 ---------------------------------------------------------------------

 The electronic state is 1-A.
 Alpha  occ. eigenvalues --  -19.12489 -19.09895 -14.37477 -14.34886 -10.29613
 Alpha  occ. eigenvalues --  -10.27850 -10.23603 -10.22707 -10.18608 -10.18470
 Alpha  occ. eigenvalues --   -1.04463  -1.01869  -0.93240  -0.91412  -0.77931
 Alpha  occ. eigenvalues --   -0.72713  -0.71202  -0.64699  -0.59774  -0.57410
 Alpha  occ. eigenvalues --   -0.53642  -0.48238  -0.47164  -0.46221  -0.45397
 Alpha  occ. eigenvalues --   -0.44253  -0.42885  -0.41611  -0.40480  -0.40073
 Alpha  occ. eigenvalues --   -0.38821  -0.38049  -0.37125  -0.36636  -0.33848
 Alpha  occ. eigenvalues --   -0.26645  -0.26574  -0.24476  -0.23856
 Alpha virt. eigenvalues --    0.01750   0.03806   0.06421   0.09859   0.11501
 Alpha virt. eigenvalues --    0.13137   0.13982   0.15021   0.15544   0.15785
 Alpha virt. eigenvalues --    0.16399   0.17619   0.18241   0.18780   0.19078

 Mulliken atomic charges:
              1
     1  H    0.182577
     2  C   -0.533073
     3  H    0.181673
     4  H    0.148789
     5  C    0.592362
     6  O   -0.522978
     7  N   -0.600162
     8  H    0.346385
     9  C   -0.038021
    10  H    0.171174
    11  C   -0.439560
    12  H    0.158546
    13  H    0.133495
    14  H    0.186572
    15  C    0.603409
    16  O   -0.530203
    17  N   -0.590887
    18  H    0.331424
    19  C   -0.312935
    20  H    0.207093
    21  H    0.162859
    22  H    0.161462
 Sum of Mulliken atomic charges =   0.00000

 Dipole moment (field-independent basis, Debye):
    X=              3.0419    Y=              0.3000    Z=             -0.0220  Tot=              3.0567
 Quadrupole moment (field-independent basis, Debye-Ang):
   XX=            -54.4621   YY=            -61.6522   ZZ=            -60.9393
   XY=             10.8254   XZ=             -8.0851   YZ=              2.2386

 Normal termination of Gaussian 09 at Fri Feb 10 21:53:26 2017.
