 Gaussian 09, Revision A.02,
 Gaussian 09:  EM64L-G09RevA.02 11-Jun-2009

 ----------------------------------------------------------------------
 # b3lyp/6-31G* Opt=(ModRedundant, maxcycles=1000, calcfc) geom=nocrowd
 ----------------------------------------------------------------------

 ------------------
 Phi Psi fixed scan
 ------------------
 Symbolic Z-matrix:
 Charge =  0 Multiplicity = 1

 SCF Done:  E(RB3LYP) =  -495.844114858     A.U. after   14 cycles

  Exact polarizability:   0.000   0.000   0.000   0.000   0.000   0.000
 Approx polarizability: 120.014   3.436 120.660   2.651 -18.698  93.575

 SCF Done:  E(RB3LYP) =  -495.847657830     A.U. after   12 cycles
 SCF Done:  E(RB3LYP) =  -495.851016957     A.U. after   12 cycles
 SCF Done:  E(RB3LYP) =  -495.851821710     A.U. after   12 cycles
 SCF Done:  E(RB3LYP) =  -495.848222875     A.U. after   13 cycles
 SCF Done:  E(RB3LYP) =  -495.851950522     A.U. after   12 cycles
 SCF Done:  E(RB3LYP) =  -495.852204470     A.U. after   12 cycles
 SCF Done:  E(RB3LYP) =  -495.852126502     A.U. after   12 cycles
 SCF Done:  E(RB3LYP) =  -495.852206395     A.U. after   12 cycles
 SCF Done:  E(RB3LYP) =  -495.852234311     A.U. after   12 cycles
 SCF Done:  E(RB3LYP) =  -495.852244572     A.U. after   10 cycles
 SCF Done:  E(RB3LYP) =  -495.852285496     A.U. after   11 cycles
 SCF Done:  E(RB3LYP) =  -495.852316766     A.U. after   11 cycles
 SCF Done:  E(RB3LYP) =  -495.852326587     A.U. after   11 cycles
 SCF Done:  E(RB3LYP) =  -495.852326965     A.U. after    8 cycles
 SCF Done:  E(RB3LYP) =  -495.852326976     A.U. after    6 cycles
 SCF Done:  E(RB3LYP) =  -495.852326973     A.U. after    6 cycles
 Optimization completed.
    -- Stationary point found.

                         Standard orientation:
 ---------------------------------------------------------------------
 Center     Atomic      Atomic             Coordinates (Angstroms)
 Number     Number       Type             X           Y           Z
 ---------------------------------------------------------------------
      1          1           0       -4.223813   -0.661166    0.581124
      2          6           0       -3.354309   -1.132805    0.113881
      3          1           0       -3.692065   -1.577836   -0.827905
      4          1           0       -2.981788   -1.925692    0.769430
      5          6           0       -2.319425   -0.060610   -0.192391
      6          8           0       -2.594233    0.945914   -0.839249
      7          7           0       -1.071658   -0.284868    0.316540
      8          1           0       -0.805295   -1.205978    0.649285
      9          6           0        0.049528    0.553795   -0.064242
     10          1           0       -0.099991    0.876747   -1.103977
     11          6           0        0.135912    1.811303    0.821061
     12          1           0        0.309660    1.538060    1.866914
     13          1           0        0.937071    2.487712    0.500747
     14          1           0       -0.811011    2.351646    0.747056
     15          6           0        1.313507   -0.324618    0.009938
     16          8           0        1.259593   -1.500853    0.363308
     17          7           0        2.475080    0.301441   -0.317537
     18          1           0        2.432967    1.260483   -0.630609
     19          6           0        3.762612   -0.372768   -0.320173
     20          1           0        3.607382   -1.377253    0.074624
     21          1           0        4.171752   -0.446904   -1.334816
     22          1           0        4.481339    0.157895    0.314203
 ---------------------------------------------------------------------

 The electronic state is 1-A.
 Alpha  occ. eigenvalues --  -19.12572 -19.10012 -14.37451 -14.34749 -10.29697
 Alpha  occ. eigenvalues --  -10.27835 -10.23641 -10.22713 -10.18698 -10.18444
 Alpha  occ. eigenvalues --   -1.04549  -1.01932  -0.93258  -0.91362  -0.77923
 Alpha  occ. eigenvalues --   -0.72718  -0.71104  -0.64841  -0.59773  -0.57123
 Alpha  occ. eigenvalues --   -0.53655  -0.48293  -0.47406  -0.46082  -0.45416
 Alpha  occ. eigenvalues --   -0.44168  -0.42831  -0.41615  -0.40384  -0.40104
 Alpha  occ. eigenvalues --   -0.38861  -0.38103  -0.37313  -0.36680  -0.33767
 Alpha  occ. eigenvalues --   -0.26755  -0.26506  -0.24667  -0.23890
 Alpha virt. eigenvalues --    0.01791   0.03587   0.06295   0.10107   0.11368
 Alpha virt. eigenvalues --    0.13154   0.14497   0.14966   0.15411   0.15632
 Alpha virt. eigenvalues --    0.16074   0.17846   0.18242   0.18934   0.19621

 Mulliken atomic charges:
              1
     1  H    0.182716
     2  C   -0.533729
     3  H    0.181444
     4  H    0.150197
     5  C    0.588048
     6  O   -0.520250
     7  N   -0.598318
     8  H    0.348190
     9  C   -0.041385
    10  H    0.178365
    11  C   -0.443278
    12  H    0.157639
    13  H    0.128199
    14  H    0.190532
    15  C    0.603280
    16  O   -0.530273
    17  N   -0.591827
    18  H    0.331844
    19  C   -0.312592
    20  H    0.207162
    21  H    0.162660
    22  H    0.161374
 Sum of Mulliken atomic charges =   0.00000

 Dipole moment (field-independent basis, Debye):
    X=              3.2057    Y=              0.4461    Z=              0.3397  Tot=              3.2543
 Quadrupole moment (field-independent basis, Debye-Ang):
   XX=            -54.0581   YY=            -61.9699   ZZ=            -60.8489
   XY=             11.1773   XZ=             -6.6005   YZ=              1.7125

 Normal termination of Gaussian 09 at Fri Feb 10 21:46:55 2017.
