 Gaussian 09, Revision A.02,
 Gaussian 09:  EM64L-G09RevA.02 11-Jun-2009

 ----------------------------------------------------------------------
 # b3lyp/6-31G* Opt=(ModRedundant, maxcycles=1000, calcfc) geom=nocrowd
 ----------------------------------------------------------------------

 ------------------
 Phi Psi fixed scan
 ------------------
 Symbolic Z-matrix:
 Charge =  0 Multiplicity = 1

 SCF Done:  E(RB3LYP) =  -495.835875406     A.U. after   14 cycles

  Exact polarizability:   0.000   0.000   0.000   0.000   0.000   0.000
 Approx polarizability: 123.563   4.069 118.644   8.701 -10.019  94.272

 SCF Done:  E(RB3LYP) =  -495.840505359     A.U. after   11 cycles
 SCF Done:  E(RB3LYP) =  -495.845770465     A.U. after   12 cycles
 SCF Done:  E(RB3LYP) =  -495.847684409     A.U. after   12 cycles
 SCF Done:  E(RB3LYP) =  -495.847985733     A.U. after   15 cycles
 SCF Done:  E(RB3LYP) =  -495.849274664     A.U. after   12 cycles
 SCF Done:  E(RB3LYP) =  -495.847707079     A.U. after   14 cycles
 SCF Done:  E(RB3LYP) =  -495.849487790     A.U. after   14 cycles
 SCF Done:  E(RB3LYP) =  -495.849616304     A.U. after   11 cycles
 SCF Done:  E(RB3LYP) =  -495.849547959     A.U. after   12 cycles
 SCF Done:  E(RB3LYP) =  -495.849652056     A.U. after   11 cycles
 SCF Done:  E(RB3LYP) =  -495.849655262     A.U. after   10 cycles
 SCF Done:  E(RB3LYP) =  -495.849656736     A.U. after   10 cycles
 SCF Done:  E(RB3LYP) =  -495.849657378     A.U. after    9 cycles
 SCF Done:  E(RB3LYP) =  -495.849657447     A.U. after    7 cycles
 SCF Done:  E(RB3LYP) =  -495.849657467     A.U. after    6 cycles
 Optimization completed.
    -- Stationary point found.

                         Standard orientation:
 ---------------------------------------------------------------------
 Center     Atomic      Atomic             Coordinates (Angstroms)
 Number     Number       Type             X           Y           Z
 ---------------------------------------------------------------------
      1          1           0       -4.202147   -0.657478    0.768273
      2          6           0       -3.319596   -1.140854    0.340262
      3          1           0       -3.645530   -1.685730   -0.552498
      4          1           0       -2.913914   -1.855127    1.062934
      5          6           0       -2.324004   -0.067854   -0.073687
      6          8           0       -2.655472    0.910441   -0.734502
      7          7           0       -1.037028   -0.259194    0.362760
      8          1           0       -0.755715   -1.206943    0.594070
      9          6           0        0.044039    0.540592   -0.204217
     10          1           0       -0.177644    0.716439   -1.268050
     11          6           0        0.138971    1.908223    0.487233
     12          1           0        0.430618    1.806591    1.537794
     13          1           0        0.846361    2.576054   -0.021019
     14          1           0       -0.842333    2.385076    0.437074
     15          6           0        1.310750   -0.338197   -0.145793
     16          8           0        1.222289   -1.563720   -0.196601
     17          7           0        2.495041    0.313327   -0.008489
     18          1           0        2.492895    1.321440    0.022643
     19          6           0        3.773524   -0.378176   -0.005070
     20          1           0        3.569312   -1.447473    0.056953
     21          1           0        4.342545   -0.175849   -0.920742
     22          1           0        4.372824   -0.072092    0.859135
 ---------------------------------------------------------------------

 The electronic state is 1-A.
 Alpha  occ. eigenvalues --  -19.12182 -19.10461 -14.37414 -14.34912 -10.29569
 Alpha  occ. eigenvalues --  -10.28031 -10.23646 -10.22639 -10.18748 -10.18585
 Alpha  occ. eigenvalues --   -1.04314  -1.02269  -0.93145  -0.91449  -0.77956
 Alpha  occ. eigenvalues --   -0.72782  -0.71031  -0.65094  -0.59569  -0.56878
 Alpha  occ. eigenvalues --   -0.53655  -0.48739  -0.47491  -0.45696  -0.45428
 Alpha  occ. eigenvalues --   -0.44194  -0.42618  -0.41635  -0.39972  -0.39918
 Alpha  occ. eigenvalues --   -0.39185  -0.38123  -0.37758  -0.36929  -0.33802
 Alpha  occ. eigenvalues --   -0.26530  -0.26255  -0.25153  -0.24145
 Alpha virt. eigenvalues --    0.01882   0.03045   0.06787   0.10105   0.11354
 Alpha virt. eigenvalues --    0.13318   0.14555   0.14574   0.15108   0.15817
 Alpha virt. eigenvalues --    0.16023   0.17466   0.18190   0.19362   0.19622

 Mulliken atomic charges:
              1
     1  H    0.183667
     2  C   -0.535810
     3  H    0.183071
     4  H    0.152128
     5  C    0.584352
     6  O   -0.512670
     7  N   -0.594685
     8  H    0.345473
     9  C   -0.020041
    10  H    0.185668
    11  C   -0.469946
    12  H    0.155336
    13  H    0.131294
    14  H    0.198289
    15  C    0.585079
    16  O   -0.530697
    17  N   -0.592652
    18  H    0.334500
    19  C   -0.313080
    20  H    0.207125
    21  H    0.162943
    22  H    0.160653
 Sum of Mulliken atomic charges =   0.00000

 Dipole moment (field-independent basis, Debye):
    X=              3.2207    Y=              0.6390    Z=              1.3418  Tot=              3.5471
 Quadrupole moment (field-independent basis, Debye-Ang):
   XX=            -53.9055   YY=            -61.9135   ZZ=            -60.9483
   XY=             11.2784   XZ=             -3.7339   YZ=              0.2804

 Normal termination of Gaussian 09 at Fri Feb 10 21:47:09 2017.
