 Gaussian 09, Revision A.02,
 Gaussian 09:  EM64L-G09RevA.02 11-Jun-2009

 ----------------------------------------------------------------------
 # b3lyp/6-31G* Opt=(ModRedundant, maxcycles=1000, calcfc) geom=nocrowd
 ----------------------------------------------------------------------

 ------------------
 Phi Psi fixed scan
 ------------------
 Symbolic Z-matrix:
 Charge =  0 Multiplicity = 1

 SCF Done:  E(RB3LYP) =  -495.832106767     A.U. after   15 cycles

  Exact polarizability:   0.000   0.000   0.000   0.000   0.000   0.000
 Approx polarizability: 122.879   1.543 111.281  14.478  -0.767 103.443

 SCF Done:  E(RB3LYP) =  -495.836994479     A.U. after   12 cycles
 SCF Done:  E(RB3LYP) =  -495.842553532     A.U. after   13 cycles
 SCF Done:  E(RB3LYP) =  -495.844002666     A.U. after   13 cycles
 SCF Done:  E(RB3LYP) =  -495.843181690     A.U. after   12 cycles
 SCF Done:  E(RB3LYP) =  -495.844069689     A.U. after   12 cycles
 SCF Done:  E(RB3LYP) =  -495.844635024     A.U. after   12 cycles
 SCF Done:  E(RB3LYP) =  -495.845111049     A.U. after   13 cycles
 SCF Done:  E(RB3LYP) =  -495.832219329     A.U. after   13 cycles
 SCF Done:  E(RB3LYP) =  -495.845157417     A.U. after   13 cycles
 SCF Done:  E(RB3LYP) =  -495.845460109     A.U. after   11 cycles
 SCF Done:  E(RB3LYP) =  -495.845463589     A.U. after   10 cycles
 SCF Done:  E(RB3LYP) =  -495.845466378     A.U. after   10 cycles
 SCF Done:  E(RB3LYP) =  -495.845468601     A.U. after   10 cycles
 SCF Done:  E(RB3LYP) =  -495.845470266     A.U. after    9 cycles
 SCF Done:  E(RB3LYP) =  -495.845470850     A.U. after    8 cycles
 SCF Done:  E(RB3LYP) =  -495.845471366     A.U. after    8 cycles
 SCF Done:  E(RB3LYP) =  -495.845472274     A.U. after   10 cycles
 SCF Done:  E(RB3LYP) =  -495.845472445     A.U. after    9 cycles
 SCF Done:  E(RB3LYP) =  -495.845472448     A.U. after    6 cycles
 Optimization completed.
    -- Stationary point found.

                         Standard orientation:
 ---------------------------------------------------------------------
 Center     Atomic      Atomic             Coordinates (Angstroms)
 Number     Number       Type             X           Y           Z
 ---------------------------------------------------------------------
      1          1           0       -4.168319   -0.732952    0.880425
      2          6           0       -3.228090   -1.191595    0.565471
      3          1           0       -3.456651   -1.897771   -0.241285
      4          1           0       -2.795310   -1.746857    1.403325
      5          6           0       -2.307178   -0.105771    0.029405
      6          8           0       -2.717450    0.827175   -0.649269
      7          7           0       -0.980992   -0.239967    0.372790
      8          1           0       -0.681765   -1.172976    0.631698
      9          6           0        0.030394    0.552675   -0.337864
     10          1           0       -0.273475    0.631160   -1.390306
     11          6           0        0.117363    1.969301    0.240300
     12          1           0        0.384661    1.953787    1.303446
     13          1           0        0.842833    2.580063   -0.311228
     14          1           0       -0.860999    2.444890    0.143768
     15          6           0        1.323807   -0.286598   -0.331024
     16          8           0        1.312868   -1.425816   -0.789989
     17          7           0        2.413134    0.263261    0.271086
     18          1           0        2.353150    1.211376    0.610178
     19          6           0        3.697846   -0.413575    0.327160
     20          1           0        3.547754   -1.431840   -0.033302
     21          1           0        4.441975    0.084242   -0.306513
     22          1           0        4.072954   -0.443678    1.356031
 ---------------------------------------------------------------------

 The electronic state is 1-A.
 Alpha  occ. eigenvalues --  -19.11646 -19.10919 -14.37264 -14.35550 -10.29242
 Alpha  occ. eigenvalues --  -10.28410 -10.23537 -10.22511 -10.18915 -10.18646
 Alpha  occ. eigenvalues --   -1.03905  -1.02666  -0.92890  -0.91760  -0.78039
 Alpha  occ. eigenvalues --   -0.72925  -0.71008  -0.65137  -0.59179  -0.57297
 Alpha  occ. eigenvalues --   -0.53659  -0.49189  -0.47399  -0.45491  -0.45145
 Alpha  occ. eigenvalues --   -0.44500  -0.42393  -0.41668  -0.40092  -0.39619
 Alpha  occ. eigenvalues --   -0.39076  -0.38466  -0.38062  -0.36969  -0.34051
 Alpha  occ. eigenvalues --   -0.26336  -0.25620  -0.25536  -0.24474
 Alpha virt. eigenvalues --    0.01664   0.02805   0.07405   0.09153   0.11441
 Alpha virt. eigenvalues --    0.13160   0.14014   0.15015   0.15176   0.15830
 Alpha virt. eigenvalues --    0.15996   0.16807   0.18267   0.18804   0.19145

 Mulliken atomic charges:
              1
     1  H    0.185755
     2  C   -0.540142
     3  H    0.185382
     4  H    0.153180
     5  C    0.588552
     6  O   -0.505544
     7  N   -0.594139
     8  H    0.338128
     9  C    0.006621
    10  H    0.185115
    11  C   -0.484075
    12  H    0.145865
    13  H    0.142247
    14  H    0.200073
    15  C    0.550892
    16  O   -0.522955
    17  N   -0.586786
    18  H    0.337011
    19  C   -0.313968
    20  H    0.206749
    21  H    0.162316
    22  H    0.159722
 Sum of Mulliken atomic charges =   0.00000

 Dipole moment (field-independent basis, Debye):
    X=              2.8923    Y=              0.4648    Z=              2.6573  Tot=              3.9551
 Quadrupole moment (field-independent basis, Debye-Ang):
   XX=            -55.7061   YY=            -60.8969   ZZ=            -61.3542
   XY=             10.7559   XZ=             -1.0444   YZ=             -1.5502

 Normal termination of Gaussian 09 at Fri Feb 10 22:00:58 2017.
