 Gaussian 09, Revision A.02,
 Gaussian 09:  EM64L-G09RevA.02 11-Jun-2009

 ----------------------------------------------------------------------
 # b3lyp/6-31G* Opt=(ModRedundant, maxcycles=1000, calcfc) geom=nocrowd
 ----------------------------------------------------------------------

 ------------------
 Phi Psi fixed scan
 ------------------
 Symbolic Z-matrix:
 Charge =  0 Multiplicity = 1

 SCF Done:  E(RB3LYP) =  -495.829771191     A.U. after   15 cycles

  Exact polarizability:   0.000   0.000   0.000   0.000   0.000   0.000
 Approx polarizability: 119.848  -2.371 123.218   3.156 -20.232  92.600

 SCF Done:  E(RB3LYP) =  -495.834954453     A.U. after   12 cycles
 SCF Done:  E(RB3LYP) =  -495.841791696     A.U. after   13 cycles
 SCF Done:  E(RB3LYP) =  -495.819611040     A.U. after   13 cycles
 SCF Done:  E(RB3LYP) =  -495.832907837     A.U. after   13 cycles
 SCF Done:  E(RB3LYP) =  -495.840184196     A.U. after   13 cycles
 SCF Done:  E(RB3LYP) =  -495.841890124     A.U. after   13 cycles
 SCF Done:  E(RB3LYP) =  -495.842964828     A.U. after   12 cycles
 SCF Done:  E(RB3LYP) =  -495.844241813     A.U. after   12 cycles
 SCF Done:  E(RB3LYP) =  -495.844726948     A.U. after   13 cycles
 SCF Done:  E(RB3LYP) =  -495.845385033     A.U. after   10 cycles
 SCF Done:  E(RB3LYP) =  -495.845416110     A.U. after   10 cycles
 SCF Done:  E(RB3LYP) =  -495.845439495     A.U. after   10 cycles
 SCF Done:  E(RB3LYP) =  -495.845467158     A.U. after   11 cycles
 SCF Done:  E(RB3LYP) =  -495.845487899     A.U. after   11 cycles
 SCF Done:  E(RB3LYP) =  -495.845489720     A.U. after   10 cycles
 SCF Done:  E(RB3LYP) =  -495.845491275     A.U. after    8 cycles
 SCF Done:  E(RB3LYP) =  -495.845491459     A.U. after    9 cycles
 SCF Done:  E(RB3LYP) =  -495.845491531     A.U. after    7 cycles
 SCF Done:  E(RB3LYP) =  -495.845491529     A.U. after    6 cycles
 Optimization completed.
    -- Stationary point found.

                         Standard orientation:
 ---------------------------------------------------------------------
 Center     Atomic      Atomic             Coordinates (Angstroms)
 Number     Number       Type             X           Y           Z
 ---------------------------------------------------------------------
      1          1           0       -3.851107   -1.624515   -0.388114
      2          6           0       -3.149184   -1.283524    0.376154
      3          1           0       -2.631275   -2.146915    0.805844
      4          1           0       -3.732033   -0.796668    1.167035
      5          6           0       -2.204680   -0.266726   -0.247487
      6          8           0       -2.575793    0.546202   -1.078286
      7          7           0       -0.887282   -0.351457    0.181563
      8          1           0       -0.773287   -0.809140    1.080983
      9          6           0        0.028636    0.770195   -0.054812
     10          1           0       -0.283348    1.205853   -1.007179
     11          6           0       -0.064448    1.852062    1.033038
     12          1           0        0.185009    1.440960    2.019361
     13          1           0        0.638826    2.658378    0.810471
     14          1           0       -1.078775    2.261093    1.066763
     15          6           0        1.492468    0.333935   -0.225747
     16          8           0        2.336841    1.145844   -0.581342
     17          7           0        1.799622   -0.941348    0.170340
     18          1           0        1.038924   -1.607846    0.140975
     19          6           0        3.149090   -1.458916   -0.006227
     20          1           0        3.854068   -0.657750    0.219786
     21          1           0        3.311009   -2.293457    0.681795
     22          1           0        3.335931   -1.798887   -1.033516
 ---------------------------------------------------------------------

 The electronic state is 1-A.
 Alpha  occ. eigenvalues --  -19.12204 -19.11176 -14.36993 -14.36377 -10.29791
 Alpha  occ. eigenvalues --  -10.28516 -10.23387 -10.22006 -10.20133 -10.18538
 Alpha  occ. eigenvalues --   -1.04174  -1.03155  -0.93602  -0.91561  -0.78116
 Alpha  occ. eigenvalues --   -0.73438  -0.71152  -0.64473  -0.59102  -0.57975
 Alpha  occ. eigenvalues --   -0.53732  -0.48404  -0.48141  -0.45964  -0.45533
 Alpha  occ. eigenvalues --   -0.43891  -0.42705  -0.41977  -0.41182  -0.40581
 Alpha  occ. eigenvalues --   -0.39374  -0.38215  -0.36871  -0.36451  -0.34709
 Alpha  occ. eigenvalues --   -0.28025  -0.26039  -0.25739  -0.24143
 Alpha virt. eigenvalues --    0.01260   0.02281   0.05648   0.10089   0.12000
 Alpha virt. eigenvalues --    0.12235   0.13321   0.14314   0.14911   0.15490
 Alpha virt. eigenvalues --    0.16792   0.17322   0.17831   0.18326   0.19466

 Mulliken atomic charges:
              1
     1  H    0.193469
     2  C   -0.543549
     3  H    0.149516
     4  H    0.184784
     5  C    0.591054
     6  O   -0.485911
     7  N   -0.617421
     8  H    0.318078
     9  C   -0.052966
    10  H    0.208445
    11  C   -0.452863
    12  H    0.138571
    13  H    0.186760
    14  H    0.165383
    15  C    0.593895
    16  O   -0.515879
    17  N   -0.595263
    18  H    0.328528
    19  C   -0.305629
    20  H    0.196821
    21  H    0.151324
    22  H    0.162854
 Sum of Mulliken atomic charges =   0.00000

 Dipole moment (field-independent basis, Debye):
    X=             -0.5415    Y=             -4.1515    Z=              3.3200  Tot=              5.3433
 Quadrupole moment (field-independent basis, Debye-Ang):
   XX=            -65.1973   YY=            -57.6341   ZZ=            -61.3425
   XY=             -2.3906   XZ=             -3.9795   YZ=              1.9953

 Normal termination of Gaussian 09 at Fri Feb 10 22:05:19 2017.
