 Gaussian 09, Revision A.02,
 Gaussian 09:  EM64L-G09RevA.02 11-Jun-2009

 ----------------------------------------------------------------------
 # b3lyp/6-31G* Opt=(ModRedundant, maxcycles=1000, calcfc) geom=nocrowd
 ----------------------------------------------------------------------

 ------------------
 Phi Psi fixed scan
 ------------------
 Symbolic Z-matrix:
 Charge =  0 Multiplicity = 1

 SCF Done:  E(RB3LYP) =  -495.841109583     A.U. after   15 cycles

  Exact polarizability:   0.000   0.000   0.000   0.000   0.000   0.000
 Approx polarizability: 117.101  -5.290 112.764  15.287  -2.230 106.490

 SCF Done:  E(RB3LYP) =  -495.844075869     A.U. after   11 cycles
 SCF Done:  E(RB3LYP) =  -495.847217042     A.U. after   12 cycles
 SCF Done:  E(RB3LYP) =  -495.847900024     A.U. after   13 cycles
 SCF Done:  E(RB3LYP) =  -495.847314375     A.U. after   12 cycles
 SCF Done:  E(RB3LYP) =  -495.847956936     A.U. after   12 cycles
 SCF Done:  E(RB3LYP) =  -495.848150956     A.U. after   12 cycles
 SCF Done:  E(RB3LYP) =  -495.847775244     A.U. after   13 cycles
 SCF Done:  E(RB3LYP) =  -495.848253793     A.U. after   13 cycles
 SCF Done:  E(RB3LYP) =  -495.848313938     A.U. after   11 cycles
 SCF Done:  E(RB3LYP) =  -495.848330859     A.U. after   11 cycles
 SCF Done:  E(RB3LYP) =  -495.848336876     A.U. after   10 cycles
 SCF Done:  E(RB3LYP) =  -495.848339116     A.U. after   10 cycles
 SCF Done:  E(RB3LYP) =  -495.848339958     A.U. after    9 cycles
 SCF Done:  E(RB3LYP) =  -495.848340207     A.U. after    7 cycles
 SCF Done:  E(RB3LYP) =  -495.848340212     A.U. after    7 cycles
 Optimization completed.
    -- Stationary point found.

                         Standard orientation:
 ---------------------------------------------------------------------
 Center     Atomic      Atomic             Coordinates (Angstroms)
 Number     Number       Type             X           Y           Z
 ---------------------------------------------------------------------
      1          1           0        3.639212   -1.854812   -0.298943
      2          6           0        3.099779   -1.075643   -0.842936
      3          1           0        2.608082   -1.516345   -1.716109
      4          1           0        3.838917   -0.344690   -1.190180
      5          6           0        2.135354   -0.389403    0.113125
      6          8           0        2.441100   -0.114926    1.265380
      7          7           0        0.889852   -0.114946   -0.406130
      8          1           0        0.772176   -0.195227   -1.408756
      9          6           0       -0.048999    0.766897    0.294846
     10          1           0        0.141121    0.598202    1.359868
     11          6           0        0.173933    2.243626   -0.032820
     12          1           0        0.011708    2.436954   -1.097745
     13          1           0       -0.529389    2.868735    0.524286
     14          1           0        1.194791    2.528985    0.237786
     15          6           0       -1.493497    0.329794   -0.031875
     16          8           0       -2.304718    1.085279   -0.553111
     17          7           0       -1.783685   -0.950935    0.339379
     18          1           0       -1.025556   -1.521807    0.686852
     19          6           0       -3.074540   -1.568128    0.096142
     20          1           0       -3.746396   -0.788110   -0.264711
     21          1           0       -3.009703   -2.359913   -0.661147
     22          1           0       -3.481367   -1.996495    1.019018
 ---------------------------------------------------------------------

 The electronic state is 1-A.
 Alpha  occ. eigenvalues --  -19.11608 -19.11409 -14.36800 -14.36304 -10.29398
 Alpha  occ. eigenvalues --  -10.28608 -10.23393 -10.22007 -10.19862 -10.17572
 Alpha  occ. eigenvalues --   -1.03756  -1.03128  -0.93183  -0.91661  -0.77893
 Alpha  occ. eigenvalues --   -0.73104  -0.71337  -0.64001  -0.59058  -0.58226
 Alpha  occ. eigenvalues --   -0.53507  -0.48259  -0.47980  -0.46078  -0.45310
 Alpha  occ. eigenvalues --   -0.44722  -0.42096  -0.41892  -0.40288  -0.40084
 Alpha  occ. eigenvalues --   -0.39104  -0.37668  -0.36996  -0.36223  -0.35157
 Alpha  occ. eigenvalues --   -0.27159  -0.25617  -0.25179  -0.24513
 Alpha virt. eigenvalues --    0.01982   0.02091   0.07174   0.08776   0.12007
 Alpha virt. eigenvalues --    0.12530   0.12548   0.14811   0.15709   0.16213
 Alpha virt. eigenvalues --    0.16734   0.17257   0.17777   0.18643   0.19542

 Mulliken atomic charges:
              1
     1  H    0.189095
     2  C   -0.540051
     3  H    0.148733
     4  H    0.186690
     5  C    0.590857
     6  O   -0.501460
     7  N   -0.602993
     8  H    0.325927
     9  C   -0.060989
    10  H    0.190942
    11  C   -0.433559
    12  H    0.151522
    13  H    0.166164
    14  H    0.156703
    15  C    0.584805
    16  O   -0.514311
    17  N   -0.578899
    18  H    0.333902
    19  C   -0.311052
    20  H    0.203505
    21  H    0.154908
    22  H    0.159562
 Sum of Mulliken atomic charges =   0.00000

 Dipole moment (field-independent basis, Debye):
    X=              0.3734    Y=             -2.8798    Z=             -1.8523  Tot=              3.4444
 Quadrupole moment (field-independent basis, Debye-Ang):
   XX=            -64.8685   YY=            -57.4315   ZZ=            -60.9844
   XY=              5.6571   XZ=            -10.4211   YZ=              1.3489

 Normal termination of Gaussian 09 at Fri Feb 10 21:58:12 2017.
