 Gaussian 09, Revision A.02,
 Gaussian 09:  EM64L-G09RevA.02 11-Jun-2009

 ----------------------------------------------------------------------
 # b3lyp/6-31G* Opt=(ModRedundant, maxcycles=1000, calcfc) geom=nocrowd
 ----------------------------------------------------------------------

 ------------------
 Phi Psi fixed scan
 ------------------
 Symbolic Z-matrix:
 Charge =  0 Multiplicity = 1

 SCF Done:  E(RB3LYP) =  -495.833315191     A.U. after   15 cycles

  Exact polarizability:   0.000   0.000   0.000   0.000   0.000   0.000
 Approx polarizability: 123.738   3.337 115.569  12.130  -5.304  97.931

 SCF Done:  E(RB3LYP) =  -495.838303617     A.U. after   12 cycles
 SCF Done:  E(RB3LYP) =  -495.844063773     A.U. after   12 cycles
 SCF Done:  E(RB3LYP) =  -495.845977060     A.U. after   12 cycles
 SCF Done:  E(RB3LYP) =  -495.846229153     A.U. after   14 cycles
 SCF Done:  E(RB3LYP) =  -495.847394015     A.U. after   14 cycles
 SCF Done:  E(RB3LYP) =  -495.847294789     A.U. after   14 cycles
 SCF Done:  E(RB3LYP) =  -495.847596786     A.U. after   12 cycles
 SCF Done:  E(RB3LYP) =  -495.753643035     A.U. after   15 cycles
 SCF Done:  E(RB3LYP) =  -495.847631200     A.U. after   13 cycles
 SCF Done:  E(RB3LYP) =  -495.847543891     A.U. after   12 cycles
 SCF Done:  E(RB3LYP) =  -495.847678269     A.U. after   11 cycles
 SCF Done:  E(RB3LYP) =  -495.847691797     A.U. after   10 cycles
 SCF Done:  E(RB3LYP) =  -495.847693688     A.U. after   10 cycles
 SCF Done:  E(RB3LYP) =  -495.847693877     A.U. after    7 cycles
 SCF Done:  E(RB3LYP) =  -495.847693923     A.U. after    6 cycles
 SCF Done:  E(RB3LYP) =  -495.847693937     A.U. after    6 cycles
 SCF Done:  E(RB3LYP) =  -495.847693937     A.U. after    7 cycles
 SCF Done:  E(RB3LYP) =  -495.847693908     A.U. after    7 cycles
 SCF Done:  E(RB3LYP) =  -495.847693895     A.U. after    6 cycles
 Optimization completed.
    -- Stationary point found.

                         Standard orientation:
 ---------------------------------------------------------------------
 Center     Atomic      Atomic             Coordinates (Angstroms)
 Number     Number       Type             X           Y           Z
 ---------------------------------------------------------------------
      1          1           0       -4.203206   -0.690555    0.796612
      2          6           0       -3.277363   -1.162601    0.458684
      3          1           0       -3.527669   -1.813611   -0.386873
      4          1           0       -2.867485   -1.777711    1.265439
      5          6           0       -2.318561   -0.080933   -0.015539
      6          8           0       -2.689236    0.876221   -0.684583
      7          7           0       -1.009894   -0.245920    0.373607
      8          1           0       -0.723589   -1.192298    0.601075
      9          6           0        0.038046    0.543777   -0.276449
     10          1           0       -0.227071    0.661486   -1.337511
     11          6           0        0.133588    1.943105    0.343276
     12          1           0        0.424540    1.896083    1.398580
     13          1           0        0.842407    2.577942   -0.203667
     14          1           0       -0.847480    2.417896    0.274597
     15          6           0        1.314180   -0.321541   -0.239256
     16          8           0        1.247235   -1.523309   -0.489225
     17          7           0        2.466690    0.296922    0.129897
     18          1           0        2.446272    1.286638    0.322878
     19          6           0        3.746475   -0.390906    0.164981
     20          1           0        3.555252   -1.449141   -0.015813
     21          1           0        4.425896   -0.011907   -0.607998
     22          1           0        4.222379   -0.270537    1.144435
 ---------------------------------------------------------------------

 The electronic state is 1-A.
 Alpha  occ. eigenvalues --  -19.11879 -19.10728 -14.37373 -14.35188 -10.29415
 Alpha  occ. eigenvalues --  -10.28215 -10.23595 -10.22579 -10.18733 -10.18693
 Alpha  occ. eigenvalues --   -1.04098  -1.02485  -0.93033  -0.91588  -0.77999
 Alpha  occ. eigenvalues --   -0.72849  -0.71019  -0.65131  -0.59389  -0.57001
 Alpha  occ. eigenvalues --   -0.53650  -0.48996  -0.47434  -0.45482  -0.45403
 Alpha  occ. eigenvalues --   -0.44332  -0.42494  -0.41652  -0.39968  -0.39523
 Alpha  occ. eigenvalues --   -0.39392  -0.38174  -0.38010  -0.37017  -0.33923
 Alpha  occ. eigenvalues --   -0.26290  -0.26085  -0.25367  -0.24310
 Alpha virt. eigenvalues --    0.01847   0.02824   0.07231   0.09770   0.11411
 Alpha virt. eigenvalues --    0.13367   0.14304   0.14675   0.15064   0.15906
 Alpha virt. eigenvalues --    0.15947   0.16976   0.18281   0.19001   0.19282

 Mulliken atomic charges:
              1
     1  H    0.184634
     2  C   -0.538596
     3  H    0.184185
     4  H    0.153556
     5  C    0.585585
     6  O   -0.508399
     7  N   -0.593361
     8  H    0.341684
     9  C   -0.004353
    10  H    0.185122
    11  C   -0.480627
    12  H    0.151096
    13  H    0.136629
    14  H    0.200138
    15  C    0.568390
    16  O   -0.528347
    17  N   -0.590517
    18  H    0.336685
    19  C   -0.314078
    20  H    0.207403
    21  H    0.162447
    22  H    0.160724
 Sum of Mulliken atomic charges =   0.00000

 Dipole moment (field-independent basis, Debye):
    X=              3.1026    Y=              0.6017    Z=              1.9527  Tot=              3.7150
 Quadrupole moment (field-independent basis, Debye-Ang):
   XX=            -54.5540   YY=            -61.5598   ZZ=            -61.0639
   XY=             11.1218   XZ=             -2.3384   YZ=             -0.6358

 Normal termination of Gaussian 09 at Fri Feb 10 21:49:03 2017.
