 Gaussian 09, Revision A.02,
 Gaussian 09:  EM64L-G09RevA.02 11-Jun-2009

 ----------------------------------------------------------------------
 # b3lyp/6-31G* Opt=(ModRedundant, maxcycles=1000, calcfc) geom=nocrowd
 ----------------------------------------------------------------------

 ------------------
 Phi Psi fixed scan
 ------------------
 Symbolic Z-matrix:
 Charge =  0 Multiplicity = 1

 SCF Done:  E(RB3LYP) =  -495.841303284     A.U. after   15 cycles

  Exact polarizability:   0.000   0.000   0.000   0.000   0.000   0.000
 Approx polarizability: 120.652   4.135 120.506  11.531  -8.325  95.920

 SCF Done:  E(RB3LYP) =  -495.844319910     A.U. after   16 cycles
 SCF Done:  E(RB3LYP) =  -495.847800433     A.U. after   12 cycles
 SCF Done:  E(RB3LYP) =  -495.848932125     A.U. after   13 cycles
 SCF Done:  E(RB3LYP) =  -495.846913841     A.U. after   13 cycles
 SCF Done:  E(RB3LYP) =  -495.848999298     A.U. after   13 cycles
 SCF Done:  E(RB3LYP) =  -495.849344115     A.U. after   12 cycles
 SCF Done:  E(RB3LYP) =  -495.848762185     A.U. after   13 cycles
 SCF Done:  E(RB3LYP) =  -495.849524308     A.U. after   13 cycles
 SCF Done:  E(RB3LYP) =  -495.849586771     A.U. after   11 cycles
 SCF Done:  E(RB3LYP) =  -495.849591415     A.U. after    9 cycles
 SCF Done:  E(RB3LYP) =  -495.849596823     A.U. after   10 cycles
 SCF Done:  E(RB3LYP) =  -495.849602215     A.U. after   10 cycles
 SCF Done:  E(RB3LYP) =  -495.849603268     A.U. after    9 cycles
 SCF Done:  E(RB3LYP) =  -495.849603353     A.U. after    8 cycles
 SCF Done:  E(RB3LYP) =  -495.849603378     A.U. after    7 cycles
 SCF Done:  E(RB3LYP) =  -495.849603378     A.U. after    6 cycles
 Optimization completed.
    -- Stationary point found.

                         Standard orientation:
 ---------------------------------------------------------------------
 Center     Atomic      Atomic             Coordinates (Angstroms)
 Number     Number       Type             X           Y           Z
 ---------------------------------------------------------------------
      1          1           0        3.728757   -1.769199   -0.004881
      2          6           0        3.104419   -1.167872   -0.669524
      3          1           0        2.598336   -1.822952   -1.385959
      4          1           0        3.766263   -0.492117   -1.223835
      5          6           0        2.144341   -0.343226    0.174781
      6          8           0        2.469719    0.147346    1.245380
      7          7           0        0.873307   -0.202950   -0.348965
      8          1           0        0.758302   -0.431011   -1.329944
      9          6           0       -0.053068    0.797698    0.189406
     10          1           0        0.171538    0.846501    1.260988
     11          6           0        0.154042    2.185810   -0.422898
     12          1           0        0.009029    2.162227   -1.509314
     13          1           0       -0.570479    2.888941   -0.006996
     14          1           0        1.167161    2.537241   -0.206845
     15          6           0       -1.518405    0.338134    0.045131
     16          8           0       -2.432826    1.146102   -0.065533
     17          7           0       -1.703510   -1.012409    0.085585
     18          1           0       -0.884814   -1.587829    0.227039
     19          6           0       -3.020283   -1.622124    0.077593
     20          1           0       -3.744804   -0.833020   -0.128865
     21          1           0       -3.090789   -2.391204   -0.700103
     22          1           0       -3.258498   -2.078171    1.046660
 ---------------------------------------------------------------------

 The electronic state is 1-A.
 Alpha  occ. eigenvalues --  -19.12018 -19.11036 -14.37024 -14.36178 -10.29709
 Alpha  occ. eigenvalues --  -10.28494 -10.23462 -10.21927 -10.20100 -10.17734
 Alpha  occ. eigenvalues --   -1.04044  -1.02974  -0.93527  -0.91461  -0.77980
 Alpha  occ. eigenvalues --   -0.73261  -0.71335  -0.64070  -0.59231  -0.58045
 Alpha  occ. eigenvalues --   -0.53687  -0.48445  -0.48174  -0.45984  -0.45473
 Alpha  occ. eigenvalues --   -0.44478  -0.42250  -0.41941  -0.40564  -0.40174
 Alpha  occ. eigenvalues --   -0.39037  -0.38177  -0.36622  -0.36480  -0.34947
 Alpha  occ. eigenvalues --   -0.27407  -0.25826  -0.25371  -0.24307
 Alpha virt. eigenvalues --    0.01496   0.02632   0.06721   0.09819   0.12056
 Alpha virt. eigenvalues --    0.12687   0.12848   0.14378   0.15451   0.15903
 Alpha virt. eigenvalues --    0.16634   0.17474   0.17525   0.18207   0.19587

 Mulliken atomic charges:
              1
     1  H    0.191449
     2  C   -0.542544
     3  H    0.149347
     4  H    0.186526
     5  C    0.591902
     6  O   -0.493050
     7  N   -0.619184
     8  H    0.323045
     9  C   -0.055578
    10  H    0.205786
    11  C   -0.440897
    12  H    0.139466
    13  H    0.182554
    14  H    0.158542
    15  C    0.589818
    16  O   -0.521725
    17  N   -0.587630
    18  H    0.334317
    19  C   -0.309490
    20  H    0.203714
    21  H    0.153663
    22  H    0.159967
 Sum of Mulliken atomic charges =   0.00000

 Dipole moment (field-independent basis, Debye):
    X=              0.7968    Y=             -3.4672    Z=             -2.6045  Tot=              4.4091
 Quadrupole moment (field-independent basis, Debye-Ang):
   XX=            -66.2027   YY=            -57.4367   ZZ=            -60.6336
   XY=              4.7225   XZ=             -7.9473   YZ=              0.1770

 Normal termination of Gaussian 09 at Fri Feb 10 21:53:39 2017.
