 Gaussian 09, Revision A.02,
 Gaussian 09:  EM64L-G09RevA.02 11-Jun-2009

 ----------------------------------------------------------------------
 # b3lyp/6-31G* Opt=(ModRedundant, maxcycles=1000, calcfc) geom=nocrowd
 ----------------------------------------------------------------------

 ------------------
 Phi Psi fixed scan
 ------------------
 Symbolic Z-matrix:
 Charge =  0 Multiplicity = 1

 SCF Done:  E(RB3LYP) =  -495.833937366     A.U. after   15 cycles

  Exact polarizability:   0.000   0.000   0.000   0.000   0.000   0.000
 Approx polarizability: 118.082  11.183 103.158   7.168  13.254 115.413

 SCF Done:  E(RB3LYP) =  -495.837687424     A.U. after   12 cycles
 SCF Done:  E(RB3LYP) =  -495.841786586     A.U. after   12 cycles
 SCF Done:  E(RB3LYP) =  -495.842497410     A.U. after   13 cycles
 SCF Done:  E(RB3LYP) =  -495.819806964     A.U. after   14 cycles
 SCF Done:  E(RB3LYP) =  -495.842519196     A.U. after   14 cycles
 SCF Done:  E(RB3LYP) =  -495.842694262     A.U. after   12 cycles
 SCF Done:  E(RB3LYP) =  -495.819614850     A.U. after   14 cycles
 SCF Done:  E(RB3LYP) =  -495.842719143     A.U. after   13 cycles
 SCF Done:  E(RB3LYP) =  -495.842816862     A.U. after   12 cycles
 SCF Done:  E(RB3LYP) =  -495.842833210     A.U. after   10 cycles
 SCF Done:  E(RB3LYP) =  -495.842841483     A.U. after   10 cycles
 SCF Done:  E(RB3LYP) =  -495.842856709     A.U. after   11 cycles
 SCF Done:  E(RB3LYP) =  -495.842864711     A.U. after   10 cycles
 SCF Done:  E(RB3LYP) =  -495.842874338     A.U. after   11 cycles
 SCF Done:  E(RB3LYP) =  -495.842880966     A.U. after   10 cycles
 SCF Done:  E(RB3LYP) =  -495.842883814     A.U. after   10 cycles
 SCF Done:  E(RB3LYP) =  -495.842884526     A.U. after   10 cycles
 SCF Done:  E(RB3LYP) =  -495.842884602     A.U. after    7 cycles
 SCF Done:  E(RB3LYP) =  -495.842884689     A.U. after    7 cycles
 Optimization completed on the basis of negligible forces.
    -- Stationary point found.

                         Standard orientation:
 ---------------------------------------------------------------------
 Center     Atomic      Atomic             Coordinates (Angstroms)
 Number     Number       Type             X           Y           Z
 ---------------------------------------------------------------------
      1          1           0        3.898916   -1.152196   -0.993594
      2          6           0        3.077757   -1.463847   -0.341751
      3          1           0        3.522606   -1.880763    0.567609
      4          1           0        2.500539   -2.247221   -0.843292
      5          6           0        2.257421   -0.238096    0.033458
      6          8           0        2.766884    0.765480    0.516357
      7          7           0        0.912344   -0.330055   -0.207559
      8          1           0        0.526163   -1.199769   -0.545893
      9          6           0       -0.012624    0.727468    0.213531
     10          1           0        0.347657    1.107842    1.172143
     11          6           0       -0.050126    1.890189   -0.789948
     12          1           0       -0.315361    1.558927   -1.801772
     13          1           0       -0.766540    2.656399   -0.473157
     14          1           0        0.943834    2.342150   -0.839536
     15          6           0       -1.379681    0.085517    0.512663
     16          8           0       -1.757154   -0.128131    1.655767
     17          7           0       -2.103801   -0.277546   -0.593783
     18          1           0       -1.808982    0.074434   -1.493524
     19          6           0       -3.436271   -0.850903   -0.488854
     20          1           0       -3.545566   -1.248207    0.520864
     21          1           0       -4.218874   -0.099589   -0.655805
     22          1           0       -3.560887   -1.659556   -1.216234
 ---------------------------------------------------------------------

 The electronic state is 1-A.
 Alpha  occ. eigenvalues --  -19.11764 -19.10742 -14.37154 -14.36376 -10.29119
 Alpha  occ. eigenvalues --  -10.28702 -10.23500 -10.22530 -10.19329 -10.18904
 Alpha  occ. eigenvalues --   -1.03842  -1.02743  -0.93150  -0.91837  -0.78204
 Alpha  occ. eigenvalues --   -0.73061  -0.71274  -0.65196  -0.59043  -0.58575
 Alpha  occ. eigenvalues --   -0.53839  -0.49204  -0.47301  -0.45965  -0.44916
 Alpha  occ. eigenvalues --   -0.44466  -0.42627  -0.41830  -0.41085  -0.39959
 Alpha  occ. eigenvalues --   -0.39458  -0.38311  -0.37575  -0.36614  -0.34515
 Alpha  occ. eigenvalues --   -0.26918  -0.25965  -0.24838  -0.24284
 Alpha virt. eigenvalues --    0.01184   0.03408   0.06079   0.07831   0.11259
 Alpha virt. eigenvalues --    0.12580   0.13636   0.14931   0.15457   0.15812
 Alpha virt. eigenvalues --    0.16429   0.17572   0.18116   0.19060   0.19185

 Mulliken atomic charges:
              1
     1  H    0.185780
     2  C   -0.534960
     3  H    0.189280
     4  H    0.141590
     5  C    0.601627
     6  O   -0.509673
     7  N   -0.609893
     8  H    0.326173
     9  C   -0.011699
    10  H    0.197928
    11  C   -0.461944
    12  H    0.127734
    13  H    0.158504
    14  H    0.192651
    15  C    0.552905
    16  O   -0.499018
    17  N   -0.588017
    18  H    0.328534
    19  C   -0.310314
    20  H    0.204928
    21  H    0.162516
    22  H    0.155369
 Sum of Mulliken atomic charges =   0.00000

 Dipole moment (field-independent basis, Debye):
    X=             -2.0437    Y=             -2.0518    Z=             -4.5833  Tot=              5.4216
 Quadrupole moment (field-independent basis, Debye-Ang):
   XX=            -61.6982   YY=            -57.1616   ZZ=            -63.3377
   XY=             -6.0558   XZ=              3.8683   YZ=              0.2020

 Normal termination of Gaussian 09 at Fri Feb 10 21:53:30 2017.
