 Gaussian 09, Revision A.02,
 Gaussian 09:  EM64L-G09RevA.02 11-Jun-2009

 ----------------------------------------------------------------------
 # b3lyp/6-31G* Opt=(ModRedundant, maxcycles=1000, calcfc) geom=nocrowd
 ----------------------------------------------------------------------

 ------------------
 Phi Psi fixed scan
 ------------------
 Symbolic Z-matrix:
 Charge =  0 Multiplicity = 1

 SCF Done:  E(RB3LYP) =  -495.834415617     A.U. after   15 cycles

  Exact polarizability:   0.000   0.000   0.000   0.000   0.000   0.000
 Approx polarizability: 117.783  -7.916 117.247  -1.320  21.256 100.460

 SCF Done:  E(RB3LYP) =  -495.837673465     A.U. after   13 cycles
 SCF Done:  E(RB3LYP) =  -495.841723555     A.U. after   13 cycles
 SCF Done:  E(RB3LYP) =  -495.842258637     A.U. after   16 cycles
 SCF Done:  E(RB3LYP) =  -495.842869095     A.U. after   12 cycles
 SCF Done:  E(RB3LYP) =  -495.842866596     A.U. after   14 cycles
 SCF Done:  E(RB3LYP) =  -495.842896917     A.U. after   11 cycles
 SCF Done:  E(RB3LYP) =  -495.843076760     A.U. after   12 cycles
 SCF Done:  E(RB3LYP) =  -495.842813905     A.U. after   13 cycles
 SCF Done:  E(RB3LYP) =  -495.843095783     A.U. after   13 cycles
 SCF Done:  E(RB3LYP) =  -495.843175410     A.U. after   10 cycles
 SCF Done:  E(RB3LYP) =  -495.843210562     A.U. after   10 cycles
 SCF Done:  E(RB3LYP) =  -495.843258053     A.U. after   11 cycles
 SCF Done:  E(RB3LYP) =  -495.843312480     A.U. after   11 cycles
 SCF Done:  E(RB3LYP) =  -495.843348822     A.U. after   11 cycles
 SCF Done:  E(RB3LYP) =  -495.843362779     A.U. after   10 cycles
 SCF Done:  E(RB3LYP) =  -495.843369299     A.U. after   12 cycles
 SCF Done:  E(RB3LYP) =  -495.843370637     A.U. after   10 cycles
 SCF Done:  E(RB3LYP) =  -495.843370932     A.U. after    8 cycles
 SCF Done:  E(RB3LYP) =  -495.843370952     A.U. after    7 cycles
 Optimization completed.
    -- Stationary point found.

                         Standard orientation:
 ---------------------------------------------------------------------
 Center     Atomic      Atomic             Coordinates (Angstroms)
 Number     Number       Type             X           Y           Z
 ---------------------------------------------------------------------
      1          1           0        3.944798   -1.390519   -0.503022
      2          6           0        3.012863   -1.553754    0.044131
      3          1           0        3.279034   -1.844275    1.066630
      4          1           0        2.460802   -2.375696   -0.422747
      5          6           0        2.235621   -0.245815    0.086493
      6          8           0        2.769875    0.824381    0.342188
      7          7           0        0.892104   -0.348276   -0.196513
      8          1           0        0.485060   -1.273056   -0.138484
      9          6           0       -0.006685    0.779116    0.097839
     10          1           0        0.348393    1.280597    1.002435
     11          6           0       -0.024963    1.803874   -1.048460
     12          1           0       -0.360346    1.349605   -1.988100
     13          1           0       -0.694242    2.634994   -0.802041
     14          1           0        0.984817    2.195916   -1.192116
     15          6           0       -1.417055    0.271439    0.424508
     16          8           0       -2.055860    0.700024    1.373596
     17          7           0       -1.897838   -0.700605   -0.421616
     18          1           0       -1.430233   -0.818246   -1.311416
     19          6           0       -3.270664   -1.174640   -0.317100
     20          1           0       -3.556546   -1.153876    0.735186
     21          1           0       -3.971418   -0.540672   -0.876056
     22          1           0       -3.336801   -2.199156   -0.694105
 ---------------------------------------------------------------------

 The electronic state is 1-A.
 Alpha  occ. eigenvalues --  -19.12051 -19.11303 -14.37286 -14.36394 -10.29280
 Alpha  occ. eigenvalues --  -10.29011 -10.23466 -10.22655 -10.19574 -10.18478
 Alpha  occ. eigenvalues --   -1.04100  -1.03188  -0.93580  -0.91713  -0.78178
 Alpha  occ. eigenvalues --   -0.73133  -0.71498  -0.64701  -0.59064  -0.58067
 Alpha  occ. eigenvalues --   -0.54026  -0.49478  -0.47363  -0.45945  -0.45231
 Alpha  occ. eigenvalues --   -0.44341  -0.43059  -0.41731  -0.41061  -0.40102
 Alpha  occ. eigenvalues --   -0.39825  -0.38226  -0.37370  -0.36497  -0.34368
 Alpha  occ. eigenvalues --   -0.27240  -0.26610  -0.25053  -0.24632
 Alpha virt. eigenvalues --    0.01045   0.02699   0.06106   0.08445   0.11361
 Alpha virt. eigenvalues --    0.12482   0.13762   0.14456   0.15223   0.15434
 Alpha virt. eigenvalues --    0.16540   0.17482   0.18238   0.18492   0.19616

 Mulliken atomic charges:
              1
     1  H    0.189233
     2  C   -0.538795
     3  H    0.186368
     4  H    0.145562
     5  C    0.591239
     6  O   -0.499219
     7  N   -0.617432
     8  H    0.326121
     9  C   -0.026271
    10  H    0.192148
    11  C   -0.448024
    12  H    0.131728
    13  H    0.164057
    14  H    0.190813
    15  C    0.566524
    16  O   -0.501870
    17  N   -0.594643
    18  H    0.328456
    19  C   -0.305414
    20  H    0.200943
    21  H    0.163905
    22  H    0.154571
 Sum of Mulliken atomic charges =   0.00000

 Dipole moment (field-independent basis, Debye):
    X=             -1.3631    Y=             -3.9610    Z=             -3.1894  Tot=              5.2650
 Quadrupole moment (field-independent basis, Debye-Ang):
   XX=            -64.6694   YY=            -57.5262   ZZ=            -61.7956
   XY=             -2.3994   XZ=              5.1439   YZ=             -1.9487

 Normal termination of Gaussian 09 at Fri Feb 10 21:57:41 2017.
