 Gaussian 09, Revision A.02,
 Gaussian 09:  EM64L-G09RevA.02 11-Jun-2009

 ----------------------------------------------------------------------
 # b3lyp/6-31G* Opt=(ModRedundant, maxcycles=1000, calcfc) geom=nocrowd
 ----------------------------------------------------------------------

 ------------------
 Phi Psi fixed scan
 ------------------
 Symbolic Z-matrix:
 Charge =  0 Multiplicity = 1

 SCF Done:  E(RB3LYP) =  -990.475125973     A.U. after   14 cycles

  Exact polarizability:   0.000   0.000   0.000   0.000   0.000   0.000
 Approx polarizability: 243.894  -1.032 250.390   1.496 -23.438 172.654

 SCF Done:  E(RB3LYP) =  -990.485610275     A.U. after   12 cycles
 SCF Done:  E(RB3LYP) =  -990.496641634     A.U. after   13 cycles
 SCF Done:  E(RB3LYP) =  -990.499532501     A.U. after   13 cycles
 SCF Done:  E(RB3LYP) =  -990.502118265     A.U. after   15 cycles
 SCF Done:  E(RB3LYP) =  -990.504103167     A.U. after   13 cycles
 SCF Done:  E(RB3LYP) =  -990.501134295     A.U. after   15 cycles
 SCF Done:  E(RB3LYP) =  -990.504738781     A.U. after   13 cycles
 SCF Done:  E(RB3LYP) =  -990.505013698     A.U. after   12 cycles
 SCF Done:  E(RB3LYP) =  -990.504173072     A.U. after   13 cycles
 SCF Done:  E(RB3LYP) =  -990.505351916     A.U. after   10 cycles
 SCF Done:  E(RB3LYP) =  -990.505356594     A.U. after   10 cycles
 SCF Done:  E(RB3LYP) =  -990.505358956     A.U. after    8 cycles
 SCF Done:  E(RB3LYP) =  -990.505361727     A.U. after    9 cycles
 SCF Done:  E(RB3LYP) =  -990.505366171     A.U. after   10 cycles
 SCF Done:  E(RB3LYP) =  -990.505368466     A.U. after    9 cycles
 SCF Done:  E(RB3LYP) =  -990.505369383     A.U. after    8 cycles
 SCF Done:  E(RB3LYP) =  -990.505369521     A.U. after    7 cycles
 SCF Done:  E(RB3LYP) =  -990.505369581     A.U. after    7 cycles
 SCF Done:  E(RB3LYP) =  -990.505369605     A.U. after    7 cycles
 Optimization completed.
    -- Stationary point found.

                         Standard orientation:
 ---------------------------------------------------------------------
 Center     Atomic      Atomic             Coordinates (Angstroms)
 Number     Number       Type             X           Y           Z
 ---------------------------------------------------------------------
      1          1           0        7.606838   -0.584797    0.975622
      2          6           0        6.640078   -1.020112    1.247389
      3          1           0        6.677661   -1.253879    2.315988
      4          1           0        6.495999   -1.946779    0.683338
      5          6           0        5.550243    0.016203    1.009937
      6          8           0        5.559742    1.109480    1.570129
      7          7           0        4.576089   -0.349695    0.132438
      8          1           0        4.521268   -1.283454   -0.258528
      9          6           0        3.427760    0.491218   -0.143299
     10          1           0        3.087884    0.933490    0.802145
     11          6           0        3.770905    1.634897   -1.117872
     12          1           0        4.098905    1.230699   -2.081393
     13          1           0        2.907412    2.286710   -1.288779
     14          1           0        4.578324    2.231550   -0.686490
     15          6           0        2.327052   -0.430541   -0.708452
     16          8           0        2.589953   -1.576947   -1.071767
     17          7           0        1.111387    0.165083   -0.821923
     18          1           0        0.984907    1.060829   -0.353608
     19          6           0       -0.176050   -0.479445   -1.067772
     20          1           0       -0.392617   -0.474690   -2.146177
     21          6           0       -0.268634   -1.928351   -0.552262
     22          1           0       -0.138409   -1.959090    0.534764
     23          1           0       -1.245205   -2.359705   -0.794136
     24          1           0        0.509097   -2.538945   -1.008634
     25          6           0       -1.224328    0.423188   -0.368484
     26          8           0       -0.893920    1.453989    0.221727
     27          7           0       -2.508800    0.018389   -0.463641
     28          1           0       -2.776506   -0.859151   -0.897347
     29          6           0       -3.601865    0.730723    0.174772
     30          1           0       -3.274756    1.039411    1.175304
     31          6           0       -4.017078    1.984171   -0.619134
     32          1           0       -4.362211    1.705869   -1.620128
     33          1           0       -4.823123    2.526582   -0.112641
     34          1           0       -3.155963    2.650730   -0.709865
     35          6           0       -4.762551   -0.274405    0.288233
     36          8           0       -4.774114   -1.308083   -0.376924
     37          7           0       -5.754135    0.083742    1.143151
     38          1           0       -5.650285    0.940557    1.668403
     39          6           0       -6.951716   -0.715819    1.348122
     40          1           0       -6.856948   -1.612166    0.734506
     41          1           0       -7.049947   -1.008296    2.399319
     42          1           0       -7.850294   -0.165986    1.045775
 ---------------------------------------------------------------------

 The electronic state is 1-A.
 Alpha  occ. eigenvalues --  -19.13798 -19.13298 -19.11878 -19.09074 -14.38710
 Alpha  occ. eigenvalues --  -14.37205 -14.35764 -14.34083 -10.30955 -10.30264
 Alpha  occ. eigenvalues --  -10.28956 -10.27086 -10.25437 -10.24797 -10.23629
 Alpha  occ. eigenvalues --  -10.22690 -10.19941 -10.18613 -10.17875 -10.17456
 Alpha  occ. eigenvalues --   -1.05969  -1.05062  -1.03580  -1.01040  -0.94498
 Alpha  occ. eigenvalues --   -0.93937  -0.92543  -0.90592  -0.80223  -0.77677
 Alpha  occ. eigenvalues --   -0.75247  -0.72642  -0.71322  -0.67914  -0.66423
 Alpha  occ. eigenvalues --   -0.63612  -0.61304  -0.59562  -0.57200  -0.56318
 Alpha  occ. eigenvalues --   -0.56144  -0.52472  -0.49938  -0.49640  -0.48120
 Alpha  occ. eigenvalues --   -0.47277  -0.47220  -0.46353  -0.45087  -0.44527
 Alpha  occ. eigenvalues --   -0.44076  -0.43732  -0.43386  -0.42345  -0.41636
 Alpha  occ. eigenvalues --   -0.41175  -0.41052  -0.40236  -0.39891  -0.39042
 Alpha  occ. eigenvalues --   -0.38898  -0.38134  -0.38035  -0.37726  -0.37195
 Alpha  occ. eigenvalues --   -0.36528  -0.35888  -0.35540  -0.33067  -0.28315
 Alpha  occ. eigenvalues --   -0.27910  -0.27012  -0.26879  -0.25954  -0.25382
 Alpha  occ. eigenvalues --   -0.23557  -0.23063
 Alpha virt. eigenvalues --    0.00200   0.01339   0.02296   0.04580   0.05251
 Alpha virt. eigenvalues --    0.08146   0.10208   0.10538   0.10669   0.12322
 Alpha virt. eigenvalues --    0.12739   0.13119   0.13735   0.14355   0.14508

 Mulliken atomic charges:
              1
     1  H    0.180186
     2  C   -0.532714
     3  H    0.179499
     4  H    0.146740
     5  C    0.595160
     6  O   -0.525837
     7  N   -0.605157
     8  H    0.345634
     9  C   -0.033246
    10  H    0.173933
    11  C   -0.444741
    12  H    0.152302
    13  H    0.144296
    14  H    0.188106
    15  C    0.609469
    16  O   -0.539217
    17  N   -0.637614
    18  H    0.359919
    19  C   -0.013944
    20  H    0.172046
    21  C   -0.470538
    22  H    0.157524
    23  H    0.145366
    24  H    0.210910
    25  C    0.612041
    26  O   -0.542486
    27  N   -0.623650
    28  H    0.361252
    29  C   -0.034684
    30  H    0.173425
    31  C   -0.445449
    32  H    0.163053
    33  H    0.140107
    34  H    0.191569
    35  C    0.607996
    36  O   -0.529125
    37  N   -0.592663
    38  H    0.333638
    39  C   -0.315043
    40  H    0.209560
    41  H    0.166394
    42  H    0.165981
 Sum of Mulliken atomic charges =   0.00000

 Dipole moment (field-independent basis, Debye):
    X=             -7.3007    Y=             -0.1073    Z=              0.3522  Tot=              7.3100
 Quadrupole moment (field-independent basis, Debye-Ang):
   XX=           -101.2802   YY=           -125.2441   ZZ=           -118.8739
   XY=            -18.6121   XZ=            -18.8435   YZ=             -6.8070

 Normal termination of Gaussian 09 at Thu Dec 29 07:13:07 2016.
