 Gaussian 09, Revision A.02,
 Gaussian 09:  EM64L-G09RevA.02 11-Jun-2009

 ----------------------------------------------------------------------
 # b3lyp/6-31G* Opt=(ModRedundant, maxcycles=1000, calcfc) geom=nocrowd
 ----------------------------------------------------------------------

 ------------------
 Phi Psi fixed scan
 ------------------
 Symbolic Z-matrix:
 Charge =  0 Multiplicity = 1

 SCF Done:  E(RB3LYP) =  -990.467041373     A.U. after   15 cycles

  Exact polarizability:   0.000   0.000   0.000   0.000   0.000   0.000
 Approx polarizability: 241.817  -9.097 241.898  14.497   7.279 184.435

 SCF Done:  E(RB3LYP) =  -990.477907567     A.U. after   12 cycles
 SCF Done:  E(RB3LYP) =  -990.489187756     A.U. after   15 cycles
 SCF Done:  E(RB3LYP) =  -990.492078404     A.U. after   13 cycles
 SCF Done:  E(RB3LYP) =  -990.494468522     A.U. after   12 cycles
 SCF Done:  E(RB3LYP) =  -990.496161118     A.U. after   14 cycles
 SCF Done:  E(RB3LYP) =  -990.490616587     A.U. after   15 cycles
 SCF Done:  E(RB3LYP) =  -990.496727118     A.U. after   15 cycles
 SCF Done:  E(RB3LYP) =  -990.497038862     A.U. after   12 cycles
 SCF Done:  E(RB3LYP) =  -990.493998776     A.U. after   13 cycles
 SCF Done:  E(RB3LYP) =  -990.497465858     A.U. after    9 cycles
 SCF Done:  E(RB3LYP) =  -990.497466157     A.U. after    7 cycles
 SCF Done:  E(RB3LYP) =  -990.497466460     A.U. after    7 cycles
 SCF Done:  E(RB3LYP) =  -990.497466642     A.U. after    7 cycles
 SCF Done:  E(RB3LYP) =  -990.497466820     A.U. after    7 cycles
 SCF Done:  E(RB3LYP) =  -990.497467093     A.U. after    7 cycles
 SCF Done:  E(RB3LYP) =  -990.497467374     A.U. after    8 cycles
 SCF Done:  E(RB3LYP) =  -990.497467494     A.U. after    7 cycles
 SCF Done:  E(RB3LYP) =  -990.497467573     A.U. after    6 cycles
 SCF Done:  E(RB3LYP) =  -990.497467628     A.U. after    6 cycles
 Optimization completed.
    -- Stationary point found.

                         Standard orientation:
 ---------------------------------------------------------------------
 Center     Atomic      Atomic             Coordinates (Angstroms)
 Number     Number       Type             X           Y           Z
 ---------------------------------------------------------------------
      1          1           0       -6.713193   -0.723845    1.685327
      2          6           0       -6.433359   -0.802715    0.630247
      3          1           0       -6.645399    0.148120    0.131840
      4          1           0       -7.057466   -1.584380    0.185763
      5          6           0       -4.974973   -1.227985    0.541180
      6          8           0       -4.564399   -2.261323    1.063432
      7          7           0       -4.161228   -0.391489   -0.160959
      8          1           0       -4.480156    0.499345   -0.524555
      9          6           0       -2.735353   -0.622731   -0.273810
     10          1           0       -2.367765   -0.974159    0.698954
     11          6           0       -2.406683   -1.691665   -1.334960
     12          1           0       -2.749034   -1.366902   -2.323010
     13          1           0       -1.329973   -1.889120   -1.388175
     14          1           0       -2.916493   -2.620107   -1.066580
     15          6           0       -2.089172    0.735057   -0.621068
     16          8           0       -2.769368    1.670525   -1.033244
     17          7           0       -0.733829    0.752582   -0.484373
     18          1           0       -0.319841   -0.076119   -0.077091
     19          6           0        0.170816    1.918379   -0.581053
     20          1           0        0.544095    1.983268   -1.614713
     21          6           0       -0.464759    3.252895   -0.194031
     22          1           0       -0.839687    3.216316    0.831912
     23          1           0        0.303349    4.029958   -0.239758
     24          1           0       -1.285189    3.500364   -0.865233
     25          6           0        1.374504    1.621365    0.347211
     26          8           0        1.656896    2.311135    1.317392
     27          7           0        2.072884    0.495294    0.012779
     28          1           0        1.983314    0.065168   -0.905049
     29          6           0        3.282934    0.111528    0.721402
     30          1           0        3.838796    1.023407    0.977109
     31          6           0        2.964962   -0.647808    2.022476
     32          1           0        2.427305   -1.576579    1.805193
     33          1           0        3.876773   -0.897724    2.576360
     34          1           0        2.342129   -0.014842    2.659697
     35          6           0        4.111950   -0.738556   -0.260142
     36          8           0        3.635864   -1.128010   -1.324926
     37          7           0        5.375142   -1.022799    0.146592
     38          1           0        5.695026   -0.641287    1.025600
     39          6           0        6.296274   -1.833066   -0.634802
     40          1           0        5.774299   -2.141817   -1.540886
     41          1           0        7.186793   -1.257737   -0.911785
     42          1           0        6.606754   -2.723248   -0.076318
 ---------------------------------------------------------------------

 The electronic state is 1-A.
 Alpha  occ. eigenvalues --  -19.13820 -19.12783 -19.12441 -19.09573 -14.38654
 Alpha  occ. eigenvalues --  -14.37239 -14.36935 -14.34643 -10.30949 -10.29829
 Alpha  occ. eigenvalues --  -10.29625 -10.27577 -10.25255 -10.24627 -10.23594
 Alpha  occ. eigenvalues --  -10.23397 -10.19996 -10.18232 -10.18194 -10.17101
 Alpha  occ. eigenvalues --   -1.05892  -1.04688  -1.04184  -1.01562  -0.94475
 Alpha  occ. eigenvalues --   -0.94147  -0.92710  -0.91148  -0.79860  -0.77932
 Alpha  occ. eigenvalues --   -0.75562  -0.72610  -0.71778  -0.68228  -0.65781
 Alpha  occ. eigenvalues --   -0.63614  -0.60916  -0.59045  -0.57995  -0.57092
 Alpha  occ. eigenvalues --   -0.56097  -0.52782  -0.50492  -0.49330  -0.48457
 Alpha  occ. eigenvalues --   -0.47773  -0.47265  -0.46841  -0.45234  -0.44810
 Alpha  occ. eigenvalues --   -0.44360  -0.43598  -0.42914  -0.41840  -0.41745
 Alpha  occ. eigenvalues --   -0.41253  -0.40936  -0.40680  -0.39593  -0.38795
 Alpha  occ. eigenvalues --   -0.38698  -0.38505  -0.37897  -0.37308  -0.37115
 Alpha  occ. eigenvalues --   -0.36659  -0.36427  -0.35691  -0.33599  -0.28242
 Alpha  occ. eigenvalues --   -0.28008  -0.27502  -0.26697  -0.25986  -0.25375
 Alpha  occ. eigenvalues --   -0.24092  -0.23558
 Alpha virt. eigenvalues --    0.00046   0.00831   0.02231   0.04090   0.05152
 Alpha virt. eigenvalues --    0.06963   0.09865   0.10387   0.10593   0.11862
 Alpha virt. eigenvalues --    0.12734   0.12979   0.13766   0.14301   0.14761

 Mulliken atomic charges:
              1
     1  H    0.181562
     2  C   -0.532897
     3  H    0.148281
     4  H    0.181321
     5  C    0.596131
     6  O   -0.525954
     7  N   -0.604884
     8  H    0.346967
     9  C   -0.035008
    10  H    0.169013
    11  C   -0.444463
    12  H    0.157196
    13  H    0.136847
    14  H    0.190480
    15  C    0.620091
    16  O   -0.528912
    17  N   -0.641143
    18  H    0.338512
    19  C   -0.005086
    20  H    0.161948
    21  C   -0.440722
    22  H    0.163460
    23  H    0.153576
    24  H    0.185797
    25  C    0.573410
    26  O   -0.507204
    27  N   -0.626050
    28  H    0.356628
    29  C   -0.035891
    30  H    0.176179
    31  C   -0.445955
    32  H    0.160607
    33  H    0.138773
    34  H    0.191350
    35  C    0.606751
    36  O   -0.529488
    37  N   -0.592021
    38  H    0.333920
    39  C   -0.314914
    40  H    0.209543
    41  H    0.166297
    42  H    0.165949
 Sum of Mulliken atomic charges =   0.00000

 Dipole moment (field-independent basis, Debye):
    X=              6.0350    Y=             -0.5805    Z=             -0.1023  Tot=              6.0637
 Quadrupole moment (field-independent basis, Debye-Ang):
   XX=            -87.8377   YY=           -133.3288   ZZ=           -123.8662
   XY=            -13.6740   XZ=              9.4664   YZ=             -1.1099

 Normal termination of Gaussian 09 at Thu Dec 29 11:55:50 2016.
