 Gaussian 09, Revision A.02,
 Gaussian 09:  EM64L-G09RevA.02 11-Jun-2009

 ----------------------------------------------------------------------
 # b3lyp/6-31G* Opt=(ModRedundant, maxcycles=1000, calcfc) geom=nocrowd
 ----------------------------------------------------------------------

 ------------------
 Phi Psi fixed scan
 ------------------
 Symbolic Z-matrix:
 Charge =  0 Multiplicity = 1

 SCF Done:  E(RB3LYP) =  -990.468626918     A.U. after   14 cycles

  Exact polarizability:   0.000   0.000   0.000   0.000   0.000   0.000
 Approx polarizability: 241.143 -13.698 222.676  12.177   1.331 204.926

 SCF Done:  E(RB3LYP) =  -990.479367178     A.U. after   12 cycles
 SCF Done:  E(RB3LYP) =  -990.489747141     A.U. after   13 cycles
 SCF Done:  E(RB3LYP) =  -990.492429266     A.U. after   13 cycles
 SCF Done:  E(RB3LYP) =  -990.494818030     A.U. after   12 cycles
 SCF Done:  E(RB3LYP) =  -990.496218148     A.U. after   13 cycles
 SCF Done:  E(RB3LYP) =  -990.478760014     A.U. after   15 cycles
 SCF Done:  E(RB3LYP) =  -990.496657227     A.U. after   15 cycles
 SCF Done:  E(RB3LYP) =  -990.497089683     A.U. after   12 cycles
 SCF Done:  E(RB3LYP) =  -990.497165982     A.U. after   11 cycles
 SCF Done:  E(RB3LYP) =  -990.497285723     A.U. after   10 cycles
 SCF Done:  E(RB3LYP) =  -990.497285992     A.U. after    8 cycles
 SCF Done:  E(RB3LYP) =  -990.497286095     A.U. after    7 cycles
 SCF Done:  E(RB3LYP) =  -990.497286167     A.U. after    7 cycles
 SCF Done:  E(RB3LYP) =  -990.497286177     A.U. after    5 cycles
 SCF Done:  E(RB3LYP) =  -990.497286183     A.U. after    5 cycles
 SCF Done:  E(RB3LYP) =  -990.497286195     A.U. after    6 cycles
 SCF Done:  E(RB3LYP) =  -990.497286215     A.U. after    6 cycles
 SCF Done:  E(RB3LYP) =  -990.497286226     A.U. after    7 cycles
 SCF Done:  E(RB3LYP) =  -990.497286229     A.U. after    6 cycles
 Optimization completed.
    -- Stationary point found.

                         Standard orientation:
 ---------------------------------------------------------------------
 Center     Atomic      Atomic             Coordinates (Angstroms)
 Number     Number       Type             X           Y           Z
 ---------------------------------------------------------------------
      1          1           0       -7.018676   -0.278988    1.503435
      2          6           0       -6.732343   -0.369894    0.450745
      3          1           0       -6.817461    0.610494   -0.027751
      4          1           0       -7.438875   -1.060055   -0.020283
      5          6           0       -5.335029   -0.967763    0.372091
      6          8           0       -5.074900   -2.079985    0.823916
      7          7           0       -4.397504   -0.187872   -0.234563
      8          1           0       -4.591603    0.761004   -0.533849
      9          6           0       -3.005014   -0.580293   -0.313215
     10          1           0       -2.722797   -1.039794    0.642800
     11          6           0       -2.759405   -1.604026   -1.439517
     12          1           0       -3.017076   -1.171403   -2.411824
     13          1           0       -1.712780   -1.928280   -1.470170
     14          1           0       -3.387676   -2.479615   -1.259214
     15          6           0       -2.189900    0.711623   -0.534034
     16          8           0       -2.738107    1.750532   -0.892229
     17          7           0       -0.849408    0.558305   -0.350598
     18          1           0       -0.550628   -0.352481   -0.027636
     19          6           0        0.194946    1.602006   -0.358892
     20          1           0        0.600980    1.680924   -1.377856
     21          6           0       -0.280134    2.980294    0.105327
     22          1           0       -0.631916    2.923508    1.137999
     23          1           0        0.569335    3.671225    0.073971
     24          1           0       -1.079262    3.355253   -0.531192
     25          6           0        1.303559    1.101100    0.597129
     26          8           0        1.282534    1.320653    1.802912
     27          7           0        2.266456    0.351111   -0.002686
     28          1           0        2.340634    0.272048   -1.012610
     29          6           0        3.407739   -0.171752    0.727630
     30          1           0        3.747726    0.598324    1.432188
     31          6           0        3.047703   -1.439939    1.524806
     32          1           0        2.719094   -2.236954    0.849724
     33          1           0        3.903853   -1.806782    2.101765
     34          1           0        2.240320   -1.202960    2.222242
     35          6           0        4.505579   -0.446916   -0.316022
     36          8           0        4.248426   -0.475981   -1.517740
     37          7           0        5.743512   -0.670676    0.194520
     38          1           0        5.872638   -0.595773    1.193742
     39          6           0        6.897886   -0.982991   -0.633240
     40          1           0        6.557225   -1.026880   -1.668079
     41          1           0        7.668324   -0.209001   -0.541932
     42          1           0        7.330070   -1.950334   -0.353901
 ---------------------------------------------------------------------

 The electronic state is 1-A.
 Alpha  occ. eigenvalues --  -19.13713 -19.12414 -19.12348 -19.09529 -14.38605
 Alpha  occ. eigenvalues --  -14.37291 -14.37000 -14.34591 -10.30868 -10.29607
 Alpha  occ. eigenvalues --  -10.29558 -10.27526 -10.25225 -10.24597 -10.23562
 Alpha  occ. eigenvalues --  -10.23365 -10.19945 -10.18238 -10.18183 -10.17275
 Alpha  occ. eigenvalues --   -1.05777  -1.04526  -1.04012  -1.01514  -0.94392
 Alpha  occ. eigenvalues --   -0.93758  -0.93023  -0.91108  -0.79913  -0.77930
 Alpha  occ. eigenvalues --   -0.75561  -0.72583  -0.71748  -0.68130  -0.65969
 Alpha  occ. eigenvalues --   -0.63619  -0.60944  -0.59024  -0.58051  -0.57031
 Alpha  occ. eigenvalues --   -0.56097  -0.52622  -0.50445  -0.49382  -0.48321
 Alpha  occ. eigenvalues --   -0.47763  -0.47250  -0.46582  -0.45150  -0.44942
 Alpha  occ. eigenvalues --   -0.44357  -0.43563  -0.42877  -0.41855  -0.41721
 Alpha  occ. eigenvalues --   -0.41174  -0.41034  -0.40720  -0.39170  -0.38865
 Alpha  occ. eigenvalues --   -0.38698  -0.38467  -0.37882  -0.37482  -0.37243
 Alpha  occ. eigenvalues --   -0.36644  -0.36309  -0.35692  -0.33563  -0.27995
 Alpha  occ. eigenvalues --   -0.27927  -0.27275  -0.26500  -0.25933  -0.25316
 Alpha  occ. eigenvalues --   -0.24057  -0.23510
 Alpha virt. eigenvalues --    0.00169   0.00996   0.02236   0.04132   0.05201
 Alpha virt. eigenvalues --    0.06944   0.08914   0.10238   0.10649   0.12294
 Alpha virt. eigenvalues --    0.12801   0.13509   0.13679   0.14302   0.14741

 Mulliken atomic charges:
              1
     1  H    0.181713
     2  C   -0.533056
     3  H    0.148230
     4  H    0.181174
     5  C    0.596346
     6  O   -0.525656
     7  N   -0.604891
     8  H    0.347153
     9  C   -0.035684
    10  H    0.171781
    11  C   -0.444642
    12  H    0.157221
    13  H    0.133826
    14  H    0.191302
    15  C    0.621301
    16  O   -0.529939
    17  N   -0.629493
    18  H    0.338174
    19  C    0.008812
    20  H    0.149791
    21  C   -0.453306
    22  H    0.176385
    23  H    0.143554
    24  H    0.190939
    25  C    0.561322
    26  O   -0.514147
    27  N   -0.614502
    28  H    0.355809
    29  C   -0.033250
    30  H    0.174363
    31  C   -0.447365
    32  H    0.160115
    33  H    0.140637
    34  H    0.190904
    35  C    0.606581
    36  O   -0.528724
    37  N   -0.592410
    38  H    0.333472
    39  C   -0.314711
    40  H    0.209250
    41  H    0.166363
    42  H    0.165260
 Sum of Mulliken atomic charges =   0.00000

 Dipole moment (field-independent basis, Debye):
    X=              6.4742    Y=             -0.3662    Z=             -0.2013  Tot=              6.4877
 Quadrupole moment (field-independent basis, Debye-Ang):
   XX=            -89.6867   YY=           -128.0691   ZZ=           -126.4316
   XY=            -14.0388   XZ=             12.7555   YZ=             -0.2783

 Normal termination of Gaussian 09 at Thu Dec 29 08:43:10 2016.
