 Gaussian 09, Revision A.02,
 Gaussian 09:  EM64L-G09RevA.02 11-Jun-2009

 ----------------------------------------------------------------------
 # b3lyp/6-31G* Opt=(ModRedundant, maxcycles=1000, calcfc) geom=nocrowd
 ----------------------------------------------------------------------

 ------------------
 Phi Psi fixed scan
 ------------------
 Symbolic Z-matrix:
 Charge =  0 Multiplicity = 1

 SCF Done:  E(RB3LYP) =  -990.474200897     A.U. after   14 cycles

  Exact polarizability:   0.000   0.000   0.000   0.000   0.000   0.000
 Approx polarizability: 244.321   4.270 237.044  -3.452  22.341 185.944

 SCF Done:  E(RB3LYP) =  -990.484463601     A.U. after   12 cycles
 SCF Done:  E(RB3LYP) =  -990.495035477     A.U. after   15 cycles
 SCF Done:  E(RB3LYP) =  -990.497061022     A.U. after   13 cycles
 SCF Done:  E(RB3LYP) =  -990.500127395     A.U. after   12 cycles
 SCF Done:  E(RB3LYP) =  -990.502311687     A.U. after   12 cycles
 SCF Done:  E(RB3LYP) =  -990.500045337     A.U. after   15 cycles
 SCF Done:  E(RB3LYP) =  -990.503458142     A.U. after   13 cycles
 SCF Done:  E(RB3LYP) =  -990.503937758     A.U. after   12 cycles
 SCF Done:  E(RB3LYP) =  -990.503543205     A.U. after   13 cycles
 SCF Done:  E(RB3LYP) =  -990.504345260     A.U. after    8 cycles
 SCF Done:  E(RB3LYP) =  -990.504345910     A.U. after    8 cycles
 SCF Done:  E(RB3LYP) =  -990.504347459     A.U. after    9 cycles
 SCF Done:  E(RB3LYP) =  -990.504351320     A.U. after    9 cycles
 SCF Done:  E(RB3LYP) =  -990.504361991     A.U. after   10 cycles
 SCF Done:  E(RB3LYP) =  -990.504378261     A.U. after   10 cycles
 SCF Done:  E(RB3LYP) =  -990.504392351     A.U. after   10 cycles
 SCF Done:  E(RB3LYP) =  -990.504394359     A.U. after    9 cycles
 SCF Done:  E(RB3LYP) =  -990.504394453     A.U. after    7 cycles
 SCF Done:  E(RB3LYP) =  -990.504394415     A.U. after    6 cycles
 Optimization completed.
    -- Stationary point found.

                         Standard orientation:
 ---------------------------------------------------------------------
 Center     Atomic      Atomic             Coordinates (Angstroms)
 Number     Number       Type             X           Y           Z
 ---------------------------------------------------------------------
      1          1           0       -7.023058   -0.713940   -2.020898
      2          6           0       -6.850845   -0.680149   -0.940543
      3          1           0       -6.690360   -1.697964   -0.571907
      4          1           0       -7.756270   -0.273317   -0.479441
      5          6           0       -5.689361    0.262706   -0.658482
      6          8           0       -5.707930    1.440228   -1.007537
      7          7           0       -4.638639   -0.286646    0.011097
      8          1           0       -4.586572   -1.277992    0.216183
      9          6           0       -3.424424    0.456349    0.285398
     10          1           0       -3.174267    1.050502   -0.603604
     11          6           0       -3.592288    1.417766    1.478526
     12          1           0       -3.825777    0.858527    2.390629
     13          1           0       -2.682209    2.001921    1.651424
     14          1           0       -4.413077    2.104955    1.259656
     15          6           0       -2.313815   -0.581969    0.539208
     16          8           0       -2.582347   -1.769472    0.709657
     17          7           0       -1.060430   -0.051496    0.639469
     18          1           0       -0.957019    0.878165    0.237987
     19          6           0        0.189847   -0.806851    0.523325
     20          1           0        0.510901   -1.137125    1.519516
     21          6           0        0.123555   -2.030453   -0.414250
     22          1           0       -0.154996   -1.714678   -1.425200
     23          1           0        1.107074   -2.510584   -0.459554
     24          1           0       -0.613042   -2.747926   -0.054788
     25          6           0        1.223126    0.180200   -0.053568
     26          8           0        0.883265    1.107446   -0.789438
     27          7           0        2.503888   -0.037335    0.320081
     28          1           0        2.774187   -0.837480    0.884588
     29          6           0        3.617397    0.712734   -0.235048
     30          1           0        3.432328    0.866120   -1.305644
     31          6           0        3.773624    2.088288    0.440977
     32          1           0        3.972862    1.968311    1.510700
     33          1           0        4.595920    2.659920   -0.003573
     34          1           0        2.848762    2.655408    0.310916
     35          6           0        4.870778   -0.160493   -0.041204
     36          8           0        4.863014   -1.122979    0.723242
     37          7           0        5.960912    0.230844   -0.749343
     38          1           0        5.870498    1.017981   -1.376247
     39          6           0        7.246753   -0.443274   -0.661757
     40          1           0        7.147574   -1.244304    0.071265
     41          1           0        7.531714   -0.874493   -1.628083
     42          1           0        8.030619    0.249511   -0.335951
 ---------------------------------------------------------------------

 The electronic state is 1-A.
 Alpha  occ. eigenvalues --  -19.13784 -19.13029 -19.12269 -19.09197 -14.38679
 Alpha  occ. eigenvalues --  -14.37213 -14.35995 -14.34228 -10.30942 -10.30050
 Alpha  occ. eigenvalues --  -10.29127 -10.27204 -10.25400 -10.24552 -10.23615
 Alpha  occ. eigenvalues --  -10.22882 -10.19907 -10.18434 -10.17959 -10.17586
 Alpha  occ. eigenvalues --   -1.05911  -1.04911  -1.03890  -1.01177  -0.94469
 Alpha  occ. eigenvalues --   -0.93844  -0.92686  -0.90741  -0.80141  -0.77733
 Alpha  occ. eigenvalues --   -0.75346  -0.72616  -0.71426  -0.67921  -0.66172
 Alpha  occ. eigenvalues --   -0.63612  -0.61208  -0.59370  -0.57380  -0.56494
 Alpha  occ. eigenvalues --   -0.56124  -0.52386  -0.50007  -0.49528  -0.47925
 Alpha  occ. eigenvalues --   -0.47380  -0.47248  -0.46259  -0.45188  -0.44663
 Alpha  occ. eigenvalues --   -0.44089  -0.43540  -0.43305  -0.42442  -0.41907
 Alpha  occ. eigenvalues --   -0.41168  -0.41092  -0.40412  -0.39444  -0.39068
 Alpha  occ. eigenvalues --   -0.38805  -0.38152  -0.37942  -0.37861  -0.37291
 Alpha  occ. eigenvalues --   -0.36350  -0.36033  -0.35675  -0.33181  -0.28128
 Alpha  occ. eigenvalues --   -0.27912  -0.27021  -0.26681  -0.26423  -0.25526
 Alpha  occ. eigenvalues --   -0.23721  -0.23188
 Alpha virt. eigenvalues --    0.00216   0.01353   0.01829   0.04430   0.05256
 Alpha virt. eigenvalues --    0.08400   0.09469   0.10447   0.10644   0.12348
 Alpha virt. eigenvalues --    0.12895   0.13317   0.14140   0.14296   0.14355

 Mulliken atomic charges:
              1
     1  H    0.180238
     2  C   -0.532918
     3  H    0.146906
     4  H    0.180576
     5  C    0.595567
     6  O   -0.524983
     7  N   -0.605326
     8  H    0.345643
     9  C   -0.035323
    10  H    0.175687
    11  C   -0.442991
    12  H    0.152825
    13  H    0.143403
    14  H    0.188667
    15  C    0.605323
    16  O   -0.532542
    17  N   -0.630397
    18  H    0.351822
    19  C    0.001252
    20  H    0.159723
    21  C   -0.465125
    22  H    0.161322
    23  H    0.146024
    24  H    0.206562
    25  C    0.589967
    26  O   -0.539310
    27  N   -0.611583
    28  H    0.357154
    29  C   -0.038978
    30  H    0.173515
    31  C   -0.443845
    32  H    0.163488
    33  H    0.139186
    34  H    0.191429
    35  C    0.607431
    36  O   -0.528248
    37  N   -0.592345
    38  H    0.333503
    39  C   -0.314734
    40  H    0.209435
    41  H    0.166675
    42  H    0.165326
 Sum of Mulliken atomic charges =   0.00000

 Dipole moment (field-independent basis, Debye):
    X=              7.3091    Y=             -0.1796    Z=             -0.4464  Tot=              7.3249
 Quadrupole moment (field-independent basis, Debye-Ang):
   XX=            -98.3384   YY=           -125.8405   ZZ=           -119.7122
   XY=             20.7898   XZ=            -15.5702   YZ=              6.5351

 Normal termination of Gaussian 09 at Thu Dec 29 07:04:04 2016.
