 Gaussian 09, Revision A.02,
 Gaussian 09:  EM64L-G09RevA.02 11-Jun-2009

 ----------------------------------------------------------------------
 # b3lyp/6-31G* Opt=(ModRedundant, maxcycles=1000, calcfc) geom=nocrowd
 ----------------------------------------------------------------------

 ------------------
 Phi Psi fixed scan
 ------------------
 Symbolic Z-matrix:
 Charge =  0 Multiplicity = 1

 SCF Done:  E(RB3LYP) =  -990.471493417     A.U. after   14 cycles

  Exact polarizability:   0.000   0.000   0.000   0.000   0.000   0.000
 Approx polarizability: 243.233 -13.120 212.601   2.252 -15.207 212.671

 SCF Done:  E(RB3LYP) =  -990.481604271     A.U. after   13 cycles
 SCF Done:  E(RB3LYP) =  -990.491863183     A.U. after   15 cycles
 SCF Done:  E(RB3LYP) =  -990.493908612     A.U. after   13 cycles
 SCF Done:  E(RB3LYP) =  -990.496647285     A.U. after   12 cycles
 SCF Done:  E(RB3LYP) =  -990.498365786     A.U. after   14 cycles
 SCF Done:  E(RB3LYP) =  -990.494363631     A.U. after   15 cycles
 SCF Done:  E(RB3LYP) =  -990.499122372     A.U. after   13 cycles
 SCF Done:  E(RB3LYP) =  -990.499586748     A.U. after   12 cycles
 SCF Done:  E(RB3LYP) =  -990.495006133     A.U. after   13 cycles
 SCF Done:  E(RB3LYP) =  -990.500204590     A.U. after    9 cycles
 SCF Done:  E(RB3LYP) =  -990.500205685     A.U. after    9 cycles
 SCF Done:  E(RB3LYP) =  -990.500206277     A.U. after    7 cycles
 SCF Done:  E(RB3LYP) =  -990.500206620     A.U. after    7 cycles
 SCF Done:  E(RB3LYP) =  -990.500206920     A.U. after    7 cycles
 SCF Done:  E(RB3LYP) =  -990.500207333     A.U. after    8 cycles
 SCF Done:  E(RB3LYP) =  -990.500207901     A.U. after    9 cycles
 SCF Done:  E(RB3LYP) =  -990.500208278     A.U. after    9 cycles
 SCF Done:  E(RB3LYP) =  -990.500208408     A.U. after    7 cycles
 SCF Done:  E(RB3LYP) =  -990.500208464     A.U. after    6 cycles
 Optimization completed.
    -- Stationary point found.

                         Standard orientation:
 ---------------------------------------------------------------------
 Center     Atomic      Atomic             Coordinates (Angstroms)
 Number     Number       Type             X           Y           Z
 ---------------------------------------------------------------------
      1          1           0        7.742726   -0.192580    0.035806
      2          6           0        6.925930    0.295479   -0.504667
      3          1           0        7.194069    0.298492   -1.566012
      4          1           0        6.835250    1.329063   -0.156734
      5          6           0        5.656861   -0.524672   -0.321552
      6          8           0        5.598991   -1.712428   -0.628583
      7          7           0        4.597008    0.146490    0.209352
      8          1           0        4.616985    1.147294    0.369088
      9          6           0        3.293869   -0.469773    0.360258
     10          1           0        3.095447   -1.079762   -0.531147
     11          6           0        3.228084   -1.384444    1.599079
     12          1           0        3.407682   -0.805982    2.511259
     13          1           0        2.251857   -1.873775    1.684491
     14          1           0        3.998023   -2.154030    1.505394
     15          6           0        2.264549    0.675170    0.439735
     16          8           0        2.620142    1.839883    0.597233
     17          7           0        0.959831    0.265574    0.411272
     18          1           0        0.837347   -0.674451    0.049864
     19          6           0       -0.190904    1.137972    0.108801
     20          1           0       -0.572434    1.551169    1.050793
     21          6           0        0.107788    2.289001   -0.866733
     22          1           0        0.446915    1.882565   -1.823980
     23          1           0       -0.812350    2.859054   -1.039511
     24          1           0        0.871279    2.953134   -0.463914
     25          6           0       -1.246841    0.228882   -0.546661
     26          8           0       -0.985822   -0.414376   -1.562098
     27          7           0       -2.434628    0.148985    0.097929
     28          1           0       -2.651508    0.723666    0.906469
     29          6           0       -3.562160   -0.594064   -0.437590
     30          1           0       -3.598334   -0.432060   -1.522299
     31          6           0       -3.430732   -2.105781   -0.169937
     32          1           0       -3.402397   -2.302716    0.906605
     33          1           0       -4.270295   -2.661315   -0.602382
     34          1           0       -2.505994   -2.468287   -0.625472
     35          6           0       -4.824004   -0.010464    0.223470
     36          8           0       -4.747527    0.697097    1.225493
     37          7           0       -5.996759   -0.358068   -0.366031
     38          1           0       -5.965694   -0.919480   -1.205401
     39          6           0       -7.293581    0.061595    0.141256
     40          1           0       -7.118780    0.641167    1.048120
     41          1           0       -7.817788    0.688143   -0.589233
     42          1           0       -7.919604   -0.805006    0.381443
 ---------------------------------------------------------------------

 The electronic state is 1-A.
 Alpha  occ. eigenvalues --  -19.13693 -19.12595 -19.12490 -19.09399 -14.38604
 Alpha  occ. eigenvalues --  -14.37141 -14.36637 -14.34442 -10.30857 -10.29727
 Alpha  occ. eigenvalues --  -10.29433 -10.27393 -10.25277 -10.24468 -10.23556
 Alpha  occ. eigenvalues --  -10.23183 -10.19866 -10.18092 -10.17905 -10.17889
 Alpha  occ. eigenvalues --   -1.05782  -1.04674  -1.04075  -1.01388  -0.94386
 Alpha  occ. eigenvalues --   -0.93590  -0.92987  -0.90968  -0.79946  -0.77838
 Alpha  occ. eigenvalues --   -0.75458  -0.72566  -0.71607  -0.67954  -0.66000
 Alpha  occ. eigenvalues --   -0.63626  -0.61037  -0.59180  -0.57725  -0.56799
 Alpha  occ. eigenvalues --   -0.56093  -0.52476  -0.50017  -0.49393  -0.47898
 Alpha  occ. eigenvalues --   -0.47592  -0.47228  -0.46327  -0.45200  -0.44943
 Alpha  occ. eigenvalues --   -0.44104  -0.43486  -0.42959  -0.42313  -0.41946
 Alpha  occ. eigenvalues --   -0.41122  -0.41047  -0.40634  -0.39212  -0.39096
 Alpha  occ. eigenvalues --   -0.38705  -0.38328  -0.37887  -0.37675  -0.37350
 Alpha  occ. eigenvalues --   -0.36349  -0.36038  -0.35894  -0.33387  -0.27993
 Alpha  occ. eigenvalues --   -0.27816  -0.26994  -0.26467  -0.26313  -0.25727
 Alpha  occ. eigenvalues --   -0.23958  -0.23386
 Alpha virt. eigenvalues --    0.00271   0.01264   0.01599   0.04226   0.05319
 Alpha virt. eigenvalues --    0.08105   0.08561   0.10322   0.10677   0.12405
 Alpha virt. eigenvalues --    0.12883   0.13639   0.13956   0.14314   0.14794

 Mulliken atomic charges:
              1
     1  H    0.181136
     2  C   -0.533184
     3  H    0.181141
     4  H    0.147539
     5  C    0.595791
     6  O   -0.524452
     7  N   -0.605004
     8  H    0.346270
     9  C   -0.037447
    10  H    0.175669
    11  C   -0.442084
    12  H    0.154772
    13  H    0.139924
    14  H    0.189533
    15  C    0.610795
    16  O   -0.527286
    17  N   -0.626699
    18  H    0.343525
    19  C    0.017500
    20  H    0.151888
    21  C   -0.466979
    22  H    0.170726
    23  H    0.144099
    24  H    0.199397
    25  C    0.566555
    26  O   -0.534403
    27  N   -0.605695
    28  H    0.357082
    29  C   -0.037595
    30  H    0.173130
    31  C   -0.444737
    32  H    0.163336
    33  H    0.139843
    34  H    0.189783
    35  C    0.606947
    36  O   -0.527801
    37  N   -0.592494
    38  H    0.333281
    39  C   -0.314655
    40  H    0.209384
    41  H    0.166319
    42  H    0.165150
 Sum of Mulliken atomic charges =   0.00000

 Dipole moment (field-independent basis, Debye):
    X=             -6.9358    Y=              0.0707    Z=             -0.1908  Tot=              6.9387
 Quadrupole moment (field-independent basis, Debye-Ang):
   XX=            -94.2344   YY=           -124.9214   ZZ=           -123.7807
   XY=             19.4231   XZ=             13.7377   YZ=             -5.3271

 Normal termination of Gaussian 09 at Thu Dec 29 05:49:35 2016.
