 Gaussian 09, Revision A.02,
 Gaussian 09:  EM64L-G09RevA.02 11-Jun-2009

 ----------------------------------------------------------------------
 # b3lyp/6-31G* Opt=(ModRedundant, maxcycles=1000, calcfc) geom=nocrowd
 ----------------------------------------------------------------------

 ------------------
 Phi Psi fixed scan
 ------------------
 Symbolic Z-matrix:
 Charge =  0 Multiplicity = 1

 SCF Done:  E(RB3LYP) =  -990.464714831     A.U. after   15 cycles

  Exact polarizability:   0.000   0.000   0.000   0.000   0.000   0.000
 Approx polarizability: 248.922  -2.403 251.312  -8.869 -11.229 168.456

 SCF Done:  E(RB3LYP) =  -990.476576304     A.U. after   13 cycles
 SCF Done:  E(RB3LYP) =  -990.489933648     A.U. after   14 cycles
 SCF Done:  E(RB3LYP) =  -990.491901401     A.U. after   16 cycles
 SCF Done:  E(RB3LYP) =  -990.494587506     A.U. after   12 cycles
 SCF Done:  E(RB3LYP) =  -990.494971254     A.U. after   16 cycles
 SCF Done:  E(RB3LYP) =  -990.494818531     A.U. after   14 cycles
 SCF Done:  E(RB3LYP) =  -990.495977252     A.U. after   12 cycles
 SCF Done:  E(RB3LYP) =  -990.496920752     A.U. after   12 cycles
 SCF Done:  E(RB3LYP) =  -990.496485649     A.U. after   13 cycles
 SCF Done:  E(RB3LYP) =  -990.497893613     A.U. after    8 cycles
 SCF Done:  E(RB3LYP) =  -990.497897568     A.U. after    9 cycles
 SCF Done:  E(RB3LYP) =  -990.497903773     A.U. after    9 cycles
 SCF Done:  E(RB3LYP) =  -990.497912984     A.U. after   10 cycles
 SCF Done:  E(RB3LYP) =  -990.497922292     A.U. after   10 cycles
 SCF Done:  E(RB3LYP) =  -990.497923935     A.U. after    9 cycles
 SCF Done:  E(RB3LYP) =  -990.497924266     A.U. after    8 cycles
 SCF Done:  E(RB3LYP) =  -990.497924332     A.U. after    6 cycles
 SCF Done:  E(RB3LYP) =  -990.497924358     A.U. after    7 cycles
 SCF Done:  E(RB3LYP) =  -990.497924356     A.U. after    6 cycles
 Optimization completed.
    -- Stationary point found.

                         Standard orientation:
 ---------------------------------------------------------------------
 Center     Atomic      Atomic             Coordinates (Angstroms)
 Number     Number       Type             X           Y           Z
 ---------------------------------------------------------------------
      1          1           0        6.554672   -1.872383   -0.778036
      2          6           0        5.687096   -1.503801   -1.334034
      3          1           0        5.528403   -2.183436   -2.177209
      4          1           0        5.908643   -0.503576   -1.718715
      5          6           0        4.465336   -1.554227   -0.428086
      6          8           0        4.085519   -2.597162    0.097232
      7          7           0        3.826583   -0.365892   -0.238165
      8          1           0        4.104671    0.482570   -0.717403
      9          6           0        2.611301   -0.259939    0.543115
     10          1           0        1.964809   -1.111760    0.296353
     11          6           0        2.898104   -0.287229    2.058681
     12          1           0        3.528005    0.561425    2.345279
     13          1           0        1.973967   -0.250262    2.647880
     14          1           0        3.419162   -1.217267    2.297424
     15          6           0        1.927243    1.059049    0.127411
     16          8           0        2.546894    1.924391   -0.479455
     17          7           0        0.609112    1.134603    0.495109
     18          1           0        0.316214    0.394335    1.122766
     19          6           0       -0.270139    2.315452    0.530452
     20          1           0       -0.266817    2.729717    1.549074
     21          6           0        0.122056    3.436499   -0.441838
     22          1           0        0.175383    3.065747   -1.469458
     23          1           0       -0.655578    4.201492   -0.380566
     24          1           0        1.089507    3.866470   -0.187081
     25          6           0       -1.746423    1.934089    0.268066
     26          8           0       -2.618769    2.794617    0.343245
     27          7           0       -2.015914    0.621668    0.051030
     28          1           0       -1.281892   -0.042190   -0.168732
     29          6           0       -3.362560    0.132782   -0.183324
     30          1           0       -4.016150    0.564228    0.583980
     31          6           0       -3.902574    0.524391   -1.573099
     32          1           0       -3.273811    0.096063   -2.360658
     33          1           0       -4.927426    0.163198   -1.714251
     34          1           0       -3.900445    1.613106   -1.662695
     35          6           0       -3.292529   -1.396419   -0.033413
     36          8           0       -2.228880   -1.997222   -0.169578
     37          7           0       -4.478690   -2.009458    0.215970
     38          1           0       -5.300360   -1.434716    0.339904
     39          6           0       -4.617684   -3.453373    0.319648
     40          1           0       -3.634772   -3.890494    0.141165
     41          1           0       -4.964146   -3.744901    1.317638
     42          1           0       -5.323147   -3.834444   -0.427306
 ---------------------------------------------------------------------

 The electronic state is 1-A.
 Alpha  occ. eigenvalues --  -19.13232 -19.13034 -19.11600 -19.09726 -14.38259
 Alpha  occ. eigenvalues --  -14.37744 -14.36488 -14.34864 -10.30404 -10.30243
 Alpha  occ. eigenvalues --  -10.29154 -10.27740 -10.24836 -10.24676 -10.23693
 Alpha  occ. eigenvalues --  -10.23234 -10.19310 -10.18618 -10.18370 -10.17675
 Alpha  occ. eigenvalues --   -1.05307  -1.04952  -1.03595  -1.01744  -0.94421
 Alpha  occ. eigenvalues --   -0.93978  -0.92507  -0.91376  -0.79648  -0.77839
 Alpha  occ. eigenvalues --   -0.75811  -0.72227  -0.71991  -0.67789  -0.66040
 Alpha  occ. eigenvalues --   -0.63841  -0.60667  -0.59235  -0.57752  -0.56933
 Alpha  occ. eigenvalues --   -0.55888  -0.53609  -0.49637  -0.48998  -0.48703
 Alpha  occ. eigenvalues --   -0.48038  -0.46901  -0.46303  -0.45353  -0.44851
 Alpha  occ. eigenvalues --   -0.44198  -0.43333  -0.43174  -0.41911  -0.41340
 Alpha  occ. eigenvalues --   -0.40906  -0.40733  -0.40385  -0.40084  -0.38715
 Alpha  occ. eigenvalues --   -0.38548  -0.38197  -0.37839  -0.37740  -0.37153
 Alpha  occ. eigenvalues --   -0.36877  -0.36562  -0.35118  -0.33831  -0.28408
 Alpha  occ. eigenvalues --   -0.27396  -0.27237  -0.26730  -0.25798  -0.24726
 Alpha  occ. eigenvalues --   -0.24369  -0.23714
 Alpha virt. eigenvalues --    0.00708   0.00936   0.02316   0.03839   0.05585
 Alpha virt. eigenvalues --    0.06140   0.09919   0.10928   0.11745   0.12096
 Alpha virt. eigenvalues --    0.13204   0.13574   0.13951   0.14258   0.14680

 Mulliken atomic charges:
              1
     1  H    0.181745
     2  C   -0.533281
     3  H    0.182509
     4  H    0.147971
     5  C    0.597561
     6  O   -0.523443
     7  N   -0.607097
     8  H    0.346907
     9  C   -0.036888
    10  H    0.179945
    11  C   -0.450187
    12  H    0.157713
    13  H    0.132986
    14  H    0.196522
    15  C    0.612847
    16  O   -0.519881
    17  N   -0.649533
    18  H    0.334988
    19  C   -0.019478
    20  H    0.175071
    21  C   -0.445787
    22  H    0.158117
    23  H    0.174907
    24  H    0.179905
    25  C    0.611176
    26  O   -0.534849
    27  N   -0.628069
    28  H    0.352546
    29  C   -0.031993
    30  H    0.167391
    31  C   -0.448517
    32  H    0.161702
    33  H    0.139517
    34  H    0.194741
    35  C    0.608994
    36  O   -0.530673
    37  N   -0.593039
    38  H    0.332225
    39  C   -0.314973
    40  H    0.210253
    41  H    0.165100
    42  H    0.164353
 Sum of Mulliken atomic charges =   0.00000

 Dipole moment (field-independent basis, Debye):
    X=             -4.3172    Y=             -0.7800    Z=              0.6274  Tot=              4.4317
 Quadrupole moment (field-independent basis, Debye-Ang):
   XX=            -95.4039   YY=           -137.0922   ZZ=           -114.3888
   XY=             22.6440   XZ=             -2.8042   YZ=              1.1753

 Normal termination of Gaussian 09 at Thu Dec 29 06:36:50 2016.
