 Gaussian 09, Revision A.02,
 Gaussian 09:  EM64L-G09RevA.02 11-Jun-2009

 ----------------------------------------------------------------------
 # b3lyp/6-31G* Opt=(ModRedundant, maxcycles=1000, calcfc) geom=nocrowd
 ----------------------------------------------------------------------

 ------------------
 Phi Psi fixed scan
 ------------------
 Symbolic Z-matrix:
 Charge =  0 Multiplicity = 1

 SCF Done:  E(RB3LYP) =  -990.463049378     A.U. after   15 cycles

  Exact polarizability:   0.000   0.000   0.000   0.000   0.000   0.000
 Approx polarizability: 246.245  -3.639 252.984   6.977   9.504 168.646

 SCF Done:  E(RB3LYP) =  -990.474181790     A.U. after   12 cycles
 SCF Done:  E(RB3LYP) =  -990.484674829     A.U. after   13 cycles
 SCF Done:  E(RB3LYP) =  -990.487211202     A.U. after   13 cycles
 SCF Done:  E(RB3LYP) =  -990.483751852     A.U. after   13 cycles
 SCF Done:  E(RB3LYP) =  -990.489026177     A.U. after   12 cycles
 SCF Done:  E(RB3LYP) =  -990.490050000     A.U. after   12 cycles
 SCF Done:  E(RB3LYP) =  -990.491633860     A.U. after   13 cycles
 SCF Done:  E(RB3LYP) =  -990.491285028     A.U. after   13 cycles
 SCF Done:  E(RB3LYP) =  -990.492438514     A.U. after   13 cycles
 SCF Done:  E(RB3LYP) =  -990.495919889     A.U. after   10 cycles
 SCF Done:  E(RB3LYP) =  -990.495932772     A.U. after   10 cycles
 SCF Done:  E(RB3LYP) =  -990.495947026     A.U. after   10 cycles
 SCF Done:  E(RB3LYP) =  -990.495957552     A.U. after   10 cycles
 SCF Done:  E(RB3LYP) =  -990.495968996     A.U. after   10 cycles
 SCF Done:  E(RB3LYP) =  -990.495971536     A.U. after    9 cycles
 SCF Done:  E(RB3LYP) =  -990.495973593     A.U. after    9 cycles
 SCF Done:  E(RB3LYP) =  -990.495974465     A.U. after    8 cycles
 SCF Done:  E(RB3LYP) =  -990.495974607     A.U. after    7 cycles
 SCF Done:  E(RB3LYP) =  -990.495974644     A.U. after    6 cycles
 Optimization completed.
    -- Stationary point found.

                         Standard orientation:
 ---------------------------------------------------------------------
 Center     Atomic      Atomic             Coordinates (Angstroms)
 Number     Number       Type             X           Y           Z
 ---------------------------------------------------------------------
      1          1           0       -6.838983   -1.807694    0.401145
      2          6           0       -6.245898   -0.959446    0.756707
      3          1           0       -6.491948   -0.810459    1.812800
      4          1           0       -6.530234   -0.065083    0.193896
      5          6           0       -4.769521   -1.309948    0.641935
      6          8           0       -4.286381   -2.289650    1.203541
      7          7           0       -4.024891   -0.469033   -0.129131
      8          1           0       -4.400899    0.392361   -0.508683
      9          6           0       -2.590239   -0.621669   -0.263620
     10          1           0       -2.184212   -0.906877    0.716152
     11          6           0       -2.218065   -1.718521   -1.280952
     12          1           0       -2.599193   -1.462270   -2.274879
     13          1           0       -1.133060   -1.853200   -1.349205
     14          1           0       -2.666353   -2.661196   -0.957907
     15          6           0       -2.029732    0.754165   -0.678538
     16          8           0       -2.772780    1.649451   -1.066940
     17          7           0       -0.662158    0.830949   -0.654397
     18          1           0       -0.233742    0.081932   -0.123043
     19          6           0        0.127553    2.084097   -0.641579
     20          1           0        0.392662    2.327856   -1.681254
     21          6           0       -0.588176    3.291589   -0.026809
     22          1           0       -0.896159    3.075720    1.001623
     23          1           0        0.110958    4.129491    0.001556
     24          1           0       -1.470051    3.554138   -0.608803
     25          6           0        1.458431    1.843777    0.113052
     26          8           0        2.011923    2.734462    0.743687
     27          7           0        1.962262    0.571345    0.049000
     28          1           0        1.710451   -0.054266   -0.714920
     29          6           0        3.270754    0.265124    0.609056
     30          1           0        3.925626    1.135321    0.466633
     31          6           0        3.181098   -0.037584    2.115111
     32          1           0        2.547457   -0.911763    2.296022
     33          1           0        4.169022   -0.229612    2.548609
     34          1           0        2.749737    0.826878    2.626122
     35          6           0        3.820575   -0.924666   -0.201870
     36          8           0        3.129360   -1.493121   -1.045954
     37          7           0        5.095992   -1.284690    0.088463
     38          1           0        5.602048   -0.749527    0.779737
     39          6           0        5.776734   -2.389994   -0.567932
     40          1           0        5.069855   -2.845335   -1.261915
     41          1           0        6.651297   -2.037192   -1.126130
     42          1           0        6.099237   -3.139896    0.162867
 ---------------------------------------------------------------------

 The electronic state is 1-A.
 Alpha  occ. eigenvalues --  -19.13861 -19.12839 -19.12819 -19.09656 -14.38649
 Alpha  occ. eigenvalues --  -14.37067 -14.36905 -14.34704 -10.30959 -10.30037
 Alpha  occ. eigenvalues --  -10.29767 -10.27645 -10.25189 -10.24642 -10.23574
 Alpha  occ. eigenvalues --  -10.23481 -10.19975 -10.18296 -10.18098 -10.17170
 Alpha  occ. eigenvalues --   -1.05938  -1.04844  -1.04431  -1.01649  -0.94536
 Alpha  occ. eigenvalues --   -0.94308  -0.92527  -0.91226  -0.79699  -0.77939
 Alpha  occ. eigenvalues --   -0.75563  -0.72578  -0.71806  -0.68090  -0.65688
 Alpha  occ. eigenvalues --   -0.63676  -0.60930  -0.59291  -0.57709  -0.57055
 Alpha  occ. eigenvalues --   -0.56180  -0.52832  -0.50321  -0.49225  -0.48202
 Alpha  occ. eigenvalues --   -0.47752  -0.47282  -0.46910  -0.45315  -0.44639
 Alpha  occ. eigenvalues --   -0.44311  -0.43568  -0.43003  -0.42109  -0.41661
 Alpha  occ. eigenvalues --   -0.41305  -0.40849  -0.40580  -0.40196  -0.39057
 Alpha  occ. eigenvalues --   -0.38697  -0.38553  -0.37973  -0.37456  -0.37116
 Alpha  occ. eigenvalues --   -0.36417  -0.36230  -0.35544  -0.33621  -0.28236
 Alpha  occ. eigenvalues --   -0.28078  -0.27577  -0.26871  -0.26186  -0.25692
 Alpha  occ. eigenvalues --   -0.24209  -0.23640
 Alpha virt. eigenvalues --    0.00141   0.00801   0.01706   0.03960   0.05164
 Alpha virt. eigenvalues --    0.07073   0.10009   0.10530   0.11524   0.11925
 Alpha virt. eigenvalues --    0.12473   0.13230   0.13876   0.14209   0.14626

 Mulliken atomic charges:
              1
     1  H    0.181948
     2  C   -0.533074
     3  H    0.181266
     4  H    0.148321
     5  C    0.595155
     6  O   -0.524882
     7  N   -0.604323
     8  H    0.346759
     9  C   -0.037455
    10  H    0.168928
    11  C   -0.443215
    12  H    0.156511
    13  H    0.143967
    14  H    0.189250
    15  C    0.613800
    16  O   -0.521542
    17  N   -0.648770
    18  H    0.338204
    19  C   -0.021382
    20  H    0.180413
    21  C   -0.449953
    22  H    0.147403
    23  H    0.171765
    24  H    0.187996
    25  C    0.591897
    26  O   -0.510811
    27  N   -0.641861
    28  H    0.359696
    29  C   -0.036838
    30  H    0.178743
    31  C   -0.444605
    32  H    0.162597
    33  H    0.136716
    34  H    0.190723
    35  C    0.606826
    36  O   -0.529914
    37  N   -0.592096
    38  H    0.334289
    39  C   -0.314865
    40  H    0.209905
    41  H    0.166496
    42  H    0.166014
 Sum of Mulliken atomic charges =   0.00000

 Dipole moment (field-independent basis, Debye):
    X=              5.5833    Y=             -0.6264    Z=              0.0940  Tot=              5.6191
 Quadrupole moment (field-independent basis, Debye-Ang):
   XX=            -87.6134   YY=           -135.3557   ZZ=           -122.0524
   XY=            -15.4222   XZ=              7.1054   YZ=              1.0938

 Normal termination of Gaussian 09 at Thu Dec 29 09:08:15 2016.
