 Gaussian 09, Revision A.02,
 Gaussian 09:  EM64L-G09RevA.02 11-Jun-2009

 ----------------------------------------------------------------------
 # b3lyp/6-31G* Opt=(ModRedundant, maxcycles=1000, calcfc) geom=nocrowd
 ----------------------------------------------------------------------

 ------------------
 Phi Psi fixed scan
 ------------------
 Symbolic Z-matrix:
 Charge =  0 Multiplicity = 1

 SCF Done:  E(RB3LYP) =  -495.830549965     A.U. after   15 cycles

  Exact polarizability:   0.000   0.000   0.000   0.000   0.000   0.000
 Approx polarizability: 121.757   3.274 102.348  16.941   4.899 114.318

 SCF Done:  E(RB3LYP) =  -495.835460051     A.U. after   13 cycles
 SCF Done:  E(RB3LYP) =  -495.841052090     A.U. after   15 cycles
 SCF Done:  E(RB3LYP) =  -495.842187202     A.U. after   14 cycles
 SCF Done:  E(RB3LYP) =  -495.842041498     A.U. after   12 cycles
 SCF Done:  E(RB3LYP) =  -495.842416435     A.U. after   12 cycles
 SCF Done:  E(RB3LYP) =  -495.842577007     A.U. after   12 cycles
 SCF Done:  E(RB3LYP) =  -495.750550156     A.U. after   14 cycles
 SCF Done:  E(RB3LYP) =  -495.842640822     A.U. after   14 cycles
 SCF Done:  E(RB3LYP) =  -495.842741075     A.U. after   12 cycles
 SCF Done:  E(RB3LYP) =  -495.842800041     A.U. after   11 cycles
 SCF Done:  E(RB3LYP) =  -495.842808688     A.U. after   10 cycles
 SCF Done:  E(RB3LYP) =  -495.842813778     A.U. after    9 cycles
 SCF Done:  E(RB3LYP) =  -495.842839783     A.U. after   11 cycles
 SCF Done:  E(RB3LYP) =  -495.842846747     A.U. after   10 cycles
 SCF Done:  E(RB3LYP) =  -495.842850092     A.U. after   10 cycles
 SCF Done:  E(RB3LYP) =  -495.842851420     A.U. after   10 cycles
 SCF Done:  E(RB3LYP) =  -495.842851782     A.U. after    9 cycles
 SCF Done:  E(RB3LYP) =  -495.842852028     A.U. after    9 cycles
 SCF Done:  E(RB3LYP) =  -495.842852040     A.U. after    7 cycles
 Optimization completed on the basis of negligible forces.
    -- Stationary point found.

                         Standard orientation:
 ---------------------------------------------------------------------
 Center     Atomic      Atomic             Coordinates (Angstroms)
 Number     Number       Type             X           Y           Z
 ---------------------------------------------------------------------
      1          1           0        4.132166   -0.676082   -0.962247
      2          6           0        3.169681   -1.150446   -0.755262
      3          1           0        3.357736   -2.009978   -0.102330
      4          1           0        2.736293   -1.512627   -1.693071
      5          6           0        2.282315   -0.159184   -0.017759
      6          8           0        2.700287    0.541729    0.894460
      7          7           0        0.980411   -0.100617   -0.448795
      8          1           0        0.661271   -0.794565   -1.110333
      9          6           0       -0.027889    0.646404    0.305517
     10          1           0        0.354132    0.721854    1.327748
     11          6           0       -0.202821    2.065065   -0.252517
     12          1           0       -0.478799    2.058853   -1.314620
     13          1           0       -0.957339    2.626434    0.311328
     14          1           0        0.749169    2.595909   -0.165574
     15          6           0       -1.295581   -0.228224    0.400803
     16          8           0       -1.312905   -1.224224    1.112889
     17          7           0       -2.339715    0.131881   -0.404121
     18          1           0       -2.287273    1.007553   -0.902594
     19          6           0       -3.605492   -0.582151   -0.398031
     20          1           0       -3.451730   -1.516154    0.143714
     21          1           0       -4.392798   -0.006233    0.104491
     22          1           0       -3.928035   -0.802634   -1.421404
 ---------------------------------------------------------------------

 The electronic state is 1-A.
 Alpha  occ. eigenvalues --  -19.11289 -19.10656 -14.36992 -14.36052 -10.28912
 Alpha  occ. eigenvalues --  -10.28488 -10.23409 -10.22360 -10.19110 -10.19067
 Alpha  occ. eigenvalues --   -1.03566  -1.02556  -0.92681  -0.91898  -0.78135
 Alpha  occ. eigenvalues --   -0.72975  -0.71014  -0.65178  -0.58908  -0.58437
 Alpha  occ. eigenvalues --   -0.53755  -0.48675  -0.47345  -0.45888  -0.44991
 Alpha  occ. eigenvalues --   -0.44312  -0.42394  -0.41905  -0.40434  -0.39722
 Alpha  occ. eigenvalues --   -0.39134  -0.38594  -0.37720  -0.36540  -0.34308
 Alpha  occ. eigenvalues --   -0.26447  -0.25607  -0.24638  -0.24425
 Alpha virt. eigenvalues --    0.01369   0.03651   0.06888   0.08252   0.11360
 Alpha virt. eigenvalues --    0.12820   0.13937   0.14679   0.15602   0.15932
 Alpha virt. eigenvalues --    0.16247   0.16791   0.17930   0.18690   0.19191

 Mulliken atomic charges:
              1
     1  H    0.185864
     2  C   -0.537828
     3  H    0.189543
     4  H    0.144470
     5  C    0.601375
     6  O   -0.507391
     7  N   -0.593847
     8  H    0.327628
     9  C   -0.010106
    10  H    0.202224
    11  C   -0.474285
    12  H    0.136848
    13  H    0.151530
    14  H    0.187280
    15  C    0.547443
    16  O   -0.505922
    17  N   -0.588920
    18  H    0.332405
    19  C   -0.312294
    20  H    0.206178
    21  H    0.161528
    22  H    0.156276
 Sum of Mulliken atomic charges =   0.00000

 Dipole moment (field-independent basis, Debye):
    X=             -2.7681    Y=              0.7125    Z=             -4.3293  Tot=              5.1877
 Quadrupole moment (field-independent basis, Debye-Ang):
   XX=            -56.9382   YY=            -59.7275   ZZ=            -62.0689
   XY=             -8.2043   XZ=             -1.8008   YZ=              2.5425

 Normal termination of Gaussian 09 at Fri Feb 10 22:25:10 2017.
