 Gaussian 09, Revision A.02,
 Gaussian 09:  EM64L-G09RevA.02 11-Jun-2009

 ----------------------------------------------------------------------
 # b3lyp/6-31G* Opt=(ModRedundant, maxcycles=1000, calcfc) geom=nocrowd
 ----------------------------------------------------------------------

 ------------------
 Phi Psi fixed scan
 ------------------
 Symbolic Z-matrix:
 Charge =  0 Multiplicity = 1

 SCF Done:  E(RB3LYP) =  -495.834143708     A.U. after   14 cycles

  Exact polarizability:   0.000   0.000   0.000   0.000   0.000   0.000
 Approx polarizability: 123.374  -7.773 112.101   8.961   9.373 101.424

 SCF Done:  E(RB3LYP) =  -495.838829697     A.U. after   11 cycles
 SCF Done:  E(RB3LYP) =  -495.844137102     A.U. after   12 cycles
 SCF Done:  E(RB3LYP) =  -495.845873167     A.U. after   16 cycles
 SCF Done:  E(RB3LYP) =  -495.847332604     A.U. after   13 cycles
 SCF Done:  E(RB3LYP) =  -495.847139259     A.U. after   12 cycles
 SCF Done:  E(RB3LYP) =  -495.847400880     A.U. after   12 cycles
 SCF Done:  E(RB3LYP) =  -495.847638045     A.U. after   14 cycles
 SCF Done:  E(RB3LYP) =  -495.821240520     A.U. after   16 cycles
 SCF Done:  E(RB3LYP) =  -495.847732949     A.U. after   16 cycles
 SCF Done:  E(RB3LYP) =  -495.848109465     A.U. after   16 cycles
 SCF Done:  E(RB3LYP) =  -495.848120939     A.U. after   11 cycles
 SCF Done:  E(RB3LYP) =  -495.848120536     A.U. after   10 cycles
 SCF Done:  E(RB3LYP) =  -495.848124885     A.U. after    9 cycles
 SCF Done:  E(RB3LYP) =  -495.848125156     A.U. after    7 cycles
 SCF Done:  E(RB3LYP) =  -495.848125589     A.U. after    7 cycles
 SCF Done:  E(RB3LYP) =  -495.848125816     A.U. after    7 cycles
 SCF Done:  E(RB3LYP) =  -495.848125863     A.U. after    6 cycles
 Optimization completed.
    -- Stationary point found.

                         Standard orientation:
 ---------------------------------------------------------------------
 Center     Atomic      Atomic             Coordinates (Angstroms)
 Number     Number       Type             X           Y           Z
 ---------------------------------------------------------------------
      1          1           0        4.288205   -0.701965   -0.393754
      2          6           0        3.283850   -1.130563   -0.371197
      3          1           0        3.289433   -1.959895    0.346124
      4          1           0        3.032943   -1.528857   -1.359125
      5          6           0        2.304356   -0.068968    0.103564
      6          8           0        2.599422    0.770294    0.945242
      7          7           0        1.063775   -0.108373   -0.494032
      8          1           0        0.790907   -1.004702   -0.884696
      9          6           0       -0.043899    0.611256    0.129440
     10          1           0        0.224604    0.772468    1.183434
     11          6           0       -0.238321    1.989438   -0.519430
     12          1           0       -0.560623    1.903496   -1.562582
     13          1           0       -0.960652    2.606767    0.029993
     14          1           0        0.717271    2.519340   -0.493338
     15          6           0       -1.264329   -0.332231    0.115084
     16          8           0       -1.112781   -1.551626    0.137289
     17          7           0       -2.486683    0.259653    0.039702
     18          1           0       -2.539414    1.266857    0.042204
     19          6           0       -3.725821   -0.498246    0.092976
     20          1           0       -3.472114   -1.552227   -0.024352
     21          1           0       -4.242315   -0.360957    1.051078
     22          1           0       -4.396035   -0.192743   -0.717541
 ---------------------------------------------------------------------

 The electronic state is 1-A.
 Alpha  occ. eigenvalues --  -19.11989 -19.10675 -14.37275 -14.34901 -10.29419
 Alpha  occ. eigenvalues --  -10.28100 -10.23467 -10.22545 -10.18988 -10.18604
 Alpha  occ. eigenvalues --   -1.04153  -1.02408  -0.92984  -0.91465  -0.77955
 Alpha  occ. eigenvalues --   -0.72789  -0.71031  -0.64934  -0.59350  -0.57043
 Alpha  occ. eigenvalues --   -0.53691  -0.48209  -0.47483  -0.45643  -0.45484
 Alpha  occ. eigenvalues --   -0.44242  -0.42606  -0.41807  -0.40009  -0.39832
 Alpha  occ. eigenvalues --   -0.39295  -0.38055  -0.37869  -0.36779  -0.33815
 Alpha  occ. eigenvalues --   -0.26323  -0.26072  -0.25343  -0.24312
 Alpha virt. eigenvalues --    0.01991   0.03019   0.06735   0.10005   0.11394
 Alpha virt. eigenvalues --    0.13351   0.14209   0.14504   0.15356   0.15883
 Alpha virt. eigenvalues --    0.16155   0.16600   0.18003   0.19207   0.19735

 Mulliken atomic charges:
              1
     1  H    0.184074
     2  C   -0.540711
     3  H    0.184393
     4  H    0.155648
     5  C    0.580779
     6  O   -0.506053
     7  N   -0.584022
     8  H    0.339791
     9  C   -0.032149
    10  H    0.194547
    11  C   -0.463711
    12  H    0.155931
    13  H    0.132345
    14  H    0.188471
    15  C    0.582002
    16  O   -0.528181
    17  N   -0.592636
    18  H    0.333168
    19  C   -0.312361
    20  H    0.206505
    21  H    0.162654
    22  H    0.159516
 Sum of Mulliken atomic charges =   0.00000

 Dipole moment (field-independent basis, Debye):
    X=             -3.2511    Y=              0.8045    Z=             -1.6651  Tot=              3.7402
 Quadrupole moment (field-independent basis, Debye-Ang):
   XX=            -53.4473   YY=            -61.4399   ZZ=            -61.5154
   XY=             -9.9985   XZ=             -5.0855   YZ=             -0.1609

 Normal termination of Gaussian 09 at Fri Feb 10 22:09:13 2017.
