 Gaussian 09, Revision A.02,
 Gaussian 09:  EM64L-G09RevA.02 11-Jun-2009

 ----------------------------------------------------------------------
 # b3lyp/6-31G* Opt=(ModRedundant, maxcycles=1000, calcfc) geom=nocrowd
 ----------------------------------------------------------------------

 ------------------
 Phi Psi fixed scan
 ------------------
 Symbolic Z-matrix:
 Charge =  0 Multiplicity = 1

 SCF Done:  E(RB3LYP) =  -495.845707677     A.U. after   14 cycles

  Exact polarizability:   0.000   0.000   0.000   0.000   0.000   0.000
 Approx polarizability: 114.336  -2.023 100.160  -0.432  22.606 119.623

 SCF Done:  E(RB3LYP) =  -495.848783709     A.U. after   12 cycles
 SCF Done:  E(RB3LYP) =  -495.851433272     A.U. after   12 cycles
 SCF Done:  E(RB3LYP) =  -495.851832859     A.U. after   12 cycles
 SCF Done:  E(RB3LYP) =  -495.852063112     A.U. after   12 cycles
 SCF Done:  E(RB3LYP) =  -495.851885359     A.U. after   13 cycles
 SCF Done:  E(RB3LYP) =  -495.852097230     A.U. after   11 cycles
 SCF Done:  E(RB3LYP) =  -495.852111441     A.U. after   11 cycles
 SCF Done:  E(RB3LYP) =  -495.852115816     A.U. after   10 cycles
 SCF Done:  E(RB3LYP) =  -495.852120083     A.U. after   10 cycles
 SCF Done:  E(RB3LYP) =  -495.852126040     A.U. after   10 cycles
 SCF Done:  E(RB3LYP) =  -495.852130403     A.U. after   10 cycles
 SCF Done:  E(RB3LYP) =  -495.852135211     A.U. after   10 cycles
 SCF Done:  E(RB3LYP) =  -495.852136931     A.U. after   10 cycles
 SCF Done:  E(RB3LYP) =  -495.852143107     A.U. after   10 cycles
 SCF Done:  E(RB3LYP) =  -495.852143091     A.U. after    7 cycles
 SCF Done:  E(RB3LYP) =  -495.852143089     A.U. after    6 cycles
 Optimization completed.
    -- Stationary point found.

                         Standard orientation:
 ---------------------------------------------------------------------
 Center     Atomic      Atomic             Coordinates (Angstroms)
 Number     Number       Type             X           Y           Z
 ---------------------------------------------------------------------
      1          1           0        4.222281   -0.612434   -0.391363
      2          6           0        3.296904   -1.150760   -0.164565
      3          1           0        3.515613   -1.842920    0.654700
      4          1           0        2.993267   -1.723890   -1.045872
      5          6           0        2.250836   -0.150659    0.304383
      6          8           0        2.441165    0.586686    1.266461
      7          7           0        1.100291   -0.118498   -0.432598
      8          1           0        0.900757   -0.836512   -1.119111
      9          6           0       -0.047285    0.674630   -0.030387
     10          1           0        0.105009    0.940232    1.021176
     11          6           0       -0.175767    1.964263   -0.862427
     12          1           0       -0.306120    1.722606   -1.922396
     13          1           0       -1.033831    2.563280   -0.535907
     14          1           0        0.732194    2.562844   -0.745705
     15          6           0       -1.296436   -0.203083   -0.201414
     16          8           0       -1.353455   -1.056992   -1.083340
     17          7           0       -2.316593    0.063833    0.657625
     18          1           0       -2.164469    0.749145    1.384022
     19          6           0       -3.594910   -0.625866    0.606347
     20          1           0       -3.556750   -1.320245   -0.233786
     21          1           0       -3.777152   -1.189284    1.528800
     22          1           0       -4.418422    0.081126    0.453662
 ---------------------------------------------------------------------

 The electronic state is 1-A.
 Alpha  occ. eigenvalues --  -19.12160 -19.10046 -14.37409 -14.35115 -10.29346
 Alpha  occ. eigenvalues --  -10.28046 -10.23442 -10.22596 -10.18639 -10.18597
 Alpha  occ. eigenvalues --   -1.04176  -1.02009  -0.93073  -0.91548  -0.77923
 Alpha  occ. eigenvalues --   -0.72712  -0.71335  -0.64426  -0.59632  -0.57713
 Alpha  occ. eigenvalues --   -0.53661  -0.48113  -0.46740  -0.46280  -0.45600
 Alpha  occ. eigenvalues --   -0.44320  -0.42750  -0.41779  -0.40588  -0.39903
 Alpha  occ. eigenvalues --   -0.38987  -0.37898  -0.36942  -0.36484  -0.34124
 Alpha  occ. eigenvalues --   -0.26588  -0.26368  -0.24535  -0.23939
 Alpha virt. eigenvalues --    0.01854   0.03791   0.06635   0.09521   0.11704
 Alpha virt. eigenvalues --    0.13035   0.13399   0.15343   0.15694   0.16024
 Alpha virt. eigenvalues --    0.16653   0.17327   0.17886   0.18694   0.19246

 Mulliken atomic charges:
              1
     1  H    0.183560
     2  C   -0.532975
     3  H    0.182281
     4  H    0.148242
     5  C    0.589619
     6  O   -0.518048
     7  N   -0.592432
     8  H    0.341895
     9  C   -0.047430
    10  H    0.171148
    11  C   -0.436520
    12  H    0.161629
    13  H    0.140447
    14  H    0.174957
    15  C    0.605941
    16  O   -0.532189
    17  N   -0.589394
    18  H    0.331722
    19  C   -0.313428
    20  H    0.206825
    21  H    0.163081
    22  H    0.161069
 Sum of Mulliken atomic charges =   0.00000

 Dipole moment (field-independent basis, Debye):
    X=             -2.5903    Y=              0.2215    Z=              0.1554  Tot=              2.6044
 Quadrupole moment (field-independent basis, Debye-Ang):
   XX=            -54.7536   YY=            -59.7223   ZZ=            -62.6674
   XY=             -7.4017   XZ=            -11.5715   YZ=             -2.5134

 Normal termination of Gaussian 09 at Fri Feb 10 22:03:03 2017.
