 Gaussian 09, Revision A.02,
 Gaussian 09:  EM64L-G09RevA.02 11-Jun-2009

 ----------------------------------------------------------------------
 # b3lyp/6-31G* Opt=(ModRedundant, maxcycles=1000, calcfc) geom=nocrowd
 ----------------------------------------------------------------------

 ------------------
 Phi Psi fixed scan
 ------------------
 Symbolic Z-matrix:
 Charge =  0 Multiplicity = 1

 SCF Done:  E(RB3LYP) =  -495.844473348     A.U. after   14 cycles

  Exact polarizability:   0.000   0.000   0.000   0.000   0.000   0.000
 Approx polarizability: 116.290  -4.494 109.428   0.371  22.776 108.256

 SCF Done:  E(RB3LYP) =  -495.847359485     A.U. after   12 cycles
 SCF Done:  E(RB3LYP) =  -495.850574541     A.U. after   12 cycles
 SCF Done:  E(RB3LYP) =  -495.851607968     A.U. after   16 cycles
 SCF Done:  E(RB3LYP) =  -495.847527639     A.U. after   16 cycles
 SCF Done:  E(RB3LYP) =  -495.849742953     A.U. after   12 cycles
 SCF Done:  E(RB3LYP) =  -495.849699337     A.U. after   12 cycles
 SCF Done:  E(RB3LYP) =  -495.851607966     A.U. after   16 cycles
 SCF Done:  E(RB3LYP) =  -495.851901300     A.U. after   12 cycles
 SCF Done:  E(RB3LYP) =  -495.851899359     A.U. after   12 cycles
 SCF Done:  E(RB3LYP) =  -495.852062825     A.U. after   16 cycles
 SCF Done:  E(RB3LYP) =  -495.852095689     A.U. after   10 cycles
 SCF Done:  E(RB3LYP) =  -495.852116655     A.U. after   11 cycles
 SCF Done:  E(RB3LYP) =  -495.852136510     A.U. after   11 cycles
 SCF Done:  E(RB3LYP) =  -495.852142322     A.U. after   10 cycles
 SCF Done:  E(RB3LYP) =  -495.852143311     A.U. after   10 cycles
 SCF Done:  E(RB3LYP) =  -495.852145121     A.U. after   10 cycles
 SCF Done:  E(RB3LYP) =  -495.852145334     A.U. after    9 cycles
 SCF Done:  E(RB3LYP) =  -495.852145315     A.U. after    7 cycles
 SCF Done:  E(RB3LYP) =  -495.852145319     A.U. after    6 cycles
 Optimization completed.
    -- Stationary point found.

                         Standard orientation:
 ---------------------------------------------------------------------
 Center     Atomic      Atomic             Coordinates (Angstroms)
 Number     Number       Type             X           Y           Z
 ---------------------------------------------------------------------
      1          1           0        4.225609   -0.606681   -0.444262
      2          6           0        3.322748   -1.126758   -0.109244
      3          1           0        3.591291   -1.704139    0.780913
      4          1           0        2.995191   -1.812436   -0.896532
      5          6           0        2.275375   -0.093069    0.275575
      6          8           0        2.481194    0.748944    1.143673
      7          7           0        1.107124   -0.147898   -0.435472
      8          1           0        0.877383   -0.977749   -0.972014
      9          6           0       -0.047525    0.638000   -0.042105
     10          1           0        0.118760    0.963051    0.991797
     11          6           0       -0.219138    1.884856   -0.930746
     12          1           0       -0.371827    1.594736   -1.975633
     13          1           0       -1.074012    2.492799   -0.612825
     14          1           0        0.684282    2.497729   -0.865654
     15          6           0       -1.280735   -0.279593   -0.116839
     16          8           0       -1.256190   -1.336845   -0.742793
     17          7           0       -2.388828    0.191879    0.515808
     18          1           0       -2.308063    1.043679    1.052937
     19          6           0       -3.656917   -0.518273    0.525540
     20          1           0       -3.548107   -1.389557   -0.121142
     21          1           0       -3.917484   -0.854161    1.536223
     22          1           0       -4.463963    0.117086    0.143712
 ---------------------------------------------------------------------

 The electronic state is 1-A.
 Alpha  occ. eigenvalues --  -19.12389 -19.10081 -14.37400 -14.34870 -10.29494
 Alpha  occ. eigenvalues --  -10.27959 -10.23449 -10.22646 -10.18776 -10.18509
 Alpha  occ. eigenvalues --   -1.04361  -1.02003  -0.93147  -0.91440  -0.77921
 Alpha  occ. eigenvalues --   -0.72716  -0.71229  -0.64524  -0.59663  -0.57402
 Alpha  occ. eigenvalues --   -0.53674  -0.48075  -0.46915  -0.46221  -0.45591
 Alpha  occ. eigenvalues --   -0.44210  -0.42840  -0.41800  -0.40521  -0.40014
 Alpha  occ. eigenvalues --   -0.38961  -0.37969  -0.37143  -0.36492  -0.33952
 Alpha  occ. eigenvalues --   -0.26590  -0.26483  -0.24712  -0.23931
 Alpha virt. eigenvalues --    0.01880   0.03574   0.06448   0.09822   0.11575
 Alpha virt. eigenvalues --    0.13193   0.13703   0.15243   0.15550   0.15788
 Alpha virt. eigenvalues --    0.16373   0.17424   0.18119   0.18859   0.19098

 Mulliken atomic charges:
              1
     1  H    0.183259
     2  C   -0.532837
     3  H    0.182132
     4  H    0.149297
     5  C    0.584871
     6  O   -0.516077
     7  N   -0.591062
     8  H    0.344102
     9  C   -0.054479
    10  H    0.177389
    11  C   -0.435125
    12  H    0.159118
    13  H    0.135322
    14  H    0.178257
    15  C    0.605308
    16  O   -0.529588
    17  N   -0.589063
    18  H    0.331207
    19  C   -0.312594
    20  H    0.206698
    21  H    0.163104
    22  H    0.160760
 Sum of Mulliken atomic charges =   0.00000

 Dipole moment (field-independent basis, Debye):
    X=             -2.9095    Y=              0.4739    Z=             -0.1904  Tot=              2.9540
 Quadrupole moment (field-independent basis, Debye-Ang):
   XX=            -53.9826   YY=            -60.9430   ZZ=            -61.8841
   XY=             -9.1338   XZ=             -9.4895   YZ=             -2.3555

 Normal termination of Gaussian 09 at Fri Feb 10 22:14:33 2017.
