 Gaussian 09, Revision A.02,
 Gaussian 09:  EM64L-G09RevA.02 11-Jun-2009

 ----------------------------------------------------------------------
 # b3lyp/6-31G* Opt=(ModRedundant, maxcycles=1000, calcfc) geom=nocrowd
 ----------------------------------------------------------------------

 ------------------
 Phi Psi fixed scan
 ------------------
 Symbolic Z-matrix:
 Charge =  0 Multiplicity = 1

 SCF Done:  E(RB3LYP) =  -495.842559957     A.U. after   15 cycles

  Exact polarizability:   0.000   0.000   0.000   0.000   0.000   0.000
 Approx polarizability: 119.232  -8.803 115.983  11.068   7.147 102.226

 SCF Done:  E(RB3LYP) =  -495.845536158     A.U. after   11 cycles
 SCF Done:  E(RB3LYP) =  -495.848799792     A.U. after   12 cycles
 SCF Done:  E(RB3LYP) =  -495.849565020     A.U. after   13 cycles
 SCF Done:  E(RB3LYP) =  -495.837590608     A.U. after   13 cycles
 SCF Done:  E(RB3LYP) =  -495.849583044     A.U. after   13 cycles
 SCF Done:  E(RB3LYP) =  -495.849820107     A.U. after   12 cycles
 SCF Done:  E(RB3LYP) =  -495.849122068     A.U. after   13 cycles
 SCF Done:  E(RB3LYP) =  -495.849977253     A.U. after   13 cycles
 SCF Done:  E(RB3LYP) =  -495.850022706     A.U. after   11 cycles
 SCF Done:  E(RB3LYP) =  -495.850026237     A.U. after   10 cycles
 SCF Done:  E(RB3LYP) =  -495.850030433     A.U. after   10 cycles
 SCF Done:  E(RB3LYP) =  -495.850037078     A.U. after   10 cycles
 SCF Done:  E(RB3LYP) =  -495.850039772     A.U. after   10 cycles
 SCF Done:  E(RB3LYP) =  -495.850043821     A.U. after   10 cycles
 SCF Done:  E(RB3LYP) =  -495.850042089     A.U. after   11 cycles
 SCF Done:  E(RB3LYP) =  -495.850048695     A.U. after   10 cycles
 SCF Done:  E(RB3LYP) =  -495.850048962     A.U. after    9 cycles
 SCF Done:  E(RB3LYP) =  -495.850048985     A.U. after    6 cycles
 Optimization completed on the basis of negligible forces.
    -- Stationary point found.

                         Standard orientation:
 ---------------------------------------------------------------------
 Center     Atomic      Atomic             Coordinates (Angstroms)
 Number     Number       Type             X           Y           Z
 ---------------------------------------------------------------------
      1          1           0        3.563563   -1.869451   -0.151915
      2          6           0        3.136546   -1.027585   -0.702813
      3          1           0        2.731777   -1.386010   -1.654752
      4          1           0        3.951594   -0.325467   -0.910839
      5          6           0        2.105424   -0.338186    0.178394
      6          8           0        2.314269   -0.098582    1.358688
      7          7           0        0.917150   -0.019914   -0.446152
      8          1           0        0.889162   -0.086434   -1.456227
      9          6           0       -0.069114    0.861845    0.179608
     10          1           0        0.186495    0.853531    1.245408
     11          6           0        0.015052    2.296705   -0.347976
     12          1           0       -0.150338    2.329212   -1.431657
     13          1           0       -0.755644    2.911313    0.121267
     14          1           0        1.000733    2.718604   -0.129591
     15          6           0       -1.504600    0.307082    0.053436
     16          8           0       -2.476628    1.053617    0.036418
     17          7           0       -1.593285   -1.051694    0.012269
     18          1           0       -0.729805   -1.574579    0.051247
     19          6           0       -2.861826   -1.755499    0.004290
     20          1           0       -3.650850   -1.006033   -0.073457
     21          1           0       -2.927804   -2.439321   -0.850088
     22          1           0       -3.005968   -2.330555    0.927294
 ---------------------------------------------------------------------

 The electronic state is 1-A.
 Alpha  occ. eigenvalues --  -19.11913 -19.10889 -14.37125 -14.36025 -10.29750
 Alpha  occ. eigenvalues --  -10.28328 -10.23424 -10.21803 -10.20153 -10.17969
 Alpha  occ. eigenvalues --   -1.03995  -1.02818  -0.93509  -0.91401  -0.78049
 Alpha  occ. eigenvalues --   -0.73312  -0.71263  -0.64081  -0.59483  -0.57970
 Alpha  occ. eigenvalues --   -0.53685  -0.48641  -0.48261  -0.45827  -0.45390
 Alpha  occ. eigenvalues --   -0.44387  -0.42206  -0.42005  -0.40567  -0.40018
 Alpha  occ. eigenvalues --   -0.38935  -0.38262  -0.36804  -0.36297  -0.35042
 Alpha  occ. eigenvalues --   -0.27613  -0.25812  -0.25177  -0.24044
 Alpha virt. eigenvalues --    0.01740   0.02737   0.06617   0.09727   0.11841
 Alpha virt. eigenvalues --    0.12629   0.12905   0.14562   0.15575   0.16054
 Alpha virt. eigenvalues --    0.16673   0.17396   0.17478   0.18353   0.19522

 Mulliken atomic charges:
              1
     1  H    0.190322
     2  C   -0.539963
     3  H    0.146194
     4  H    0.189037
     5  C    0.587517
     6  O   -0.493394
     7  N   -0.617683
     8  H    0.323698
     9  C   -0.061760
    10  H    0.210618
    11  C   -0.441338
    12  H    0.139961
    13  H    0.185725
    14  H    0.152881
    15  C    0.596597
    16  O   -0.523949
    17  N   -0.586091
    18  H    0.334509
    19  C   -0.309618
    20  H    0.203388
    21  H    0.153450
    22  H    0.159901
 Sum of Mulliken atomic charges =   0.00000

 Dipole moment (field-independent basis, Debye):
    X=              1.3095    Y=             -2.7390    Z=             -3.1128  Tot=              4.3482
 Quadrupole moment (field-independent basis, Debye-Ang):
   XX=            -65.8564   YY=            -56.7166   ZZ=            -61.2419
   XY=              5.7218   XZ=             -7.5535   YZ=              0.5157

 Normal termination of Gaussian 09 at Fri Feb 10 22:13:32 2017.
