 Gaussian 09, Revision A.02,
 Gaussian 09:  EM64L-G09RevA.02 11-Jun-2009

 ----------------------------------------------------------------------
 # b3lyp/6-31G* Opt=(ModRedundant, maxcycles=1000, calcfc) geom=nocrowd
 ----------------------------------------------------------------------

 ------------------
 Phi Psi fixed scan
 ------------------
 Symbolic Z-matrix:
 Charge =  0 Multiplicity = 1

 SCF Done:  E(RB3LYP) =  -495.832955325     A.U. after   15 cycles

  Exact polarizability:   0.000   0.000   0.000   0.000   0.000   0.000
 Approx polarizability: 117.427   0.434 118.342   4.104 -22.061 100.934

 SCF Done:  E(RB3LYP) =  -495.837610558     A.U. after   12 cycles
 SCF Done:  E(RB3LYP) =  -495.843906435     A.U. after   13 cycles
 SCF Done:  E(RB3LYP) =  -495.837274934     A.U. after   13 cycles
 SCF Done:  E(RB3LYP) =  -495.844853610     A.U. after   13 cycles
 SCF Done:  E(RB3LYP) =  -495.843317291     A.U. after   13 cycles
 SCF Done:  E(RB3LYP) =  -495.844858008     A.U. after   13 cycles
 SCF Done:  E(RB3LYP) =  -495.845243746     A.U. after   12 cycles
 SCF Done:  E(RB3LYP) =  -495.845934298     A.U. after   12 cycles
 SCF Done:  E(RB3LYP) =  -495.846219139     A.U. after   12 cycles
 SCF Done:  E(RB3LYP) =  -495.846940628     A.U. after   10 cycles
 SCF Done:  E(RB3LYP) =  -495.846948985     A.U. after   10 cycles
 SCF Done:  E(RB3LYP) =  -495.846953591     A.U. after   16 cycles
 SCF Done:  E(RB3LYP) =  -495.846955418     A.U. after    9 cycles
 SCF Done:  E(RB3LYP) =  -495.846959419     A.U. after   10 cycles
 SCF Done:  E(RB3LYP) =  -495.846960917     A.U. after   11 cycles
 SCF Done:  E(RB3LYP) =  -495.846960588     A.U. after   11 cycles
 SCF Done:  E(RB3LYP) =  -495.846962974     A.U. after   10 cycles
 SCF Done:  E(RB3LYP) =  -495.846963146     A.U. after    9 cycles
 SCF Done:  E(RB3LYP) =  -495.846963164     A.U. after    6 cycles
 Optimization completed.
    -- Stationary point found.

                         Standard orientation:
 ---------------------------------------------------------------------
 Center     Atomic      Atomic             Coordinates (Angstroms)
 Number     Number       Type             X           Y           Z
 ---------------------------------------------------------------------
      1          1           0        3.753083   -1.715129    0.302250
      2          6           0        3.178924   -1.168589   -0.449423
      3          1           0        2.720372   -1.879853   -1.143938
      4          1           0        3.881345   -0.538620   -1.007578
      5          6           0        2.167410   -0.280002    0.259398
      6          8           0        2.433777    0.318489    1.288893
      7          7           0        0.920262   -0.219564   -0.342889
      8          1           0        0.896637   -0.512386   -1.313946
      9          6           0       -0.037939    0.827465    0.022171
     10          1           0        0.301372    1.204997    0.990232
     11          6           0       -0.054434    1.983634   -0.988797
     12          1           0       -0.328166    1.628126   -1.990478
     13          1           0       -0.791404    2.728757   -0.679429
     14          1           0        0.931655    2.455800   -1.041697
     15          6           0       -1.470395    0.306841    0.236884
     16          8           0       -2.327403    1.046082    0.704785
     17          7           0       -1.732118   -0.948894   -0.236372
     18          1           0       -0.929701   -1.553711   -0.353240
     19          6           0       -3.031641   -1.569257   -0.031424
     20          1           0       -3.785583   -0.780896   -0.036713
     21          1           0       -3.235413   -2.276007   -0.841428
     22          1           0       -3.093748   -2.098990    0.928518
 ---------------------------------------------------------------------

 The electronic state is 1-A.
 Alpha  occ. eigenvalues --  -19.12123 -19.10903 -14.37087 -14.36141 -10.29819
 Alpha  occ. eigenvalues --  -10.28269 -10.23339 -10.21848 -10.20169 -10.18786
 Alpha  occ. eigenvalues --   -1.04121  -1.02887  -0.93558  -0.91444  -0.78195
 Alpha  occ. eigenvalues --   -0.73489  -0.71085  -0.64459  -0.59287  -0.57863
 Alpha  occ. eigenvalues --   -0.53637  -0.48656  -0.48219  -0.45880  -0.45393
 Alpha  occ. eigenvalues --   -0.43842  -0.42603  -0.41980  -0.41120  -0.40523
 Alpha  occ. eigenvalues --   -0.39213  -0.38275  -0.37112  -0.36300  -0.34685
 Alpha  occ. eigenvalues --   -0.28081  -0.25932  -0.25515  -0.23905
 Alpha virt. eigenvalues --    0.01423   0.02611   0.05719   0.10206   0.11777
 Alpha virt. eigenvalues --    0.12243   0.13349   0.14371   0.15076   0.15618
 Alpha virt. eigenvalues --    0.16619   0.17374   0.17945   0.18148   0.19512

 Mulliken atomic charges:
              1
     1  H    0.193204
     2  C   -0.542305
     3  H    0.147507
     4  H    0.186134
     5  C    0.587138
     6  O   -0.484129
     7  N   -0.619249
     8  H    0.320209
     9  C   -0.053832
    10  H    0.211327
    11  C   -0.453795
    12  H    0.139333
    13  H    0.189393
    14  H    0.159695
    15  C    0.596467
    16  O   -0.518981
    17  N   -0.591848
    18  H    0.329075
    19  C   -0.307391
    20  H    0.198806
    21  H    0.151671
    22  H    0.161569
 Sum of Mulliken atomic charges =   0.00000

 Dipole moment (field-independent basis, Debye):
    X=              0.9687    Y=             -3.4450    Z=             -4.0943  Tot=              5.4377
 Quadrupole moment (field-independent basis, Debye-Ang):
   XX=            -64.3998   YY=            -56.8108   ZZ=            -62.3374
   XY=              3.3032   XZ=             -4.1516   YZ=             -1.8118

 Normal termination of Gaussian 09 at Fri Feb 10 22:20:17 2017.
