 Gaussian 09, Revision A.02,
 Gaussian 09:  EM64L-G09RevA.02 11-Jun-2009

 ----------------------------------------------------------------------
 # b3lyp/6-31G* Opt=(ModRedundant, maxcycles=1000, calcfc) geom=nocrowd
 ----------------------------------------------------------------------

 ------------------
 Phi Psi fixed scan
 ------------------
 Symbolic Z-matrix:
 Charge =  0 Multiplicity = 1

 SCF Done:  E(RB3LYP) =  -495.841937963     A.U. after   15 cycles

  Exact polarizability:   0.000   0.000   0.000   0.000   0.000   0.000
 Approx polarizability: 115.841 -10.367 111.032  14.584  -5.753 109.839

 SCF Done:  E(RB3LYP) =  -495.844931709     A.U. after   11 cycles
 SCF Done:  E(RB3LYP) =  -495.848083626     A.U. after   12 cycles
 SCF Done:  E(RB3LYP) =  -495.848639253     A.U. after   12 cycles
 SCF Done:  E(RB3LYP) =  -495.824065218     A.U. after   13 cycles
 SCF Done:  E(RB3LYP) =  -495.833131534     A.U. after   12 cycles
 SCF Done:  E(RB3LYP) =  -495.839538090     A.U. after   12 cycles
 SCF Done:  E(RB3LYP) =  -495.843827819     A.U. after   12 cycles
 SCF Done:  E(RB3LYP) =  -495.846222258     A.U. after   12 cycles
 SCF Done:  E(RB3LYP) =  -495.846635740     A.U. after   12 cycles
 SCF Done:  E(RB3LYP) =  -495.848639342     A.U. after   13 cycles
 SCF Done:  E(RB3LYP) =  -495.848777277     A.U. after   12 cycles
 SCF Done:  E(RB3LYP) =  -495.847976983     A.U. after   13 cycles
 SCF Done:  E(RB3LYP) =  -495.848875895     A.U. after   13 cycles
 SCF Done:  E(RB3LYP) =  -495.848901890     A.U. after   10 cycles
 SCF Done:  E(RB3LYP) =  -495.848927516     A.U. after   11 cycles
 SCF Done:  E(RB3LYP) =  -495.848932784     A.U. after   10 cycles
 SCF Done:  E(RB3LYP) =  -495.848934946     A.U. after   10 cycles
 SCF Done:  E(RB3LYP) =  -495.848935379     A.U. after    9 cycles
 SCF Done:  E(RB3LYP) =  -495.848935481     A.U. after    7 cycles
 Optimization completed.
    -- Stationary point found.

                         Standard orientation:
 ---------------------------------------------------------------------
 Center     Atomic      Atomic             Coordinates (Angstroms)
 Number     Number       Type             X           Y           Z
 ---------------------------------------------------------------------
      1          1           0        3.551702   -1.840893   -0.481383
      2          6           0        3.130442   -0.912268   -0.874263
      3          1           0        2.733491   -1.090649   -1.878707
      4          1           0        3.947168   -0.185092   -0.945717
      5          6           0        2.090973   -0.391943    0.107053
      6          8           0        2.272582   -0.407363    1.317835
      7          7           0        0.933422    0.083464   -0.461458
      8          1           0        0.898473    0.177053   -1.468538
      9          6           0       -0.061990    0.832048    0.308155
     10          1           0        0.163892    0.600713    1.354290
     11          6           0        0.039914    2.339847    0.078308
     12          1           0       -0.156518    2.591884   -0.968712
     13          1           0       -0.701501    2.868422    0.683574
     14          1           0        1.039602    2.690258    0.352775
     15          6           0       -1.478486    0.309789   -0.021869
     16          8           0       -2.353452    1.034091   -0.481452
     17          7           0       -1.663365   -1.010871    0.264833
     18          1           0       -0.865827   -1.540006    0.589368
     19          6           0       -2.910704   -1.706323    0.007677
     20          1           0       -3.639733   -0.960394   -0.311939
     21          1           0       -2.799195   -2.457884   -0.784242
     22          1           0       -3.275885   -2.202294    0.914173
 ---------------------------------------------------------------------

 The electronic state is 1-A.
 Alpha  occ. eigenvalues --  -19.11575 -19.11255 -14.36853 -14.36139 -10.29462
 Alpha  occ. eigenvalues --  -10.28444 -10.23354 -10.21863 -10.19905 -10.17832
 Alpha  occ. eigenvalues --   -1.03718  -1.02989  -0.93159  -0.91579  -0.77975
 Alpha  occ. eigenvalues --   -0.73151  -0.71271  -0.63987  -0.59305  -0.58129
 Alpha  occ. eigenvalues --   -0.53502  -0.48379  -0.48040  -0.46063  -0.45203
 Alpha  occ. eigenvalues --   -0.44592  -0.42123  -0.41932  -0.40309  -0.39907
 Alpha  occ. eigenvalues --   -0.38976  -0.37640  -0.37178  -0.36084  -0.35446
 Alpha  occ. eigenvalues --   -0.27309  -0.25555  -0.25099  -0.24234
 Alpha virt. eigenvalues --    0.01830   0.02584   0.07143   0.08884   0.11883
 Alpha virt. eigenvalues --    0.12477   0.12555   0.14863   0.15795   0.16193
 Alpha virt. eigenvalues --    0.16752   0.17351   0.17702   0.18691   0.19570

 Mulliken atomic charges:
              1
     1  H    0.188388
     2  C   -0.538862
     3  H    0.148137
     4  H    0.187522
     5  C    0.586803
     6  O   -0.504620
     7  N   -0.596442
     8  H    0.326185
     9  C   -0.071788
    10  H    0.195728
    11  C   -0.433045
    12  H    0.152746
    13  H    0.168624
    14  H    0.150421
    15  C    0.595581
    16  O   -0.517176
    17  N   -0.581247
    18  H    0.336689
    19  C   -0.310762
    20  H    0.202897
    21  H    0.154935
    22  H    0.159282
 Sum of Mulliken atomic charges =   0.00000

 Dipole moment (field-independent basis, Debye):
    X=              0.9138    Y=             -2.0968    Z=             -2.1079  Tot=              3.1104
 Quadrupole moment (field-independent basis, Debye-Ang):
   XX=            -64.5245   YY=            -57.1475   ZZ=            -61.1807
   XY=              7.0568   XZ=             -9.9801   YZ=              1.7866

 Normal termination of Gaussian 09 at Fri Feb 10 22:35:40 2017.
