 Gaussian 09, Revision A.02,
 Gaussian 09:  EM64L-G09RevA.02 11-Jun-2009

 ----------------------------------------------------------------------
 # b3lyp/6-31G* Opt=(ModRedundant, maxcycles=1000, calcfc) geom=nocrowd
 ----------------------------------------------------------------------

 ------------------
 Phi Psi fixed scan
 ------------------
 Symbolic Z-matrix:
 Charge =  0 Multiplicity = 1

 SCF Done:  E(RB3LYP) =  -495.831946924     A.U. after   15 cycles

  Exact polarizability:   0.000   0.000   0.000   0.000   0.000   0.000
 Approx polarizability: 124.014  -7.561 109.929  12.753   3.989 103.798

 SCF Done:  E(RB3LYP) =  -495.837683541     A.U. after   12 cycles
 SCF Done:  E(RB3LYP) =  -495.843375367     A.U. after   16 cycles
 SCF Done:  E(RB3LYP) =  -495.844493773     A.U. after   14 cycles
 SCF Done:  E(RB3LYP) =  -495.841432778     A.U. after   13 cycles
 SCF Done:  E(RB3LYP) =  -495.844667556     A.U. after   12 cycles
 SCF Done:  E(RB3LYP) =  -495.843471878     A.U. after   12 cycles
 SCF Done:  E(RB3LYP) =  -495.844833106     A.U. after   12 cycles
 SCF Done:  E(RB3LYP) =  -495.845262667     A.U. after   12 cycles
 SCF Done:  E(RB3LYP) =  -495.845814238     A.U. after   12 cycles
 SCF Done:  E(RB3LYP) =  -495.846141900     A.U. after   12 cycles
 SCF Done:  E(RB3LYP) =  -495.846151893     A.U. after   10 cycles
 SCF Done:  E(RB3LYP) =  -495.846152903     A.U. after   10 cycles
 SCF Done:  E(RB3LYP) =  -495.846153439     A.U. after    7 cycles
 SCF Done:  E(RB3LYP) =  -495.846154316     A.U. after    9 cycles
 SCF Done:  E(RB3LYP) =  -495.846155473     A.U. after    9 cycles
 SCF Done:  E(RB3LYP) =  -495.846156554     A.U. after    9 cycles
 SCF Done:  E(RB3LYP) =  -495.846157478     A.U. after    8 cycles
 SCF Done:  E(RB3LYP) =  -495.846157540     A.U. after    7 cycles
 SCF Done:  E(RB3LYP) =  -495.846157494     A.U. after    6 cycles
 Optimization completed.
    -- Stationary point found.

                         Standard orientation:
 ---------------------------------------------------------------------
 Center     Atomic      Atomic             Coordinates (Angstroms)
 Number     Number       Type             X           Y           Z
 ---------------------------------------------------------------------
      1          1           0       -4.259974   -0.717932    0.544361
      2          6           0       -3.251889   -1.136163    0.504998
      3          1           0       -3.270783   -1.994924   -0.176575
      4          1           0       -2.963237   -1.490151    1.499641
      5          6           0       -2.302495   -0.084546   -0.046766
      6          8           0       -2.639361    0.724901   -0.900942
      7          7           0       -1.035494   -0.096437    0.495811
      8          1           0       -0.752032   -0.970905    0.922914
      9          6           0        0.039924    0.612984   -0.200539
     10          1           0       -0.273593    0.723076   -1.247527
     11          6           0        0.233901    2.019208    0.380316
     12          1           0        0.558504    1.985598    1.426498
     13          1           0        0.954294    2.604323   -0.205569
     14          1           0       -0.722411    2.546573    0.336133
     15          6           0        1.268227   -0.319201   -0.212679
     16          8           0        1.131992   -1.515740   -0.453471
     17          7           0        2.466942    0.243122    0.103482
     18          1           0        2.506217    1.233733    0.288537
     19          6           0        3.711166   -0.507317    0.079876
     20          1           0        3.458362   -1.554529   -0.089429
     21          1           0        4.371680   -0.163297   -0.725303
     22          1           0        4.238787   -0.411433    1.035334
 ---------------------------------------------------------------------

 The electronic state is 1-A.
 Alpha  occ. eigenvalues --  -19.11648 -19.10814 -14.37205 -14.35250 -10.29246
 Alpha  occ. eigenvalues --  -10.28245 -10.23430 -10.22470 -10.18966 -10.18751
 Alpha  occ. eigenvalues --   -1.03909  -1.02543  -0.92845  -0.91617  -0.78011
 Alpha  occ. eigenvalues --   -0.72858  -0.71004  -0.65007  -0.59169  -0.57337
 Alpha  occ. eigenvalues --   -0.53706  -0.48478  -0.47427  -0.45544  -0.45319
 Alpha  occ. eigenvalues --   -0.44347  -0.42497  -0.41821  -0.39967  -0.39469
 Alpha  occ. eigenvalues --   -0.39446  -0.38346  -0.37920  -0.36845  -0.33900
 Alpha  occ. eigenvalues --   -0.26162  -0.25694  -0.25475  -0.24469
 Alpha virt. eigenvalues --    0.01822   0.03092   0.07171   0.09482   0.11415
 Alpha virt. eigenvalues --    0.13252   0.14290   0.14510   0.15188   0.15931
 Alpha virt. eigenvalues --    0.16010   0.16460   0.18054   0.19003   0.19118

 Mulliken atomic charges:
              1
     1  H    0.184978
     2  C   -0.541987
     3  H    0.186219
     4  H    0.154450
     5  C    0.586166
     6  O   -0.504558
     7  N   -0.584079
     8  H    0.335602
     9  C   -0.015384
    10  H    0.195921
    11  C   -0.475003
    12  H    0.150752
    13  H    0.138526
    14  H    0.189957
    15  C    0.564075
    16  O   -0.523929
    17  N   -0.591737
    18  H    0.335165
    19  C   -0.313520
    20  H    0.207103
    21  H    0.161850
    22  H    0.159434
 Sum of Mulliken atomic charges =   0.00000

 Dipole moment (field-independent basis, Debye):
    X=              3.1630    Y=              0.8164    Z=              2.4340  Tot=              4.0737
 Quadrupole moment (field-independent basis, Debye-Ang):
   XX=            -54.0596   YY=            -61.2063   ZZ=            -61.4993
   XY=              9.7563   XZ=             -3.8052   YZ=             -0.8682

 Normal termination of Gaussian 09 at Fri Feb 10 22:11:10 2017.
