 Gaussian 09, Revision A.02,
 Gaussian 09:  EM64L-G09RevA.02 11-Jun-2009

 ----------------------------------------------------------------------
 # b3lyp/6-31G* Opt=(ModRedundant, maxcycles=1000, calcfc) geom=nocrowd
 ----------------------------------------------------------------------

 ------------------
 Phi Psi fixed scan
 ------------------
 Symbolic Z-matrix:
 Charge =  0 Multiplicity = 1

 SCF Done:  E(RB3LYP) =  -495.844252145     A.U. after   14 cycles

  Exact polarizability:   0.000   0.000   0.000   0.000   0.000   0.000
 Approx polarizability: 111.290   2.821 100.122   8.477  17.441 125.156

 SCF Done:  E(RB3LYP) =  -495.846874851     A.U. after   11 cycles
 SCF Done:  E(RB3LYP) =  -495.849535915     A.U. after   12 cycles
 SCF Done:  E(RB3LYP) =  -495.849826477     A.U. after   12 cycles
 SCF Done:  E(RB3LYP) =  -495.691076173     A.U. after   15 cycles
 SCF Done:  E(RB3LYP) =  -495.724573705     A.U. after   12 cycles
 SCF Done:  E(RB3LYP) =  -495.752906498     A.U. after   15 cycles
 SCF Done:  E(RB3LYP) =  -495.776571525     A.U. after   11 cycles
 SCF Done:  E(RB3LYP) =  -495.796042831     A.U. after   11 cycles
 SCF Done:  E(RB3LYP) =  -495.811783691     A.U. after   11 cycles
 SCF Done:  E(RB3LYP) =  -495.849903769     A.U. after   11 cycles
 SCF Done:  E(RB3LYP) =  -495.844679350     A.U. after   13 cycles
 SCF Done:  E(RB3LYP) =  -495.849937774     A.U. after   13 cycles
 SCF Done:  E(RB3LYP) =  -495.849988840     A.U. after   10 cycles
 SCF Done:  E(RB3LYP) =  -495.850043340     A.U. after   11 cycles
 SCF Done:  E(RB3LYP) =  -495.850061847     A.U. after   10 cycles
 SCF Done:  E(RB3LYP) =  -495.850069250     A.U. after   10 cycles
 SCF Done:  E(RB3LYP) =  -495.850069704     A.U. after    8 cycles
 SCF Done:  E(RB3LYP) =  -495.850069785     A.U. after    8 cycles
 SCF Done:  E(RB3LYP) =  -495.850069775     A.U. after    7 cycles
 Optimization completed.
    -- Stationary point found.

                         Standard orientation:
 ---------------------------------------------------------------------
 Center     Atomic      Atomic             Coordinates (Angstroms)
 Number     Number       Type             X           Y           Z
 ---------------------------------------------------------------------
      1          1           0       -3.391216   -1.959687    0.709710
      2          6           0       -3.161964   -0.909302    0.911513
      3          1           0       -2.839395   -0.806499    1.952293
      4          1           0       -4.086845   -0.340854    0.769522
      5          6           0       -2.132518   -0.430482   -0.101395
      6          8           0       -2.301096   -0.560477   -1.308856
      7          7           0       -1.011219    0.145491    0.430876
      8          1           0       -0.926125    0.267041    1.431216
      9          6           0        0.042199    0.729648   -0.394044
     10          1           0       -0.128675    0.338020   -1.400414
     11          6           0       -0.016796    2.260276   -0.413287
     12          1           0        0.165029    2.657699    0.589539
     13          1           0        0.749886    2.667587   -1.082460
     14          1           0       -0.998061    2.592126   -0.765254
     15          6           0        1.382730    0.243031    0.180878
     16          8           0        1.806651    0.682717    1.246056
     17          7           0        2.010257   -0.724628   -0.542496
     18          1           0        1.563089   -1.059016   -1.384212
     19          6           0        3.246813   -1.353478   -0.111170
     20          1           0        3.567260   -0.848760    0.801175
     21          1           0        3.098079   -2.418883    0.102040
     22          1           0        4.026496   -1.250895   -0.874388
 ---------------------------------------------------------------------

 The electronic state is 1-A.
 Alpha  occ. eigenvalues --  -19.11488 -19.10654 -14.36937 -14.36142 -10.28796
 Alpha  occ. eigenvalues --  -10.28722 -10.23362 -10.22214 -10.19217 -10.18024
 Alpha  occ. eigenvalues --   -1.03592  -1.02583  -0.92638  -0.92049  -0.77877
 Alpha  occ. eigenvalues --   -0.72837  -0.71413  -0.64184  -0.59103  -0.58550
 Alpha  occ. eigenvalues --   -0.53530  -0.48115  -0.47215  -0.46246  -0.45317
 Alpha  occ. eigenvalues --   -0.44610  -0.42148  -0.41658  -0.40725  -0.39555
 Alpha  occ. eigenvalues --   -0.39475  -0.37587  -0.36723  -0.36100  -0.34983
 Alpha  occ. eigenvalues --   -0.26679  -0.25768  -0.24684  -0.24269
 Alpha virt. eigenvalues --    0.01660   0.03877   0.07317   0.08180   0.11988
 Alpha virt. eigenvalues --    0.12686   0.13070   0.15332   0.16129   0.16365
 Alpha virt. eigenvalues --    0.16786   0.17319   0.17930   0.18406   0.20133

 Mulliken atomic charges:
              1
     1  H    0.185371
     2  C   -0.534111
     3  H    0.146214
     4  H    0.185601
     5  C    0.593533
     6  O   -0.514763
     7  N   -0.594893
     8  H    0.334555
     9  C   -0.042017
    10  H    0.170412
    11  C   -0.443733
    12  H    0.168686
    13  H    0.150739
    14  H    0.159822
    15  C    0.606372
    16  O   -0.531254
    17  N   -0.588547
    18  H    0.334996
    19  C   -0.313500
    20  H    0.205275
    21  H    0.161009
    22  H    0.160232
 Sum of Mulliken atomic charges =   0.00000

 Dipole moment (field-independent basis, Debye):
    X=              0.8350    Y=             -1.1569    Z=              0.2968  Tot=              1.4573
 Quadrupole moment (field-independent basis, Debye-Ang):
   XX=            -59.0036   YY=            -57.7042   ZZ=            -62.6734
   XY=             -5.9765   XZ=            -13.1543   YZ=             -2.3153

 Normal termination of Gaussian 09 at Fri Feb 10 22:19:59 2017.
