 Gaussian 09, Revision A.02,
 Gaussian 09:  EM64L-G09RevA.02 11-Jun-2009

 ----------------------------------------------------------------------
 # b3lyp/6-31G* Opt=(ModRedundant, maxcycles=1000, calcfc) geom=nocrowd
 ----------------------------------------------------------------------

 ------------------
 Phi Psi fixed scan
 ------------------
 Symbolic Z-matrix:
 Charge =  0 Multiplicity = 1

 SCF Done:  E(RB3LYP) =  -495.840949440     A.U. after   15 cycles

  Exact polarizability:   0.000   0.000   0.000   0.000   0.000   0.000
 Approx polarizability: 119.497  -6.382 118.012   8.275  13.172 100.199

 SCF Done:  E(RB3LYP) =  -495.844194209     A.U. after   12 cycles
 SCF Done:  E(RB3LYP) =  -495.847982618     A.U. after   12 cycles
 SCF Done:  E(RB3LYP) =  -495.849206074     A.U. after   13 cycles
 SCF Done:  E(RB3LYP) =  -495.849109914     A.U. after   13 cycles
 SCF Done:  E(RB3LYP) =  -495.849542980     A.U. after   12 cycles
 SCF Done:  E(RB3LYP) =  -495.849701122     A.U. after   12 cycles
 SCF Done:  E(RB3LYP) =  -495.849282988     A.U. after   13 cycles
 SCF Done:  E(RB3LYP) =  -495.849837570     A.U. after   13 cycles
 SCF Done:  E(RB3LYP) =  -495.849874036     A.U. after   11 cycles
 SCF Done:  E(RB3LYP) =  -495.849882795     A.U. after   10 cycles
 SCF Done:  E(RB3LYP) =  -495.849888998     A.U. after   10 cycles
 SCF Done:  E(RB3LYP) =  -495.849895992     A.U. after   10 cycles
 SCF Done:  E(RB3LYP) =  -495.849915252     A.U. after   10 cycles
 SCF Done:  E(RB3LYP) =  -495.849937462     A.U. after   10 cycles
 SCF Done:  E(RB3LYP) =  -495.849949904     A.U. after   11 cycles
 SCF Done:  E(RB3LYP) =  -495.849950915     A.U. after    7 cycles
 SCF Done:  E(RB3LYP) =  -495.849952237     A.U. after   10 cycles
 SCF Done:  E(RB3LYP) =  -495.849952299     A.U. after    7 cycles
 Optimization completed on the basis of negligible forces.
    -- Stationary point found.

                         Standard orientation:
 ---------------------------------------------------------------------
 Center     Atomic      Atomic             Coordinates (Angstroms)
 Number     Number       Type             X           Y           Z
 ---------------------------------------------------------------------
      1          1           0        3.649673   -1.805348    0.022045
      2          6           0        3.148747   -1.075181   -0.617981
      3          1           0        2.720315   -1.586723   -1.485949
      4          1           0        3.909657   -0.369106   -0.969895
      5          6           0        2.119655   -0.322231    0.211928
      6          8           0        2.342162    0.034235    1.358852
      7          7           0        0.913944   -0.086053   -0.421683
      8          1           0        0.893403   -0.218789   -1.426112
      9          6           0       -0.061583    0.858428    0.125229
     10          1           0        0.219143    0.973050    1.178012
     11          6           0        0.002305    2.227602   -0.560790
     12          1           0       -0.180270    2.137360   -1.638994
     13          1           0       -0.766831    2.881869   -0.145650
     14          1           0        0.986784    2.680645   -0.409239
     15          6           0       -1.502904    0.308657    0.109418
     16          8           0       -2.459263    1.057702    0.273813
     17          7           0       -1.618193   -1.033776   -0.092984
     18          1           0       -0.760943   -1.568679   -0.113297
     19          6           0       -2.893188   -1.722883   -0.014550
     20          1           0       -3.678665   -0.966814   -0.055538
     21          1           0       -3.009647   -2.414796   -0.855845
     22          1           0       -2.994257   -2.285711    0.922289
 ---------------------------------------------------------------------

 The electronic state is 1-A.
 Alpha  occ. eigenvalues --  -19.12061 -19.10762 -14.37152 -14.36031 -10.29833
 Alpha  occ. eigenvalues --  -10.28280 -10.23417 -10.21788 -10.20200 -10.18184
 Alpha  occ. eigenvalues --   -1.04100  -1.02760  -0.93576  -0.91377  -0.78090
 Alpha  occ. eigenvalues --   -0.73384  -0.71223  -0.64180  -0.59454  -0.57909
 Alpha  occ. eigenvalues --   -0.53716  -0.48685  -0.48275  -0.45834  -0.45429
 Alpha  occ. eigenvalues --   -0.44185  -0.42329  -0.41959  -0.40696  -0.40295
 Alpha  occ. eigenvalues --   -0.38989  -0.38334  -0.36824  -0.36339  -0.34821
 Alpha  occ. eigenvalues --   -0.27784  -0.25895  -0.25279  -0.23945
 Alpha virt. eigenvalues --    0.01567   0.02959   0.06328   0.10038   0.11837
 Alpha virt. eigenvalues --    0.12609   0.13137   0.14325   0.15258   0.15932
 Alpha virt. eigenvalues --    0.16735   0.17447   0.17519   0.18297   0.19527

 Mulliken atomic charges:
              1
     1  H    0.191737
     2  C   -0.541507
     3  H    0.147185
     4  H    0.187956
     5  C    0.587713
     6  O   -0.489323
     7  N   -0.623240
     8  H    0.323114
     9  C   -0.056372
    10  H    0.213073
    11  C   -0.447648
    12  H    0.138071
    13  H    0.190496
    14  H    0.154808
    15  C    0.599298
    16  O   -0.525530
    17  N   -0.590474
    18  H    0.333842
    19  C   -0.309144
    20  H    0.202669
    21  H    0.152938
    22  H    0.160337
 Sum of Mulliken atomic charges =   0.00000

 Dipole moment (field-independent basis, Debye):
    X=              1.3302    Y=             -2.9709    Z=             -3.4888  Tot=              4.7715
 Quadrupole moment (field-independent basis, Debye-Ang):
   XX=            -65.6791   YY=            -56.6948   ZZ=            -61.5018
   XY=              5.0814   XZ=             -6.3418   YZ=             -0.2706

 Normal termination of Gaussian 09 at Fri Feb 10 22:05:19 2017.
