 Gaussian 09, Revision A.02,
 Gaussian 09:  EM64L-G09RevA.02 11-Jun-2009

 ----------------------------------------------------------------------
 # b3lyp/6-31G* Opt=(ModRedundant, maxcycles=1000, calcfc) geom=nocrowd
 ----------------------------------------------------------------------

 ------------------
 Phi Psi fixed scan
 ------------------
 Symbolic Z-matrix:
 Charge =  0 Multiplicity = 1

 SCF Done:  E(RB3LYP) =  -495.833062574     A.U. after   16 cycles

  Exact polarizability:   0.000   0.000   0.000   0.000   0.000   0.000
 Approx polarizability: 117.008   8.482  97.889  11.308  13.393 122.497

 SCF Done:  E(RB3LYP) =  -495.836943619     A.U. after   12 cycles
 SCF Done:  E(RB3LYP) =  -495.841221651     A.U. after   12 cycles
 SCF Done:  E(RB3LYP) =  -495.842078064     A.U. after   13 cycles
 SCF Done:  E(RB3LYP) =  -495.834794896     A.U. after   13 cycles
 SCF Done:  E(RB3LYP) =  -495.842097777     A.U. after   13 cycles
 SCF Done:  E(RB3LYP) =  -495.842276913     A.U. after   12 cycles
 SCF Done:  E(RB3LYP) =  -495.838534868     A.U. after   12 cycles
 SCF Done:  E(RB3LYP) =  -495.842353432     A.U. after   13 cycles
 SCF Done:  E(RB3LYP) =  -495.842419817     A.U. after   12 cycles
 SCF Done:  E(RB3LYP) =  -495.842438644     A.U. after   10 cycles
 SCF Done:  E(RB3LYP) =  -495.842454391     A.U. after   11 cycles
 SCF Done:  E(RB3LYP) =  -495.842469555     A.U. after   11 cycles
 SCF Done:  E(RB3LYP) =  -495.842480873     A.U. after   11 cycles
 SCF Done:  E(RB3LYP) =  -495.842482868     A.U. after   10 cycles
 SCF Done:  E(RB3LYP) =  -495.842483960     A.U. after   10 cycles
 SCF Done:  E(RB3LYP) =  -495.842483135     A.U. after   11 cycles
 SCF Done:  E(RB3LYP) =  -495.842483557     A.U. after    8 cycles
 SCF Done:  E(RB3LYP) =  -495.842483255     A.U. after    7 cycles
 SCF Done:  E(RB3LYP) =  -495.842483328     A.U. after    7 cycles
 Optimization completed.
    -- Stationary point found.

                         Standard orientation:
 ---------------------------------------------------------------------
 Center     Atomic      Atomic             Coordinates (Angstroms)
 Number     Number       Type             X           Y           Z
 ---------------------------------------------------------------------
      1          1           0        3.987228   -1.042705   -0.906808
      2          6           0        3.054260   -1.419511   -0.478832
      3          1           0        3.318143   -2.063548    0.366700
      4          1           0        2.532494   -2.021289   -1.229958
      5          6           0        2.241740   -0.241322    0.038456
      6          8           0        2.726197    0.616170    0.764612
      7          7           0        0.932488   -0.205380   -0.370505
      8          1           0        0.563071   -0.979261   -0.904792
      9          6           0       -0.013013    0.777005    0.164448
     10          1           0        0.398242    1.108623    1.119571
     11          6           0       -0.160181    1.994403   -0.760843
     12          1           0       -0.462825    1.713157   -1.777663
     13          1           0       -0.894009    2.704453   -0.362905
     14          1           0        0.805817    2.501869   -0.836843
     15          6           0       -1.331940    0.059082    0.506725
     16          8           0       -1.625356   -0.244915    1.653500
     17          7           0       -2.108681   -0.275910   -0.574723
     18          1           0       -1.914134    0.174910   -1.457779
     19          6           0       -3.407308   -0.911763   -0.412372
     20          1           0       -3.394887   -1.458810    0.530989
     21          1           0       -4.223741   -0.178534   -0.377094
     22          1           0       -3.590121   -1.607241   -1.237214
 ---------------------------------------------------------------------

 The electronic state is 1-A.
 Alpha  occ. eigenvalues --  -19.11704 -19.10694 -14.37075 -14.36327 -10.29009
 Alpha  occ. eigenvalues --  -10.28679 -10.23394 -10.22484 -10.19277 -10.19228
 Alpha  occ. eigenvalues --   -1.03776  -1.02692  -0.93087  -0.91813  -0.78231
 Alpha  occ. eigenvalues --   -0.73040  -0.71244  -0.65154  -0.58992  -0.58675
 Alpha  occ. eigenvalues --   -0.53834  -0.48840  -0.47331  -0.46173  -0.44888
 Alpha  occ. eigenvalues --   -0.44298  -0.42647  -0.41986  -0.41108  -0.39942
 Alpha  occ. eigenvalues --   -0.39488  -0.38350  -0.37242  -0.36545  -0.34717
 Alpha  occ. eigenvalues --   -0.27102  -0.26086  -0.24724  -0.24025
 Alpha virt. eigenvalues --    0.01127   0.03717   0.05765   0.08029   0.11221
 Alpha virt. eigenvalues --    0.12625   0.13640   0.14790   0.15383   0.15802
 Alpha virt. eigenvalues --    0.16466   0.17181   0.18197   0.18806   0.19164

 Mulliken atomic charges:
              1
     1  H    0.186461
     2  C   -0.535962
     3  H    0.189344
     4  H    0.141219
     5  C    0.599644
     6  O   -0.505041
     7  N   -0.603689
     8  H    0.322832
     9  C   -0.028811
    10  H    0.205900
    11  C   -0.458660
    12  H    0.128255
    13  H    0.160054
    14  H    0.183955
    15  C    0.565939
    16  O   -0.498268
    17  N   -0.591438
    18  H    0.326676
    19  C   -0.308261
    20  H    0.203232
    21  H    0.162437
    22  H    0.154182
 Sum of Mulliken atomic charges =   0.00000

 Dipole moment (field-independent basis, Debye):
    X=             -2.2381    Y=             -1.4242    Z=             -5.1390  Tot=              5.7833
 Quadrupole moment (field-independent basis, Debye-Ang):
   XX=            -60.6394   YY=            -56.8640   ZZ=            -63.8590
   XY=             -5.5563   XZ=              1.9480   YZ=              0.4868

 Normal termination of Gaussian 09 at Fri Feb 10 22:12:36 2017.
