 Gaussian 09, Revision A.02,
 Gaussian 09:  EM64L-G09RevA.02 11-Jun-2009

 ----------------------------------------------------------------------
 # b3lyp/6-31G* Opt=(ModRedundant, maxcycles=1000, calcfc) geom=nocrowd
 ----------------------------------------------------------------------

 ------------------
 Phi Psi fixed scan
 ------------------
 Symbolic Z-matrix:
 Charge =  0 Multiplicity = 1

 SCF Done:  E(RB3LYP) =  -495.842388539     A.U. after   15 cycles

  Exact polarizability:   0.000   0.000   0.000   0.000   0.000   0.000
 Approx polarizability: 117.946 -10.318 113.489  13.435   0.680 105.571

 SCF Done:  E(RB3LYP) =  -495.845794416     A.U. after   12 cycles
 SCF Done:  E(RB3LYP) =  -495.848839967     A.U. after   12 cycles
 SCF Done:  E(RB3LYP) =  -495.849226619     A.U. after   13 cycles
 SCF Done:  E(RB3LYP) =  -495.849473551     A.U. after   12 cycles
 SCF Done:  E(RB3LYP) =  -495.849234492     A.U. after   13 cycles
 SCF Done:  E(RB3LYP) =  -495.849485219     A.U. after   12 cycles
 SCF Done:  E(RB3LYP) =  -495.849502513     A.U. after   11 cycles
 SCF Done:  E(RB3LYP) =  -495.849509017     A.U. after   10 cycles
 SCF Done:  E(RB3LYP) =  -495.849509538     A.U. after    7 cycles
 SCF Done:  E(RB3LYP) =  -495.849509621     A.U. after    6 cycles
 SCF Done:  E(RB3LYP) =  -495.849509643     A.U. after    6 cycles
 SCF Done:  E(RB3LYP) =  -495.849509660     A.U. after    7 cycles
 SCF Done:  E(RB3LYP) =  -495.849509666     A.U. after    7 cycles
 Optimization completed.
    -- Stationary point found.

                         Standard orientation:
 ---------------------------------------------------------------------
 Center     Atomic      Atomic             Coordinates (Angstroms)
 Number     Number       Type             X           Y           Z
 ---------------------------------------------------------------------
      1          1           0        3.568907   -1.848428   -0.309401
      2          6           0        3.129931   -0.972121   -0.792669
      3          1           0        2.722243   -1.261191   -1.766674
      4          1           0        3.936018   -0.247257   -0.953002
      5          6           0        2.096939   -0.361979    0.142999
      6          8           0        2.295045   -0.243844    1.344391
      7          7           0        0.923706    0.036121   -0.457848
      8          1           0        0.886475    0.038157   -1.469367
      9          6           0       -0.068821    0.853198    0.241746
     10          1           0        0.169545    0.731216    1.304282
     11          6           0        0.025955    2.332337   -0.136630
     12          1           0       -0.151118    2.477700   -1.208130
     13          1           0       -0.731111    2.908736    0.399722
     14          1           0        1.018866    2.716966    0.115541
     15          6           0       -1.495628    0.306570    0.011678
     16          8           0       -2.444578    1.047672   -0.216042
     17          7           0       -1.606341   -1.046229    0.138858
     18          1           0       -0.757642   -1.574266    0.285207
     19          6           0       -2.869133   -1.749036    0.011772
     20          1           0       -3.644598   -0.999378   -0.152150
     21          1           0       -2.857906   -2.444030   -0.837015
     22          1           0       -3.100436   -2.311904    0.923742
 ---------------------------------------------------------------------

 The electronic state is 1-A.
 Alpha  occ. eigenvalues --  -19.11757 -19.11091 -14.37015 -14.36059 -10.29622
 Alpha  occ. eigenvalues --  -10.28388 -10.23397 -10.21834 -10.20051 -10.17852
 Alpha  occ. eigenvalues --   -1.03863  -1.02921  -0.93363  -0.91469  -0.78012
 Alpha  occ. eigenvalues --   -0.73231  -0.71272  -0.64012  -0.59429  -0.58036
 Alpha  occ. eigenvalues --   -0.53604  -0.48530  -0.48187  -0.45900  -0.45326
 Alpha  occ. eigenvalues --   -0.44522  -0.42101  -0.42046  -0.40439  -0.39849
 Alpha  occ. eigenvalues --   -0.38922  -0.38028  -0.36946  -0.36224  -0.35274
 Alpha  occ. eigenvalues --   -0.27468  -0.25700  -0.25096  -0.24162
 Alpha virt. eigenvalues --    0.01918   0.02441   0.06890   0.09347   0.11871
 Alpha virt. eigenvalues --    0.12538   0.12679   0.14684   0.15815   0.16047
 Alpha virt. eigenvalues --    0.16723   0.17402   0.17528   0.18468   0.19505

 Mulliken atomic charges:
              1
     1  H    0.189310
     2  C   -0.539826
     3  H    0.147300
     4  H    0.188380
     5  C    0.586262
     6  O   -0.498121
     7  N   -0.606918
     8  H    0.324492
     9  C   -0.068340
    10  H    0.204835
    11  C   -0.434907
    12  H    0.144795
    13  H    0.177639
    14  H    0.151124
    15  C    0.594002
    16  O   -0.520164
    17  N   -0.581750
    18  H    0.335291
    19  C   -0.310178
    20  H    0.203274
    21  H    0.153865
    22  H    0.159635
 Sum of Mulliken atomic charges =   0.00000

 Dipole moment (field-independent basis, Debye):
    X=              1.1605    Y=             -2.4577    Z=             -2.6756  Tot=              3.8139
 Quadrupole moment (field-independent basis, Debye-Ang):
   XX=            -65.5283   YY=            -56.8644   ZZ=            -61.1401
   XY=              6.3749   XZ=             -8.8027   YZ=              1.2373

 Normal termination of Gaussian 09 at Fri Feb 10 22:14:14 2017.
