 Gaussian 09, Revision A.02,
 Gaussian 09:  EM64L-G09RevA.02 11-Jun-2009

 ----------------------------------------------------------------------
 # b3lyp/6-31G* Opt=(ModRedundant, maxcycles=1000, calcfc) geom=nocrowd
 ----------------------------------------------------------------------

 ------------------
 Phi Psi fixed scan
 ------------------
 Symbolic Z-matrix:
 Charge =  0 Multiplicity = 1

 SCF Done:  E(RB3LYP) =  -495.845990618     A.U. after   14 cycles

  Exact polarizability:   0.000   0.000   0.000   0.000   0.000   0.000
 Approx polarizability: 112.810  -0.140  86.385   1.021  -4.292 135.741

 SCF Done:  E(RB3LYP) =  -495.848538511     A.U. after   12 cycles
 SCF Done:  E(RB3LYP) =  -495.851044450     A.U. after   12 cycles
 SCF Done:  E(RB3LYP) =  -495.851335815     A.U. after   12 cycles
 SCF Done:  E(RB3LYP) =  -495.646115379     A.U. after   15 cycles
 SCF Done:  E(RB3LYP) =  -495.689080507     A.U. after   12 cycles
 SCF Done:  E(RB3LYP) =  -495.725528396     A.U. after   12 cycles
 SCF Done:  E(RB3LYP) =  -495.756037176     A.U. after   12 cycles
 SCF Done:  E(RB3LYP) =  -495.781160680     A.U. after   12 cycles
 SCF Done:  E(RB3LYP) =  -495.801439287     A.U. after   12 cycles
 SCF Done:  E(RB3LYP) =  -495.851588983     A.U. after   11 cycles
 SCF Done:  E(RB3LYP) =  -495.851612434     A.U. after   10 cycles
 SCF Done:  E(RB3LYP) =  -495.851635749     A.U. after   11 cycles
 SCF Done:  E(RB3LYP) =  -495.851640743     A.U. after   11 cycles
 SCF Done:  E(RB3LYP) =  -495.851643497     A.U. after   10 cycles
 SCF Done:  E(RB3LYP) =  -495.851645058     A.U. after   10 cycles
 SCF Done:  E(RB3LYP) =  -495.851645489     A.U. after   10 cycles
 SCF Done:  E(RB3LYP) =  -495.851645493     A.U. after    6 cycles
 SCF Done:  E(RB3LYP) =  -495.851645487     A.U. after    7 cycles
 SCF Done:  E(RB3LYP) =  -495.851645484     A.U. after    6 cycles
 Optimization completed.
    -- Stationary point found.

                         Standard orientation:
 ---------------------------------------------------------------------
 Center     Atomic      Atomic             Coordinates (Angstroms)
 Number     Number       Type             X           Y           Z
 ---------------------------------------------------------------------
      1          1           0       -4.172526   -0.518830    0.567247
      2          6           0       -3.257739   -1.111430    0.465500
      3          1           0       -3.502718   -1.986003   -0.144634
      4          1           0       -2.939108   -1.444259    1.458084
      5          6           0       -2.214437   -0.280724   -0.266885
      6          8           0       -2.393435    0.125881   -1.410568
      7          7           0       -1.079818   -0.008628    0.443522
      8          1           0       -0.916103   -0.425462    1.351137
      9          6           0        0.045587    0.712597   -0.128990
     10          1           0       -0.102931    0.700435   -1.213064
     11          6           0        0.109607    2.168357    0.362605
     12          1           0        0.235257    2.195919    1.449662
     13          1           0        0.951809    2.699884   -0.095935
     14          1           0       -0.816292    2.686917    0.097145
     15          6           0        1.319978   -0.041644    0.274772
     16          8           0        1.476425   -0.427771    1.430869
     17          7           0        2.231668   -0.230807   -0.716647
     18          1           0        1.998187    0.080931   -1.648521
     19          6           0        3.505814   -0.896167   -0.501818
     20          1           0        3.562603   -1.156751    0.555748
     21          1           0        3.578966   -1.810941   -1.101296
     22          1           0        4.343128   -0.236606   -0.757205
 ---------------------------------------------------------------------

 The electronic state is 1-A.
 Alpha  occ. eigenvalues --  -19.11886 -19.10133 -14.37355 -14.35432 -10.29165
 Alpha  occ. eigenvalues --  -10.28206 -10.23419 -10.22508 -10.18750 -10.18449
 Alpha  occ. eigenvalues --   -1.03954  -1.02114  -0.92943  -0.91704  -0.77900
 Alpha  occ. eigenvalues --   -0.72721  -0.71414  -0.64347  -0.59517  -0.58033
 Alpha  occ. eigenvalues --   -0.53636  -0.48117  -0.46781  -0.46223  -0.45619
 Alpha  occ. eigenvalues --   -0.44395  -0.42546  -0.41761  -0.40640  -0.39790
 Alpha  occ. eigenvalues --   -0.39098  -0.37795  -0.36730  -0.36468  -0.34361
 Alpha  occ. eigenvalues --   -0.26564  -0.26216  -0.24422  -0.24047
 Alpha virt. eigenvalues --    0.01806   0.03947   0.06807   0.09135   0.11795
 Alpha virt. eigenvalues --    0.12882   0.13330   0.15408   0.15841   0.16291
 Alpha virt. eigenvalues --    0.16676   0.17322   0.17967   0.18322   0.19602

 Mulliken atomic charges:
              1
     1  H    0.183944
     2  C   -0.533007
     3  H    0.183151
     4  H    0.147146
     5  C    0.592481
     6  O   -0.518334
     7  N   -0.593114
     8  H    0.339200
     9  C   -0.040791
    10  H    0.168106
    11  C   -0.439871
    12  H    0.164657
    13  H    0.144301
    14  H    0.170482
    15  C    0.606879
    16  O   -0.535324
    17  N   -0.589449
    18  H    0.332648
    19  C   -0.313818
    20  H    0.206670
    21  H    0.162952
    22  H    0.161090
 Sum of Mulliken atomic charges =   0.00000

 Dipole moment (field-independent basis, Debye):
    X=              2.1280    Y=             -0.2185    Z=             -0.3260  Tot=              2.1639
 Quadrupole moment (field-independent basis, Debye-Ang):
   XX=            -55.7352   YY=            -57.8245   ZZ=            -64.0216
   XY=              2.4637   XZ=            -13.9899   YZ=              1.0114

 Normal termination of Gaussian 09 at Fri Feb 10 22:08:49 2017.
