 Gaussian 09, Revision A.02,
 Gaussian 09:  EM64L-G09RevA.02 11-Jun-2009

 ----------------------------------------------------------------------
 # b3lyp/6-31G* Opt=(ModRedundant, maxcycles=1000, calcfc) geom=nocrowd
 ----------------------------------------------------------------------

 ------------------
 Phi Psi fixed scan
 ------------------
 Symbolic Z-matrix:
 Charge =  0 Multiplicity = 1

 SCF Done:  E(RB3LYP) =  -495.842921512     A.U. after   15 cycles

  Exact polarizability:   0.000   0.000   0.000   0.000   0.000   0.000
 Approx polarizability: 111.884  -5.932 105.115  11.825 -15.768 119.751

 SCF Done:  E(RB3LYP) =  -495.845707940     A.U. after   11 cycles
 SCF Done:  E(RB3LYP) =  -495.848613925     A.U. after   16 cycles
 SCF Done:  E(RB3LYP) =  -495.849062287     A.U. after   12 cycles
 SCF Done:  E(RB3LYP) =  -495.805442562     A.U. after   15 cycles
 SCF Done:  E(RB3LYP) =  -495.818390421     A.U. after   12 cycles
 SCF Done:  E(RB3LYP) =  -495.828464261     A.U. after   12 cycles
 SCF Done:  E(RB3LYP) =  -495.836118792     A.U. after   12 cycles
 SCF Done:  E(RB3LYP) =  -495.841967308     A.U. after   12 cycles
 SCF Done:  E(RB3LYP) =  -495.845404958     A.U. after   16 cycles
 SCF Done:  E(RB3LYP) =  -495.849177704     A.U. after   11 cycles
 SCF Done:  E(RB3LYP) =  -495.845875257     A.U. after   13 cycles
 SCF Done:  E(RB3LYP) =  -495.849221903     A.U. after   12 cycles
 SCF Done:  E(RB3LYP) =  -495.849278515     A.U. after   11 cycles
 SCF Done:  E(RB3LYP) =  -495.849334825     A.U. after   11 cycles
 SCF Done:  E(RB3LYP) =  -495.849342373     A.U. after   10 cycles
 SCF Done:  E(RB3LYP) =  -495.849344378     A.U. after    9 cycles
 SCF Done:  E(RB3LYP) =  -495.849344903     A.U. after    9 cycles
 SCF Done:  E(RB3LYP) =  -495.849344969     A.U. after    8 cycles
 SCF Done:  E(RB3LYP) =  -495.849344946     A.U. after    7 cycles
 Optimization completed.
    -- Stationary point found.

                         Standard orientation:
 ---------------------------------------------------------------------
 Center     Atomic      Atomic             Coordinates (Angstroms)
 Number     Number       Type             X           Y           Z
 ---------------------------------------------------------------------
      1          1           0       -3.440228   -1.904146    0.722605
      2          6           0       -3.138519   -0.877366    0.946515
      3          1           0       -2.786830   -0.822953    1.981574
      4          1           0       -4.027202   -0.245522    0.842776
      5          6           0       -2.101640   -0.438508   -0.076612
      6          8           0       -2.264867   -0.605365   -1.279778
      7          7           0       -0.974872    0.143410    0.443131
      8          1           0       -0.926444    0.331572    1.435822
      9          6           0        0.045603    0.765950   -0.399330
     10          1           0       -0.144871    0.381789   -1.405108
     11          6           0       -0.049500    2.292600   -0.396842
     12          1           0        0.158068    2.686210    0.602332
     13          1           0        0.687590    2.723788   -1.083155
     14          1           0       -1.048136    2.606499   -0.715037
     15          6           0        1.419920    0.296255    0.114717
     16          8           0        2.010232    0.892155    1.009830
     17          7           0        1.881258   -0.846825   -0.466457
     18          1           0        1.298343   -1.299141   -1.156934
     19          6           0        3.102005   -1.509303   -0.042437
     20          1           0        3.588729   -0.860180    0.686687
     21          1           0        2.890354   -2.478007    0.427053
     22          1           0        3.775783   -1.668098   -0.891804
 ---------------------------------------------------------------------

 The electronic state is 1-A.
 Alpha  occ. eigenvalues --  -19.11393 -19.11029 -14.36596 -14.36449 -10.29025
 Alpha  occ. eigenvalues --  -10.28630 -10.23336 -10.22037 -10.19491 -10.17910
 Alpha  occ. eigenvalues --   -1.03525  -1.02847  -0.92734  -0.91949  -0.77910
 Alpha  occ. eigenvalues --   -0.72955  -0.71347  -0.64092  -0.59055  -0.58490
 Alpha  occ. eigenvalues --   -0.53463  -0.48167  -0.47519  -0.46282  -0.45084
 Alpha  occ. eigenvalues --   -0.44717  -0.42118  -0.41672  -0.40567  -0.39835
 Alpha  occ. eigenvalues --   -0.39276  -0.37497  -0.36917  -0.35928  -0.35332
 Alpha  occ. eigenvalues --   -0.26880  -0.25482  -0.25026  -0.24291
 Alpha virt. eigenvalues --    0.01633   0.03513   0.07651   0.07891   0.12100
 Alpha virt. eigenvalues --    0.12466   0.12854   0.15249   0.15978   0.16417
 Alpha virt. eigenvalues --    0.16564   0.17435   0.17989   0.18663   0.20031

 Mulliken atomic charges:
              1
     1  H    0.186689
     2  C   -0.535686
     3  H    0.147057
     4  H    0.186238
     5  C    0.591722
     6  O   -0.512198
     7  N   -0.594361
     8  H    0.331876
     9  C   -0.053034
    10  H    0.176452
    11  C   -0.441433
    12  H    0.167118
    13  H    0.155062
    14  H    0.154934
    15  C    0.604072
    16  O   -0.523717
    17  N   -0.587130
    18  H    0.336412
    19  C   -0.312549
    20  H    0.203925
    21  H    0.158961
    22  H    0.159590
 Sum of Mulliken atomic charges =   0.00000

 Dipole moment (field-independent basis, Debye):
    X=              0.0760    Y=             -1.4542    Z=              0.8443  Tot=              1.6833
 Quadrupole moment (field-independent basis, Debye-Ang):
   XX=            -61.0197   YY=            -57.7195   ZZ=            -61.8847
   XY=             -7.2208   XZ=            -12.0853   YZ=             -2.4546

 Normal termination of Gaussian 09 at Fri Feb 10 22:28:25 2017.
