 Gaussian 09, Revision A.02,
 Gaussian 09:  EM64L-G09RevA.02 11-Jun-2009

 ----------------------------------------------------------------------
 # b3lyp/6-31G* Opt=(ModRedundant, maxcycles=1000, calcfc) geom=nocrowd
 ----------------------------------------------------------------------

 ------------------
 Phi Psi fixed scan
 ------------------
 Symbolic Z-matrix:
 Charge =  0 Multiplicity = 1

 SCF Done:  E(RB3LYP) =  -495.831212363     A.U. after   15 cycles

  Exact polarizability:   0.000   0.000   0.000   0.000   0.000   0.000
 Approx polarizability: 119.380   2.056  96.167  16.279  -2.096 122.591

 SCF Done:  E(RB3LYP) =  -495.835803539     A.U. after   12 cycles
 SCF Done:  E(RB3LYP) =  -495.840987898     A.U. after   13 cycles
 SCF Done:  E(RB3LYP) =  -495.841984226     A.U. after   14 cycles
 SCF Done:  E(RB3LYP) =  -495.836577350     A.U. after   14 cycles
 SCF Done:  E(RB3LYP) =  -495.842074740     A.U. after   12 cycles
 SCF Done:  E(RB3LYP) =  -495.842088048     A.U. after   12 cycles
 SCF Done:  E(RB3LYP) =  -495.842333486     A.U. after   13 cycles
 SCF Done:  E(RB3LYP) =  -495.842379160     A.U. after   12 cycles
 SCF Done:  E(RB3LYP) =  -495.842391063     A.U. after   11 cycles
 SCF Done:  E(RB3LYP) =  -495.842396965     A.U. after   10 cycles
 SCF Done:  E(RB3LYP) =  -495.842404106     A.U. after   10 cycles
 SCF Done:  E(RB3LYP) =  -495.842412807     A.U. after   10 cycles
 SCF Done:  E(RB3LYP) =  -495.842432039     A.U. after   11 cycles
 SCF Done:  E(RB3LYP) =  -495.842438322     A.U. after   11 cycles
 SCF Done:  E(RB3LYP) =  -495.842441515     A.U. after   10 cycles
 SCF Done:  E(RB3LYP) =  -495.842441621     A.U. after   10 cycles
 SCF Done:  E(RB3LYP) =  -495.842441789     A.U. after    7 cycles
 Optimization completed.
    -- Stationary point found.

                         Standard orientation:
 ---------------------------------------------------------------------
 Center     Atomic      Atomic             Coordinates (Angstroms)
 Number     Number       Type             X           Y           Z
 ---------------------------------------------------------------------
      1          1           0        4.061947   -0.782677   -1.016097
      2          6           0        3.112140   -1.242887   -0.731723
      3          1           0        3.336532   -2.060882   -0.038610
      4          1           0        2.633226   -1.661340   -1.622894
      5          6           0        2.262834   -0.207751   -0.008880
      6          8           0        2.716955    0.510750    0.871546
      7          7           0        0.953198   -0.138722   -0.410791
      8          1           0        0.615315   -0.790526   -1.104734
      9          6           0       -0.020525    0.704679    0.283187
     10          1           0        0.381865    0.862843    1.286148
     11          6           0       -0.183749    2.068321   -0.403193
     12          1           0       -0.459589    1.972356   -1.461488
     13          1           0       -0.938541    2.680260    0.104029
     14          1           0        0.771320    2.599942   -0.364857
     15          6           0       -1.312499   -0.114059    0.480561
     16          8           0       -1.458336   -0.848224    1.447776
     17          7           0       -2.231130   -0.021637   -0.531677
     18          1           0       -2.111751    0.702623   -1.224755
     19          6           0       -3.510421   -0.710555   -0.477713
     20          1           0       -3.431079   -1.491656    0.279197
     21          1           0       -4.327227   -0.032469   -0.198876
     22          1           0       -3.742124   -1.162653   -1.447795
 ---------------------------------------------------------------------

 The electronic state is 1-A.
 Alpha  occ. eigenvalues --  -19.11404 -19.10637 -14.36983 -14.36258 -10.28893
 Alpha  occ. eigenvalues --  -10.28600 -10.23406 -10.22376 -10.19260 -10.19186
 Alpha  occ. eigenvalues --   -1.03591  -1.02600  -0.92840  -0.91883  -0.78207
 Alpha  occ. eigenvalues --   -0.73021  -0.71103  -0.65236  -0.58961  -0.58657
 Alpha  occ. eigenvalues --   -0.53755  -0.48713  -0.47334  -0.46122  -0.44952
 Alpha  occ. eigenvalues --   -0.44241  -0.42484  -0.41964  -0.40818  -0.39832
 Alpha  occ. eigenvalues --   -0.39325  -0.38442  -0.37454  -0.36460  -0.34639
 Alpha  occ. eigenvalues --   -0.26783  -0.25785  -0.24684  -0.24075
 Alpha virt. eigenvalues --    0.01290   0.03766   0.06252   0.08072   0.11291
 Alpha virt. eigenvalues --    0.12704   0.13708   0.14638   0.15557   0.16111
 Alpha virt. eigenvalues --    0.16231   0.17322   0.17873   0.18565   0.19325

 Mulliken atomic charges:
              1
     1  H    0.185989
     2  C   -0.536297
     3  H    0.189923
     4  H    0.141864
     5  C    0.602140
     6  O   -0.506513
     7  N   -0.598986
     8  H    0.323822
     9  C   -0.019495
    10  H    0.205264
    11  C   -0.467138
    12  H    0.130910
    13  H    0.157113
    14  H    0.184955
    15  C    0.557690
    16  O   -0.500613
    17  N   -0.590629
    18  H    0.328881
    19  C   -0.311002
    20  H    0.205601
    21  H    0.161473
    22  H    0.155047
 Sum of Mulliken atomic charges =   0.00000

 Dipole moment (field-independent basis, Debye):
    X=             -2.4984    Y=              0.0938    Z=             -5.0711  Tot=              5.6540
 Quadrupole moment (field-independent basis, Debye-Ang):
   XX=            -58.8019   YY=            -58.2129   ZZ=            -63.0507
   XY=             -6.9843   XZ=             -0.2193   YZ=              2.2309

 Normal termination of Gaussian 09 at Fri Feb 10 22:21:03 2017.
