 Gaussian 09, Revision A.02,
 Gaussian 09:  EM64L-G09RevA.02 11-Jun-2009

 ----------------------------------------------------------------------
 # b3lyp/6-31G* Opt=(ModRedundant, maxcycles=1000, calcfc) geom=nocrowd
 ----------------------------------------------------------------------

 ------------------
 Phi Psi fixed scan
 ------------------
 Symbolic Z-matrix:
 Charge =  0 Multiplicity = 1

 SCF Done:  E(RB3LYP) =  -495.838210496     A.U. after   15 cycles

  Exact polarizability:   0.000   0.000   0.000   0.000   0.000   0.000
 Approx polarizability: 121.315  -7.375 113.151   5.243  14.501 101.270

 SCF Done:  E(RB3LYP) =  -495.842062877     A.U. after   12 cycles
 SCF Done:  E(RB3LYP) =  -495.846473003     A.U. after   12 cycles
 SCF Done:  E(RB3LYP) =  -495.848185126     A.U. after   16 cycles
 SCF Done:  E(RB3LYP) =  -495.849318594     A.U. after   13 cycles
 SCF Done:  E(RB3LYP) =  -495.849008769     A.U. after   16 cycles
 SCF Done:  E(RB3LYP) =  -495.849696300     A.U. after   16 cycles
 SCF Done:  E(RB3LYP) =  -495.849830963     A.U. after   16 cycles
 SCF Done:  E(RB3LYP) =  -495.849387805     A.U. after   14 cycles
 SCF Done:  E(RB3LYP) =  -495.849857972     A.U. after   14 cycles
 SCF Done:  E(RB3LYP) =  -495.849918313     A.U. after   12 cycles
 SCF Done:  E(RB3LYP) =  -495.849921472     A.U. after   10 cycles
 SCF Done:  E(RB3LYP) =  -495.849921923     A.U. after    8 cycles
 SCF Done:  E(RB3LYP) =  -495.849922070     A.U. after    7 cycles
 SCF Done:  E(RB3LYP) =  -495.849922265     A.U. after    9 cycles
 SCF Done:  E(RB3LYP) =  -495.849922425     A.U. after    9 cycles
 SCF Done:  E(RB3LYP) =  -495.849922612     A.U. after    9 cycles
 SCF Done:  E(RB3LYP) =  -495.849922687     A.U. after    9 cycles
 SCF Done:  E(RB3LYP) =  -495.849922689     A.U. after    6 cycles
 Optimization completed.
    -- Stationary point found.

                         Standard orientation:
 ---------------------------------------------------------------------
 Center     Atomic      Atomic             Coordinates (Angstroms)
 Number     Number       Type             X           Y           Z
 ---------------------------------------------------------------------
      1          1           0        4.293170   -0.664304   -0.337199
      2          6           0        3.306422   -1.126027   -0.252324
      3          1           0        3.364787   -1.890731    0.530862
      4          1           0        3.049336   -1.612930   -1.197870
      5          6           0        2.300230   -0.065008    0.165051
      6          8           0        2.559425    0.791037    1.002776
      7          7           0        1.086638   -0.123064   -0.478794
      8          1           0        0.820813   -1.018063   -0.879491
      9          6           0       -0.045887    0.615478    0.062432
     10          1           0        0.180091    0.840648    1.114333
     11          6           0       -0.237973    1.949713   -0.678019
     12          1           0       -0.508632    1.787225   -1.726345
     13          1           0       -1.003798    2.581518   -0.211511
     14          1           0        0.704076    2.503081   -0.641373
     15          6           0       -1.265804   -0.328903    0.028544
     16          8           0       -1.131473   -1.534734   -0.168844
     17          7           0       -2.479768    0.262262    0.192733
     18          1           0       -2.512743    1.250832    0.392458
     19          6           0       -3.718463   -0.495972    0.255778
     20          1           0       -3.498423   -1.513587   -0.068070
     21          1           0       -4.121540   -0.526859    1.275638
     22          1           0       -4.470001   -0.057331   -0.409238
 ---------------------------------------------------------------------

 The electronic state is 1-A.
 Alpha  occ. eigenvalues --  -19.12320 -19.10451 -14.37328 -14.34708 -10.29556
 Alpha  occ. eigenvalues --  -10.27987 -10.23481 -10.22610 -10.18961 -10.18508
 Alpha  occ. eigenvalues --   -1.04371  -1.02235  -0.93097  -0.91381  -0.77910
 Alpha  occ. eigenvalues --   -0.72739  -0.71066  -0.64812  -0.59516  -0.56978
 Alpha  occ. eigenvalues --   -0.53685  -0.47994  -0.47456  -0.45890  -0.45542
 Alpha  occ. eigenvalues --   -0.44164  -0.42702  -0.41800  -0.40264  -0.39973
 Alpha  occ. eigenvalues --   -0.39128  -0.38020  -0.37608  -0.36640  -0.33787
 Alpha  occ. eigenvalues --   -0.26635  -0.26212  -0.25167  -0.24138
 Alpha virt. eigenvalues --    0.01978   0.03152   0.06326   0.10197   0.11387
 Alpha virt. eigenvalues --    0.13288   0.14305   0.14793   0.15392   0.15706
 Alpha virt. eigenvalues --    0.16197   0.16946   0.18004   0.19335   0.20067

 Mulliken atomic charges:
              1
     1  H    0.183496
     2  C   -0.537867
     3  H    0.182886
     4  H    0.154218
     5  C    0.579023
     6  O   -0.509170
     7  N   -0.586107
     8  H    0.343595
     9  C   -0.049727
    10  H    0.191366
    11  C   -0.447541
    12  H    0.158113
    13  H    0.128081
    14  H    0.185173
    15  C    0.596150
    16  O   -0.529067
    17  N   -0.591552
    18  H    0.331684
    19  C   -0.312048
    20  H    0.206509
    21  H    0.162680
    22  H    0.160106
 Sum of Mulliken atomic charges =   0.00000

 Dipole moment (field-independent basis, Debye):
    X=             -3.2474    Y=              0.7200    Z=             -1.0224  Tot=              3.4798
 Quadrupole moment (field-independent basis, Debye-Ang):
   XX=            -53.3609   YY=            -61.4887   ZZ=            -61.5601
   XY=             -9.9616   XZ=             -6.5205   YZ=             -1.0737

 Normal termination of Gaussian 09 at Fri Feb 10 22:09:06 2017.
