 Gaussian 09, Revision A.02,
 Gaussian 09:  EM64L-G09RevA.02 11-Jun-2009

 ----------------------------------------------------------------------
 # b3lyp/6-31G* Opt=(ModRedundant, maxcycles=1000, calcfc) geom=nocrowd
 ----------------------------------------------------------------------

 ------------------
 Phi Psi fixed scan
 ------------------
 Symbolic Z-matrix:
 Charge =  0 Multiplicity = 1

 SCF Done:  E(RB3LYP) =  -495.834098767     A.U. after   15 cycles

  Exact polarizability:   0.000   0.000   0.000   0.000   0.000   0.000
 Approx polarizability: 115.581  -8.840 107.521   6.435 -21.694 113.481

 SCF Done:  E(RB3LYP) =  -495.837486908     A.U. after   15 cycles
 SCF Done:  E(RB3LYP) =  -495.841266125     A.U. after   12 cycles
 SCF Done:  E(RB3LYP) =  -495.842137560     A.U. after   13 cycles
 SCF Done:  E(RB3LYP) =  -495.755576269     A.U. after   14 cycles
 SCF Done:  E(RB3LYP) =  -495.778424744     A.U. after   12 cycles
 SCF Done:  E(RB3LYP) =  -495.796956907     A.U. after   12 cycles
 SCF Done:  E(RB3LYP) =  -495.811693664     A.U. after   12 cycles
 SCF Done:  E(RB3LYP) =  -495.823120410     A.U. after   12 cycles
 SCF Done:  E(RB3LYP) =  -495.842137596     A.U. after   14 cycles
 SCF Done:  E(RB3LYP) =  -495.842087442     A.U. after   12 cycles
 SCF Done:  E(RB3LYP) =  -495.842235451     A.U. after   11 cycles
 SCF Done:  E(RB3LYP) =  -495.842311817     A.U. after   12 cycles
 SCF Done:  E(RB3LYP) =  -495.842263485     A.U. after   12 cycles
 SCF Done:  E(RB3LYP) =  -495.842392481     A.U. after   12 cycles
 SCF Done:  E(RB3LYP) =  -495.842417614     A.U. after   11 cycles
 SCF Done:  E(RB3LYP) =  -495.842438966     A.U. after   11 cycles
 SCF Done:  E(RB3LYP) =  -495.842441266     A.U. after   10 cycles
 SCF Done:  E(RB3LYP) =  -495.842441502     A.U. after    8 cycles
 Optimization completed.
    -- Stationary point found.

                         Standard orientation:
 ---------------------------------------------------------------------
 Center     Atomic      Atomic             Coordinates (Angstroms)
 Number     Number       Type             X           Y           Z
 ---------------------------------------------------------------------
      1          1           0        3.969465   -1.253823   -0.646927
      2          6           0        3.006252   -1.523822   -0.205948
      3          1           0        3.210837   -2.036505    0.740196
      4          1           0        2.486275   -2.215964   -0.876106
      5          6           0        2.226332   -0.249453    0.083844
      6          8           0        2.730595    0.709004    0.652788
      7          7           0        0.922361   -0.246603   -0.349185
      8          1           0        0.522125   -1.118977   -0.666340
      9          6           0       -0.006341    0.814347    0.057181
     10          1           0        0.405658    1.268346    0.960313
     11          6           0       -0.144905    1.899846   -1.022167
     12          1           0       -0.496976    1.490748   -1.977296
     13          1           0       -0.844616    2.679159   -0.700107
     14          1           0        0.832264    2.359962   -1.194621
     15          6           0       -1.351546    0.195637    0.471943
     16          8           0       -1.798180    0.298113    1.604131
     17          7           0       -1.985181   -0.524316   -0.514864
     18          1           0       -1.705600   -0.356143   -1.472327
     19          6           0       -3.307820   -1.093599   -0.297840
     20          1           0       -3.377217   -1.401169    0.746228
     21          1           0       -4.109169   -0.369714   -0.496480
     22          1           0       -3.444468   -1.964155   -0.945623
 ---------------------------------------------------------------------

 The electronic state is 1-A.
 Alpha  occ. eigenvalues --  -19.12018 -19.10851 -14.37213 -14.36306 -10.29182
 Alpha  occ. eigenvalues --  -10.28760 -10.23389 -10.22619 -10.19363 -10.19059
 Alpha  occ. eigenvalues --   -1.04010  -1.02837  -0.93348  -0.91732  -0.78229
 Alpha  occ. eigenvalues --   -0.73056  -0.71393  -0.64955  -0.59009  -0.58553
 Alpha  occ. eigenvalues --   -0.53959  -0.48980  -0.47329  -0.46124  -0.44875
 Alpha  occ. eigenvalues --   -0.44398  -0.42887  -0.41986  -0.41197  -0.40081
 Alpha  occ. eigenvalues --   -0.39649  -0.38271  -0.37168  -0.36646  -0.34587
 Alpha  occ. eigenvalues --   -0.27343  -0.26458  -0.24784  -0.24149
 Alpha virt. eigenvalues --    0.01003   0.03379   0.05559   0.08212   0.11170
 Alpha virt. eigenvalues --    0.12589   0.13715   0.14733   0.15380   0.15439
 Alpha virt. eigenvalues --    0.16557   0.16914   0.18252   0.18717   0.19429

 Mulliken atomic charges:
              1
     1  H    0.187707
     2  C   -0.537167
     3  H    0.187817
     4  H    0.142432
     5  C    0.595020
     6  O   -0.502190
     7  N   -0.607254
     8  H    0.323191
     9  C   -0.037710
    10  H    0.204685
    11  C   -0.450363
    12  H    0.128284
    13  H    0.162451
    14  H    0.183165
    15  C    0.572323
    16  O   -0.497427
    17  N   -0.593134
    18  H    0.325653
    19  C   -0.305394
    20  H    0.200566
    21  H    0.163546
    22  H    0.153797
 Sum of Mulliken atomic charges =   0.00000

 Dipole moment (field-independent basis, Debye):
    X=             -1.9624    Y=             -2.8092    Z=             -4.5830  Tot=              5.7225
 Quadrupole moment (field-independent basis, Debye-Ang):
   XX=            -62.4404   YY=            -56.7532   ZZ=            -63.3920
   XY=             -3.8203   XZ=              3.3305   YZ=             -1.2460

 Normal termination of Gaussian 09 at Fri Feb 10 22:13:24 2017.
