 Gaussian 09, Revision A.02,
 Gaussian 09:  EM64L-G09RevA.02 11-Jun-2009

 ----------------------------------------------------------------------
 # b3lyp/6-31G* Opt=(ModRedundant, maxcycles=1000, calcfc) geom=nocrowd
 ----------------------------------------------------------------------

 ------------------
 Phi Psi fixed scan
 ------------------
 Symbolic Z-matrix:
 Charge =  0 Multiplicity = 1

 SCF Done:  E(RB3LYP) =  -495.842025626     A.U. after   15 cycles

  Exact polarizability:   0.000   0.000   0.000   0.000   0.000   0.000
 Approx polarizability: 113.549  -8.761 108.466  14.028 -11.514 114.666

 SCF Done:  E(RB3LYP) =  -495.844973649     A.U. after   11 cycles
 SCF Done:  E(RB3LYP) =  -495.848068197     A.U. after   12 cycles
 SCF Done:  E(RB3LYP) =  -495.848600756     A.U. after   12 cycles
 SCF Done:  E(RB3LYP) =  -495.715188147     A.U. after   15 cycles
 SCF Done:  E(RB3LYP) =  -495.745793127     A.U. after   12 cycles
 SCF Done:  E(RB3LYP) =  -495.771599609     A.U. after   12 cycles
 SCF Done:  E(RB3LYP) =  -495.792985250     A.U. after   12 cycles
 SCF Done:  E(RB3LYP) =  -495.810334808     A.U. after   12 cycles
 SCF Done:  E(RB3LYP) =  -495.824051977     A.U. after   12 cycles
 SCF Done:  E(RB3LYP) =  -495.848721656     A.U. after   11 cycles
 SCF Done:  E(RB3LYP) =  -495.846861321     A.U. after   13 cycles
 SCF Done:  E(RB3LYP) =  -495.848784492     A.U. after   12 cycles
 SCF Done:  E(RB3LYP) =  -495.848840923     A.U. after   11 cycles
 SCF Done:  E(RB3LYP) =  -495.848885828     A.U. after   11 cycles
 SCF Done:  E(RB3LYP) =  -495.848901869     A.U. after   11 cycles
 SCF Done:  E(RB3LYP) =  -495.848903658     A.U. after   10 cycles
 SCF Done:  E(RB3LYP) =  -495.848903887     A.U. after    7 cycles
 SCF Done:  E(RB3LYP) =  -495.848903933     A.U. after    7 cycles
 SCF Done:  E(RB3LYP) =  -495.848903931     A.U. after    7 cycles
 Optimization completed.
    -- Stationary point found.

                         Standard orientation:
 ---------------------------------------------------------------------
 Center     Atomic      Atomic             Coordinates (Angstroms)
 Number     Number       Type             X           Y           Z
 ---------------------------------------------------------------------
      1          1           0        3.491118   -1.865879   -0.644471
      2          6           0        3.133146   -0.873061   -0.928991
      3          1           0        2.763742   -0.903540   -1.958904
      4          1           0        3.989002   -0.190578   -0.883205
      5          6           0        2.088967   -0.421353    0.080789
      6          8           0        2.253850   -0.548119    1.288165
      7          7           0        0.948371    0.121098   -0.456557
      8          1           0        0.918810    0.297757   -1.452447
      9          6           0       -0.053321    0.801915    0.365866
     10          1           0        0.156386    0.476159    1.388961
     11          6           0        0.053577    2.323711    0.270752
     12          1           0       -0.153627    2.664381   -0.748034
     13          1           0       -0.679139    2.800282    0.929623
     14          1           0        1.056070    2.646811    0.567332
     15          6           0       -1.453727    0.312348   -0.061062
     16          8           0       -2.205143    0.994584   -0.748304
     17          7           0       -1.758454   -0.943153    0.375901
     18          1           0       -1.050082   -1.452530    0.886348
     19          6           0       -2.984573   -1.628643    0.010184
     20          1           0       -3.621797   -0.905947   -0.501298
     21          1           0       -2.790788   -2.472629   -0.664047
     22          1           0       -3.503182   -2.001131    0.900615
 ---------------------------------------------------------------------

 The electronic state is 1-A.
 Alpha  occ. eigenvalues --  -19.11355 -19.11336 -14.36682 -14.36296 -10.29282
 Alpha  occ. eigenvalues --  -10.28507 -10.23332 -10.21909 -10.19732 -10.17872
 Alpha  occ. eigenvalues --   -1.03591  -1.02979  -0.92950  -0.91737  -0.77947
 Alpha  occ. eigenvalues --   -0.73072  -0.71289  -0.64019  -0.59173  -0.58267
 Alpha  occ. eigenvalues --   -0.53438  -0.48261  -0.47818  -0.46218  -0.45068
 Alpha  occ. eigenvalues --   -0.44674  -0.42131  -0.41795  -0.40311  -0.40016
 Alpha  occ. eigenvalues --   -0.39095  -0.37378  -0.37233  -0.35935  -0.35517
 Alpha  occ. eigenvalues --   -0.27118  -0.25381  -0.25184  -0.24284
 Alpha virt. eigenvalues --    0.01681   0.03014   0.07367   0.08404   0.12011
 Alpha virt. eigenvalues --    0.12391   0.12639   0.15069   0.15841   0.16341
 Alpha virt. eigenvalues --    0.16665   0.17392   0.17854   0.18846   0.19741

 Mulliken atomic charges:
              1
     1  H    0.187654
     2  C   -0.537168
     3  H    0.147778
     4  H    0.186983
     5  C    0.589129
     6  O   -0.509507
     7  N   -0.592856
     8  H    0.328800
     9  C   -0.066350
    10  H    0.185595
    11  C   -0.436545
    12  H    0.161166
    13  H    0.161055
    14  H    0.151675
    15  C    0.600088
    16  O   -0.518086
    17  N   -0.583987
    18  H    0.337293
    19  C   -0.311518
    20  H    0.202940
    21  H    0.156728
    22  H    0.159133
 Sum of Mulliken atomic charges =   0.00000

 Dipole moment (field-independent basis, Debye):
    X=              0.5441    Y=             -1.7320    Z=             -1.4766  Tot=              2.3401
 Quadrupole moment (field-independent basis, Debye-Ang):
   XX=            -62.9355   YY=            -57.4845   ZZ=            -61.4109
   XY=              7.4818   XZ=            -11.0196   YZ=              2.2273

 Normal termination of Gaussian 09 at Fri Feb 10 22:24:32 2017.
