 Gaussian 09, Revision A.02,
 Gaussian 09:  EM64L-G09RevA.02 11-Jun-2009

 ----------------------------------------------------------------------
 # b3lyp/6-31G* Opt=(ModRedundant, maxcycles=1000, calcfc) geom=nocrowd
 ----------------------------------------------------------------------

 ------------------
 Phi Psi fixed scan
 ------------------
 Symbolic Z-matrix:
 Charge =  0 Multiplicity = 1

 SCF Done:  E(RB3LYP) =  -495.836909179     A.U. after   15 cycles

  Exact polarizability:   0.000   0.000   0.000   0.000   0.000   0.000
 Approx polarizability: 118.793   3.560 118.901   5.795 -18.291  99.772

 SCF Done:  E(RB3LYP) =  -495.841036835     A.U. after   12 cycles
 SCF Done:  E(RB3LYP) =  -495.846147951     A.U. after   12 cycles
 SCF Done:  E(RB3LYP) =  -495.847930951     A.U. after   16 cycles
 SCF Done:  E(RB3LYP) =  -495.833543935     A.U. after   14 cycles
 SCF Done:  E(RB3LYP) =  -495.848042998     A.U. after   14 cycles
 SCF Done:  E(RB3LYP) =  -495.848504969     A.U. after   12 cycles
 SCF Done:  E(RB3LYP) =  -495.845178888     A.U. after   14 cycles
 SCF Done:  E(RB3LYP) =  -495.848745699     A.U. after   13 cycles
 SCF Done:  E(RB3LYP) =  -495.848886389     A.U. after   12 cycles
 SCF Done:  E(RB3LYP) =  -495.848903973     A.U. after    9 cycles
 SCF Done:  E(RB3LYP) =  -495.848908943     A.U. after   10 cycles
 SCF Done:  E(RB3LYP) =  -495.848910211     A.U. after    9 cycles
 SCF Done:  E(RB3LYP) =  -495.848910778     A.U. after    8 cycles
 SCF Done:  E(RB3LYP) =  -495.848910998     A.U. after    8 cycles
 SCF Done:  E(RB3LYP) =  -495.848911524     A.U. after    9 cycles
 SCF Done:  E(RB3LYP) =  -495.848913778     A.U. after   10 cycles
 SCF Done:  E(RB3LYP) =  -495.848913068     A.U. after   10 cycles
 SCF Done:  E(RB3LYP) =  -495.848914025     A.U. after   10 cycles
 SCF Done:  E(RB3LYP) =  -495.848914162     A.U. after    9 cycles
 Optimization completed on the basis of negligible forces.
    -- Stationary point found.

                         Standard orientation:
 ---------------------------------------------------------------------
 Center     Atomic      Atomic             Coordinates (Angstroms)
 Number     Number       Type             X           Y           Z
 ---------------------------------------------------------------------
      1          1           0        3.676778   -1.789205    0.165229
      2          6           0        3.161943   -1.125197   -0.533273
      3          1           0        2.723454   -1.719203   -1.341508
      4          1           0        3.913568   -0.452332   -0.961803
      5          6           0        2.141013   -0.302014    0.237929
      6          8           0        2.384473    0.175582    1.334751
      7          7           0        0.914633   -0.153073   -0.387241
      8          1           0        0.894384   -0.360399   -1.379600
      9          6           0       -0.050720    0.847031    0.073899
     10          1           0        0.260227    1.092693    1.094108
     11          6           0       -0.022342    2.124164   -0.776315
     12          1           0       -0.246296    1.903681   -1.827908
     13          1           0       -0.777627    2.822604   -0.409576
     14          1           0        0.963894    2.595164   -0.720120
     15          6           0       -1.490949    0.308306    0.173762
     16          8           0       -2.407054    1.055509    0.496561
     17          7           0       -1.666100   -0.999261   -0.173790
     18          1           0       -0.828994   -1.562833   -0.238770
     19          6           0       -2.951371   -1.660870   -0.029067
     20          1           0       -3.724712   -0.891600   -0.046203
     21          1           0       -3.111505   -2.358934   -0.857060
     22          1           0       -3.027687   -2.210544    0.918314
 ---------------------------------------------------------------------

 The electronic state is 1-A.
 Alpha  occ. eigenvalues --  -19.12117 -19.10770 -14.37145 -14.36075 -10.29856
 Alpha  occ. eigenvalues --  -10.28262 -10.23382 -10.21806 -10.20206 -10.18472
 Alpha  occ. eigenvalues --   -1.04136  -1.02785  -0.93591  -0.91397  -0.78134
 Alpha  occ. eigenvalues --   -0.73447  -0.71164  -0.64312  -0.59390  -0.57867
 Alpha  occ. eigenvalues --   -0.53701  -0.48685  -0.48262  -0.45869  -0.45415
 Alpha  occ. eigenvalues --   -0.43982  -0.42467  -0.41950  -0.40888  -0.40492
 Alpha  occ. eigenvalues --   -0.39080  -0.38326  -0.36950  -0.36330  -0.34678
 Alpha  occ. eigenvalues --   -0.27954  -0.25935  -0.25389  -0.23910
 Alpha virt. eigenvalues --    0.01458   0.02906   0.06016   0.10190   0.11808
 Alpha virt. eigenvalues --    0.12449   0.13281   0.14364   0.15122   0.15763
 Alpha virt. eigenvalues --    0.16754   0.17412   0.17750   0.18213   0.19500

 Mulliken atomic charges:
              1
     1  H    0.192511
     2  C   -0.541469
     3  H    0.146708
     4  H    0.187593
     5  C    0.587511
     6  O   -0.486510
     7  N   -0.623507
     8  H    0.322225
     9  C   -0.053883
    10  H    0.212890
    11  C   -0.451597
    12  H    0.138088
    13  H    0.191462
    14  H    0.157148
    15  C    0.599034
    16  O   -0.523781
    17  N   -0.592467
    18  H    0.332241
    19  C   -0.308567
    20  H    0.201133
    21  H    0.152388
    22  H    0.160851
 Sum of Mulliken atomic charges =   0.00000

 Dipole moment (field-independent basis, Debye):
    X=              1.2088    Y=             -3.2127    Z=             -3.8055  Tot=              5.1249
 Quadrupole moment (field-independent basis, Debye-Ang):
   XX=            -65.1694   YY=            -56.6960   ZZ=            -61.9023
   XY=              4.2512   XZ=             -5.1804   YZ=             -1.0913

 Normal termination of Gaussian 09 at Fri Feb 10 21:59:51 2017.
