 Gaussian 09, Revision A.02,
 Gaussian 09:  EM64L-G09RevA.02 11-Jun-2009

 ----------------------------------------------------------------------
 # b3lyp/6-31G* Opt=(ModRedundant, maxcycles=1000, calcfc) geom=nocrowd
 ----------------------------------------------------------------------

 ------------------
 Phi Psi fixed scan
 ------------------
 Symbolic Z-matrix:
 Charge =  0 Multiplicity = 1

 SCF Done:  E(RB3LYP) =  -495.842058354     A.U. after   14 cycles

  Exact polarizability:   0.000   0.000   0.000   0.000   0.000   0.000
 Approx polarizability: 118.704  -6.300 112.650   2.340  19.168 103.281

 SCF Done:  E(RB3LYP) =  -495.845261637     A.U. after   12 cycles
 SCF Done:  E(RB3LYP) =  -495.848950016     A.U. after   12 cycles
 SCF Done:  E(RB3LYP) =  -495.850425380     A.U. after   14 cycles
 SCF Done:  E(RB3LYP) =  -495.848924379     A.U. after   14 cycles
 SCF Done:  E(RB3LYP) =  -495.850439362     A.U. after   14 cycles
 SCF Done:  E(RB3LYP) =  -495.850985969     A.U. after   12 cycles
 SCF Done:  E(RB3LYP) =  -495.851150131     A.U. after   13 cycles
 SCF Done:  E(RB3LYP) =  -495.851229696     A.U. after   16 cycles
 SCF Done:  E(RB3LYP) =  -495.851314174     A.U. after   16 cycles
 SCF Done:  E(RB3LYP) =  -495.851363214     A.U. after   11 cycles
 SCF Done:  E(RB3LYP) =  -495.851370904     A.U. after   10 cycles
 SCF Done:  E(RB3LYP) =  -495.851378173     A.U. after   10 cycles
 SCF Done:  E(RB3LYP) =  -495.851385164     A.U. after   11 cycles
 SCF Done:  E(RB3LYP) =  -495.851389059     A.U. after   11 cycles
 SCF Done:  E(RB3LYP) =  -495.851389884     A.U. after    9 cycles
 SCF Done:  E(RB3LYP) =  -495.851390424     A.U. after   10 cycles
 SCF Done:  E(RB3LYP) =  -495.851390439     A.U. after   10 cycles
 SCF Done:  E(RB3LYP) =  -495.851390525     A.U. after    9 cycles
 Optimization completed.
    -- Stationary point found.

                         Standard orientation:
 ---------------------------------------------------------------------
 Center     Atomic      Atomic             Coordinates (Angstroms)
 Number     Number       Type             X           Y           Z
 ---------------------------------------------------------------------
      1          1           0        4.234761   -0.603526   -0.493796
      2          6           0        3.326557   -1.116102   -0.162354
      3          1           0        3.588663   -1.701854    0.724561
      4          1           0        2.991299   -1.793833   -0.953123
      5          6           0        2.289494   -0.074400    0.227836
      6          8           0        2.517498    0.786414    1.070957
      7          7           0        1.101307   -0.142100   -0.453850
      8          1           0        0.848474   -1.015902   -0.905454
      9          6           0       -0.047157    0.621764    0.002123
     10          1           0        0.143324    0.911590    1.043815
     11          6           0       -0.233554    1.902652   -0.832067
     12          1           0       -0.429598    1.658813   -1.881401
     13          1           0       -1.058484    2.522382   -0.461756
     14          1           0        0.684109    2.494555   -0.776010
     15          6           0       -1.272241   -0.312931   -0.045905
     16          8           0       -1.184097   -1.467720   -0.457321
     17          7           0       -2.446557    0.246449    0.352619
     18          1           0       -2.427967    1.180239    0.736766
     19          6           0       -3.695455   -0.495808    0.401530
     20          1           0       -3.537552   -1.439790   -0.120878
     21          1           0       -3.998095   -0.708147    1.434326
     22          1           0       -4.495265    0.064419   -0.094490
 ---------------------------------------------------------------------

 The electronic state is 1-A.
 Alpha  occ. eigenvalues --  -19.12473 -19.10205 -14.37371 -14.34729 -10.29577
 Alpha  occ. eigenvalues --  -10.27937 -10.23464 -10.22655 -10.18872 -10.18482
 Alpha  occ. eigenvalues --   -1.04449  -1.02075  -0.93157  -0.91383  -0.77899
 Alpha  occ. eigenvalues --   -0.72719  -0.71128  -0.64660  -0.59624  -0.57145
 Alpha  occ. eigenvalues --   -0.53683  -0.48009  -0.47198  -0.46091  -0.45595
 Alpha  occ. eigenvalues --   -0.44114  -0.42790  -0.41813  -0.40416  -0.40064
 Alpha  occ. eigenvalues --   -0.39008  -0.38004  -0.37354  -0.36521  -0.33831
 Alpha  occ. eigenvalues --   -0.26718  -0.26359  -0.24931  -0.23999
 Alpha virt. eigenvalues --    0.01899   0.03355   0.06293   0.10038   0.11448
 Alpha virt. eigenvalues --    0.13216   0.14174   0.15198   0.15419   0.15510
 Alpha virt. eigenvalues --    0.16216   0.17495   0.18211   0.18890   0.19514

 Mulliken atomic charges:
              1
     1  H    0.183250
     2  C   -0.533259
     3  H    0.182385
     4  H    0.150410
     5  C    0.580818
     6  O   -0.513326
     7  N   -0.588914
     8  H    0.344997
     9  C   -0.057838
    10  H    0.185140
    11  C   -0.437128
    12  H    0.158173
    13  H    0.129929
    14  H    0.181200
    15  C    0.603428
    16  O   -0.528815
    17  N   -0.589681
    18  H    0.331315
    19  C   -0.311702
    20  H    0.206254
    21  H    0.163122
    22  H    0.160243
 Sum of Mulliken atomic charges =   0.00000

 Dipole moment (field-independent basis, Debye):
    X=             -3.1163    Y=              0.6247    Z=             -0.5603  Tot=              3.2273
 Quadrupole moment (field-independent basis, Debye-Ang):
   XX=            -53.4773   YY=            -61.4271   ZZ=            -61.6267
   XY=             -9.6600   XZ=             -8.0306   YZ=             -1.7844

 Normal termination of Gaussian 09 at Fri Feb 10 22:04:45 2017.
