 Gaussian 09, Revision A.02,
 Gaussian 09:  EM64L-G09RevA.02 11-Jun-2009

 ----------------------------------------------------------------------
 # b3lyp/6-31G* Opt=(ModRedundant, maxcycles=1000, calcfc) geom=nocrowd
 ----------------------------------------------------------------------

 ------------------
 Phi Psi fixed scan
 ------------------
 Symbolic Z-matrix:
 Charge =  0 Multiplicity = 1

 SCF Done:  E(RB3LYP) =  -495.833482782     A.U. after   15 cycles

  Exact polarizability:   0.000   0.000   0.000   0.000   0.000   0.000
 Approx polarizability: 115.330  -6.262 113.171  -4.147  24.061 107.588

 SCF Done:  E(RB3LYP) =  -495.836599427     A.U. after   12 cycles
 SCF Done:  E(RB3LYP) =  -495.840285752     A.U. after   15 cycles
 SCF Done:  E(RB3LYP) =  -495.841100986     A.U. after   15 cycles
 SCF Done:  E(RB3LYP) =  -495.841451682     A.U. after   11 cycles
 SCF Done:  E(RB3LYP) =  -495.763056533     A.U. after   16 cycles
 SCF Done:  E(RB3LYP) =  -495.841531327     A.U. after   16 cycles
 SCF Done:  E(RB3LYP) =  -495.841657440     A.U. after   12 cycles
 SCF Done:  E(RB3LYP) =  -495.796891203     A.U. after   15 cycles
 SCF Done:  E(RB3LYP) =  -495.841659485     A.U. after   14 cycles
 SCF Done:  E(RB3LYP) =  -495.841795225     A.U. after   11 cycles
 SCF Done:  E(RB3LYP) =  -495.841805951     A.U. after   10 cycles
 SCF Done:  E(RB3LYP) =  -495.841814868     A.U. after    9 cycles
 SCF Done:  E(RB3LYP) =  -495.841822356     A.U. after   10 cycles
 SCF Done:  E(RB3LYP) =  -495.841825904     A.U. after   10 cycles
 SCF Done:  E(RB3LYP) =  -495.841827674     A.U. after   10 cycles
 SCF Done:  E(RB3LYP) =  -495.841828489     A.U. after    9 cycles
 SCF Done:  E(RB3LYP) =  -495.841828678     A.U. after    8 cycles
 SCF Done:  E(RB3LYP) =  -495.841828793     A.U. after    8 cycles
 SCF Done:  E(RB3LYP) =  -495.841828842     A.U. after    7 cycles
 Optimization completed.
    -- Stationary point found.

                         Standard orientation:
 ---------------------------------------------------------------------
 Center     Atomic      Atomic             Coordinates (Angstroms)
 Number     Number       Type             X           Y           Z
 ---------------------------------------------------------------------
      1          1           0        3.972609   -1.325515   -0.471522
      2          6           0        2.982951   -1.552225   -0.066669
      3          1           0        3.128676   -2.015793    0.915367
      4          1           0        2.481818   -2.269682   -0.724344
      5          6           0        2.217132   -0.249024    0.110434
      6          8           0        2.722384    0.740839    0.620252
      7          7           0        0.923097   -0.257409   -0.363095
      8          1           0        0.512187   -1.166402   -0.531849
      9          6           0       -0.002662    0.820635    0.014328
     10          1           0        0.399770    1.299357    0.909712
     11          6           0       -0.122118    1.880881   -1.093517
     12          1           0       -0.490332    1.447760   -2.031334
     13          1           0       -0.805594    2.679573   -0.785832
     14          1           0        0.863125    2.316772   -1.281552
     15          6           0       -1.374964    0.260933    0.414743
     16          8           0       -1.960294    0.636335    1.418489
     17          7           0       -1.883557   -0.710353   -0.420319
     18          1           0       -1.525059   -0.741841   -1.366774
     19          6           0       -3.231623   -1.224908   -0.213849
     20          1           0       -3.386856   -1.362920    0.856951
     21          1           0       -4.001814   -0.535606   -0.583936
     22          1           0       -3.334334   -2.186508   -0.723743
 ---------------------------------------------------------------------

 The electronic state is 1-A.
 Alpha  occ. eigenvalues --  -19.12192 -19.11133 -14.37334 -14.36286 -10.29316
 Alpha  occ. eigenvalues --  -10.28898 -10.23377 -10.22688 -10.19484 -10.18800
 Alpha  occ. eigenvalues --   -1.04187  -1.03065  -0.93548  -0.91699  -0.78181
 Alpha  occ. eigenvalues --   -0.73089  -0.71499  -0.64698  -0.59079  -0.58249
 Alpha  occ. eigenvalues --   -0.54114  -0.49049  -0.47378  -0.46071  -0.45044
 Alpha  occ. eigenvalues --   -0.44399  -0.43055  -0.41947  -0.41108  -0.40185
 Alpha  occ. eigenvalues --   -0.39826  -0.38197  -0.37131  -0.36625  -0.34358
 Alpha  occ. eigenvalues --   -0.27506  -0.26852  -0.24927  -0.24347
 Alpha virt. eigenvalues --    0.01016   0.02850   0.05472   0.08555   0.11225
 Alpha virt. eigenvalues --    0.12510   0.13733   0.14562   0.15164   0.15496
 Alpha virt. eigenvalues --    0.16555   0.17051   0.18026   0.18614   0.19669

 Mulliken atomic charges:
              1
     1  H    0.189114
     2  C   -0.538611
     3  H    0.186520
     4  H    0.144393
     5  C    0.589126
     6  O   -0.497437
     7  N   -0.609023
     8  H    0.323058
     9  C   -0.044423
    10  H    0.202935
    11  C   -0.444380
    12  H    0.130892
    13  H    0.165363
    14  H    0.182011
    15  C    0.577140
    16  O   -0.497587
    17  N   -0.597378
    18  H    0.325115
    19  C   -0.303305
    20  H    0.198428
    21  H    0.164601
    22  H    0.153450
 Sum of Mulliken atomic charges =   0.00000

 Dipole moment (field-independent basis, Debye):
    X=             -1.6181    Y=             -3.6177    Z=             -3.9669  Tot=              5.6073
 Quadrupole moment (field-independent basis, Debye-Ang):
   XX=            -63.7812   YY=            -57.1129   ZZ=            -62.4972
   XY=             -2.2617   XZ=              3.5238   YZ=             -1.9766

 Normal termination of Gaussian 09 at Fri Feb 10 22:15:23 2017.
