 Gaussian 09, Revision A.02,
 Gaussian 09:  EM64L-G09RevA.02 11-Jun-2009

 ----------------------------------------------------------------------
 # b3lyp/6-31G* Opt=(ModRedundant, maxcycles=1000, calcfc) geom=nocrowd
 ----------------------------------------------------------------------

 ------------------
 Phi Psi fixed scan
 ------------------
 Symbolic Z-matrix:
 Charge =  0 Multiplicity = 1

 SCF Done:  E(RB3LYP) =  -495.831088573     A.U. after   15 cycles

  Exact polarizability:   0.000   0.000   0.000   0.000   0.000   0.000
 Approx polarizability: 123.341   6.268 106.762  15.543   1.285 108.093

 SCF Done:  E(RB3LYP) =  -495.836069892     A.U. after   12 cycles
 SCF Done:  E(RB3LYP) =  -495.841758109     A.U. after   13 cycles
 SCF Done:  E(RB3LYP) =  -495.843061427     A.U. after   14 cycles
 SCF Done:  E(RB3LYP) =  -495.843302910     A.U. after   12 cycles
 SCF Done:  E(RB3LYP) =  -495.843918194     A.U. after   12 cycles
 SCF Done:  E(RB3LYP) =  -495.842965075     A.U. after   14 cycles
 SCF Done:  E(RB3LYP) =  -495.844026104     A.U. after   12 cycles
 SCF Done:  E(RB3LYP) =  -495.844131084     A.U. after   12 cycles
 SCF Done:  E(RB3LYP) =  -495.844165864     A.U. after   12 cycles
 SCF Done:  E(RB3LYP) =  -495.844194273     A.U. after    7 cycles
 SCF Done:  E(RB3LYP) =  -495.844195439     A.U. after    8 cycles
 SCF Done:  E(RB3LYP) =  -495.844198883     A.U. after   10 cycles
 SCF Done:  E(RB3LYP) =  -495.844210904     A.U. after   10 cycles
 SCF Done:  E(RB3LYP) =  -495.844221343     A.U. after   11 cycles
 SCF Done:  E(RB3LYP) =  -495.844220318     A.U. after   11 cycles
 SCF Done:  E(RB3LYP) =  -495.844226965     A.U. after   10 cycles
 SCF Done:  E(RB3LYP) =  -495.844227304     A.U. after    7 cycles
 SCF Done:  E(RB3LYP) =  -495.844227475     A.U. after    8 cycles
 SCF Done:  E(RB3LYP) =  -495.844227491     A.U. after    6 cycles
 Optimization completed.
    -- Stationary point found.

                         Standard orientation:
 ---------------------------------------------------------------------
 Center     Atomic      Atomic             Coordinates (Angstroms)
 Number     Number       Type             X           Y           Z
 ---------------------------------------------------------------------
      1          1           0       -4.215070   -0.730229    0.713143
      2          6           0       -3.209443   -1.148572    0.632392
      3          1           0       -3.263002   -2.026521   -0.022121
      4          1           0       -2.869163   -1.473491    1.620814
      5          6           0       -2.294559   -0.112663   -0.001759
      6          8           0       -2.674757    0.655875   -0.874892
      7          7           0       -1.006457   -0.090481    0.484376
      8          1           0       -0.704077   -0.912585    0.991462
      9          6           0        0.033821    0.623207   -0.263291
     10          1           0       -0.319029    0.699272   -1.298613
     11          6           0        0.220344    2.045022    0.279670
     12          1           0        0.523508    2.043205    1.333548
     13          1           0        0.955926    2.606484   -0.309617
     14          1           0       -0.734176    2.572911    0.207696
     15          6           0        1.278000   -0.286764   -0.308265
     16          8           0        1.194309   -1.419419   -0.771696
     17          7           0        2.419160    0.207011    0.250859
     18          1           0        2.424507    1.158901    0.584467
     19          6           0        3.671481   -0.529956    0.243023
     20          1           0        3.455087   -1.538465   -0.111252
     21          1           0        4.406910   -0.066434   -0.426055
     22          1           0        4.095380   -0.582049    1.251961
 ---------------------------------------------------------------------

 The electronic state is 1-A.
 Alpha  occ. eigenvalues --  -19.11414 -19.10837 -14.37103 -14.35644 -10.29070
 Alpha  occ. eigenvalues --  -10.28384 -10.23399 -10.22411 -10.18957 -10.18912
 Alpha  occ. eigenvalues --   -1.03717  -1.02608  -0.92718  -0.91779  -0.78056
 Alpha  occ. eigenvalues --   -0.72922  -0.70992  -0.65057  -0.59000  -0.57795
 Alpha  occ. eigenvalues --   -0.53725  -0.48649  -0.47385  -0.45634  -0.45090
 Alpha  occ. eigenvalues --   -0.44424  -0.42395  -0.41838  -0.40102  -0.39618
 Alpha  occ. eigenvalues --   -0.39068  -0.38675  -0.37870  -0.36763  -0.34034
 Alpha  occ. eigenvalues --   -0.26249  -0.25559  -0.25120  -0.24579
 Alpha virt. eigenvalues --    0.01526   0.03340   0.07257   0.08828   0.11410
 Alpha virt. eigenvalues --    0.13016   0.14152   0.14927   0.15067   0.15828
 Alpha virt. eigenvalues --    0.16072   0.16491   0.18002   0.18864   0.18998

 Mulliken atomic charges:
              1
     1  H    0.185872
     2  C   -0.541843
     3  H    0.187659
     4  H    0.151445
     5  C    0.592998
     6  O   -0.504642
     7  N   -0.587102
     8  H    0.332330
     9  C   -0.006850
    10  H    0.197527
    11  C   -0.477857
    12  H    0.144543
    13  H    0.144528
    14  H    0.189577
    15  C    0.548427
    16  O   -0.516200
    17  N   -0.588724
    18  H    0.335114
    19  C   -0.313345
    20  H    0.206650
    21  H    0.161667
    22  H    0.158226
 Sum of Mulliken atomic charges =   0.00000

 Dipole moment (field-independent basis, Debye):
    X=              3.0124    Y=              0.7625    Z=              3.2658  Tot=              4.5080
 Quadrupole moment (field-independent basis, Debye-Ang):
   XX=            -55.2299   YY=            -60.6525   ZZ=            -61.6547
   XY=              9.2720   XZ=             -2.7319   YZ=             -1.8834

 Normal termination of Gaussian 09 at Fri Feb 10 22:19:07 2017.
