 Gaussian 09, Revision A.02,
 Gaussian 09:  EM64L-G09RevA.02 11-Jun-2009

 ----------------------------------------------------------------------
 # b3lyp/6-31G* Opt=(ModRedundant, maxcycles=1000, calcfc) geom=nocrowd
 ----------------------------------------------------------------------

 ------------------
 Phi Psi fixed scan
 ------------------
 Symbolic Z-matrix:
 Charge =  0 Multiplicity = 1

 SCF Done:  E(RB3LYP) =  -495.845418345     A.U. after   14 cycles

  Exact polarizability:   0.000   0.000   0.000   0.000   0.000   0.000
 Approx polarizability: 111.709   0.439  92.546   4.638  13.943 131.656

 SCF Done:  E(RB3LYP) =  -495.847958132     A.U. after   12 cycles
 SCF Done:  E(RB3LYP) =  -495.850444170     A.U. after   12 cycles
 SCF Done:  E(RB3LYP) =  -495.850563278     A.U. after   12 cycles
 SCF Done:  E(RB3LYP) =  -495.850733090     A.U. after   12 cycles
 SCF Done:  E(RB3LYP) =  -495.817701142     A.U. after   13 cycles
 SCF Done:  E(RB3LYP) =  -495.850768807     A.U. after   13 cycles
 SCF Done:  E(RB3LYP) =  -495.850826220     A.U. after   11 cycles
 SCF Done:  E(RB3LYP) =  -495.850862537     A.U. after   10 cycles
 SCF Done:  E(RB3LYP) =  -495.850891573     A.U. after   10 cycles
 SCF Done:  E(RB3LYP) =  -495.850907108     A.U. after   10 cycles
 SCF Done:  E(RB3LYP) =  -495.850913334     A.U. after    9 cycles
 SCF Done:  E(RB3LYP) =  -495.850914798     A.U. after    9 cycles
 SCF Done:  E(RB3LYP) =  -495.850915303     A.U. after    9 cycles
 SCF Done:  E(RB3LYP) =  -495.850915633     A.U. after    7 cycles
 SCF Done:  E(RB3LYP) =  -495.850915635     A.U. after    6 cycles
 Optimization completed.
    -- Stationary point found.

                         Standard orientation:
 ---------------------------------------------------------------------
 Center     Atomic      Atomic             Coordinates (Angstroms)
 Number     Number       Type             X           Y           Z
 ---------------------------------------------------------------------
      1          1           0       -3.419568   -2.007767    0.474687
      2          6           0       -3.205208   -0.980673    0.784939
      3          1           0       -2.892443   -0.981381    1.833703
      4          1           0       -4.135851   -0.411786    0.692551
      5          6           0       -2.173152   -0.388677   -0.163569
      6          8           0       -2.347522   -0.360570   -1.377366
      7          7           0       -1.048599    0.108835    0.432783
      8          1           0       -0.922551    0.051836    1.434720
      9          6           0        0.043034    0.710156   -0.322159
     10          1           0       -0.112644    0.406819   -1.361323
     11          6           0        0.040057    2.241781   -0.223263
     12          1           0        0.186594    2.552700    0.815605
     13          1           0        0.847865    2.671913   -0.826978
     14          1           0       -0.913889    2.635044   -0.586782
     15          6           0        1.348887    0.138561    0.248548
     16          8           0        1.626759    0.290596    1.435615
     17          7           0        2.129647   -0.545569   -0.630798
     18          1           0        1.798432   -0.659787   -1.577996
     19          6           0        3.386812   -1.167227   -0.250399
     20          1           0        3.569043   -0.918515    0.795850
     21          1           0        3.337755   -2.257371   -0.356489
     22          1           0        4.213438   -0.788296   -0.862026
 ---------------------------------------------------------------------

 The electronic state is 1-A.
 Alpha  occ. eigenvalues --  -19.11653 -19.10341 -14.37207 -14.35788 -10.28980
 Alpha  occ. eigenvalues --  -10.28437 -10.23392 -10.22383 -10.18962 -10.18218
 Alpha  occ. eigenvalues --   -1.03752  -1.02315  -0.92775  -0.91903  -0.77877
 Alpha  occ. eigenvalues --   -0.72758  -0.71442  -0.64268  -0.59329  -0.58331
 Alpha  occ. eigenvalues --   -0.53595  -0.48108  -0.46962  -0.46196  -0.45532
 Alpha  occ. eigenvalues --   -0.44495  -0.42310  -0.41718  -0.40702  -0.39654
 Alpha  occ. eigenvalues --   -0.39293  -0.37686  -0.36633  -0.36343  -0.34645
 Alpha  occ. eigenvalues --   -0.26578  -0.26025  -0.24445  -0.24199
 Alpha virt. eigenvalues --    0.01724   0.04007   0.07002   0.08674   0.11879
 Alpha virt. eigenvalues --    0.12806   0.13231   0.15383   0.15999   0.16398
 Alpha virt. eigenvalues --    0.16825   0.17250   0.17899   0.18300   0.19948

 Mulliken atomic charges:
              1
     1  H    0.184122
     2  C   -0.533404
     3  H    0.146404
     4  H    0.184771
     5  C    0.593731
     6  O   -0.517107
     7  N   -0.593865
     8  H    0.336802
     9  C   -0.038132
    10  H    0.167762
    11  C   -0.442748
    12  H    0.167324
    13  H    0.147469
    14  H    0.165287
    15  C    0.606979
    16  O   -0.535587
    17  N   -0.589059
    18  H    0.333768
    19  C   -0.313846
    20  H    0.206192
    21  H    0.162430
    22  H    0.160707
 Sum of Mulliken atomic charges =   0.00000

 Dipole moment (field-independent basis, Debye):
    X=              1.5453    Y=             -0.7672    Z=             -0.1181  Tot=              1.7293
 Quadrupole moment (field-independent basis, Debye-Ang):
   XX=            -57.2047   YY=            -57.4355   ZZ=            -63.7061
   XY=             -3.1726   XZ=            -14.1054   YZ=             -1.3785

 Normal termination of Gaussian 09 at Fri Feb 10 22:01:48 2017.
