 Gaussian 09, Revision A.02,
 Gaussian 09:  EM64L-G09RevA.02 11-Jun-2009

 ----------------------------------------------------------------------
 # b3lyp/6-31G* Opt=(ModRedundant, maxcycles=1000, calcfc) geom=nocrowd
 ----------------------------------------------------------------------

 ------------------
 Phi Psi fixed scan
 ------------------
 Symbolic Z-matrix:
 Charge =  0 Multiplicity = 1

 SCF Done:  E(RB3LYP) =  -495.832149316     A.U. after   15 cycles

  Exact polarizability:   0.000   0.000   0.000   0.000   0.000   0.000
 Approx polarizability: 116.067  -2.951 116.441   3.478 -24.063 103.578

 SCF Done:  E(RB3LYP) =  -495.836479445     A.U. after   13 cycles
 SCF Done:  E(RB3LYP) =  -495.841875554     A.U. after   13 cycles
 SCF Done:  E(RB3LYP) =  -495.841280043     A.U. after   13 cycles
 SCF Done:  E(RB3LYP) =  -495.842191301     A.U. after   13 cycles
 SCF Done:  E(RB3LYP) =  -495.842929033     A.U. after   11 cycles
 SCF Done:  E(RB3LYP) =  -495.843675112     A.U. after   12 cycles
 SCF Done:  E(RB3LYP) =  -495.843696944     A.U. after   12 cycles
 SCF Done:  E(RB3LYP) =  -495.843915282     A.U. after   12 cycles
 SCF Done:  E(RB3LYP) =  -495.843522548     A.U. after   13 cycles
 SCF Done:  E(RB3LYP) =  -495.844236181     A.U. after   11 cycles
 SCF Done:  E(RB3LYP) =  -495.844268066     A.U. after   11 cycles
 SCF Done:  E(RB3LYP) =  -495.844257561     A.U. after   11 cycles
 SCF Done:  E(RB3LYP) =  -495.844272083     A.U. after   11 cycles
 SCF Done:  E(RB3LYP) =  -495.844274438     A.U. after    9 cycles
 SCF Done:  E(RB3LYP) =  -495.844277777     A.U. after   10 cycles
 SCF Done:  E(RB3LYP) =  -495.844277741     A.U. after    9 cycles
 SCF Done:  E(RB3LYP) =  -495.844278344     A.U. after    9 cycles
 SCF Done:  E(RB3LYP) =  -495.844278337     A.U. after    7 cycles
 SCF Done:  E(RB3LYP) =  -495.844278376     A.U. after    6 cycles
 Optimization completed.
    -- Stationary point found.

                         Standard orientation:
 ---------------------------------------------------------------------
 Center     Atomic      Atomic             Coordinates (Angstroms)
 Number     Number       Type             X           Y           Z
 ---------------------------------------------------------------------
      1          1           0       -3.757616   -1.702325   -0.454307
      2          6           0       -3.196093   -1.219065    0.348892
      3          1           0       -2.731117   -1.986088    0.976499
      4          1           0       -3.912255   -0.654123    0.956520
      5          6           0       -2.196210   -0.252463   -0.269020
      6          8           0       -2.487335    0.473974   -1.205006
      7          7           0       -0.930550   -0.280545    0.297014
      8          1           0       -0.896437   -0.677764    1.230054
      9          6           0        0.025618    0.800124    0.036731
     10          1           0       -0.336604    1.299093   -0.864327
     11          6           0        0.087083    1.815466    1.188447
     12          1           0        0.405140    1.334965    2.122244
     13          1           0        0.807425    2.602614    0.948835
     14          1           0       -0.895848    2.271862    1.343648
     15          6           0        1.444721    0.304583   -0.289761
     16          8           0        2.222168    1.023450   -0.903294
     17          7           0        1.817080   -0.881421    0.287782
     18          1           0        1.066406   -1.528036    0.492211
     19          6           0        3.127565   -1.453980    0.013882
     20          1           0        3.853085   -0.640408   -0.026207
     21          1           0        3.397716   -2.144886    0.817538
     22          1           0        3.159624   -1.988528   -0.944912
 ---------------------------------------------------------------------

 The electronic state is 1-A.
 Alpha  occ. eigenvalues --  -19.12006 -19.11115 -14.37022 -14.36250 -10.29717
 Alpha  occ. eigenvalues --  -10.28324 -10.23292 -10.21915 -10.20092 -10.19034
 Alpha  occ. eigenvalues --   -1.04026  -1.03033  -0.93483  -0.91522  -0.78241
 Alpha  occ. eigenvalues --   -0.73496  -0.71001  -0.64612  -0.59200  -0.57954
 Alpha  occ. eigenvalues --   -0.53568  -0.48598  -0.48164  -0.45823  -0.45376
 Alpha  occ. eigenvalues --   -0.43850  -0.42661  -0.42018  -0.41276  -0.40482
 Alpha  occ. eigenvalues --   -0.39375  -0.38219  -0.37149  -0.36206  -0.34872
 Alpha  occ. eigenvalues --   -0.28102  -0.25876  -0.25616  -0.23908
 Alpha virt. eigenvalues --    0.01521   0.02268   0.05256   0.10063   0.11707
 Alpha virt. eigenvalues --    0.12092   0.13278   0.14567   0.15084   0.15558
 Alpha virt. eigenvalues --    0.16484   0.17344   0.17646   0.18468   0.19535

 Mulliken atomic charges:
              1
     1  H    0.193511
     2  C   -0.541274
     3  H    0.145973
     4  H    0.185873
     5  C    0.588019
     6  O   -0.483987
     7  N   -0.613739
     8  H    0.316704
     9  C   -0.056762
    10  H    0.210450
    11  C   -0.454776
    12  H    0.140984
    13  H    0.185103
    14  H    0.162468
    15  C    0.595522
    16  O   -0.511905
    17  N   -0.589899
    18  H    0.323647
    19  C   -0.306106
    20  H    0.196919
    21  H    0.151051
    22  H    0.162225
 Sum of Mulliken atomic charges =   0.00000

 Dipole moment (field-independent basis, Debye):
    X=             -0.6104    Y=             -3.7221    Z=              4.3258  Tot=              5.7393
 Quadrupole moment (field-independent basis, Debye-Ang):
   XX=            -63.4323   YY=            -57.0290   ZZ=            -62.7077
   XY=             -2.1043   XZ=             -3.1098   YZ=              2.3559

 Normal termination of Gaussian 09 at Fri Feb 10 22:32:45 2017.
