 Gaussian 09, Revision A.02,
 Gaussian 09:  EM64L-G09RevA.02 11-Jun-2009

 ----------------------------------------------------------------------
 #MP2/cc-pvTZ density=MP2, maxdisk=16GB, pop=(minimal, MK), 5d, punch=m
 o
 ----------------------------------------------------------------------

 -----------------
 Generated by mdgx
 -----------------
 Symbolic Z-matrix:
 Charge =  0 Multiplicity = 1

                         Standard orientation:
 ---------------------------------------------------------------------
 Center     Atomic      Atomic             Coordinates (Angstroms)
 Number     Number       Type             X           Y           Z
 ---------------------------------------------------------------------
      1          1           0       -3.217067   -1.880539    0.530285
      2          6           0       -2.954860   -1.177937   -0.260727
      3          1           0       -3.847160   -0.562175   -0.373586
      4          1           0       -2.735475   -1.643887   -1.221383
      5          6           0       -1.795771   -0.383763    0.196684
      6          8           0       -1.350241   -0.589443    1.352883
      7          7           0       -1.141180    0.362652   -0.715276
      8          1           0       -1.668579    0.478467   -1.568820
      9          6           0        0.101644    1.146937   -0.528739
     10          1           0        0.385035    1.430963   -1.542208
     11          6           0       -0.269225    2.463494    0.259212
     12          1           0       -0.423351    2.250299    1.316990
     13          1           0        0.573372    3.130968    0.078638
     14          1           0       -1.163429    2.911702   -0.173928
     15          6           0        1.384276    0.390534   -0.190489
     16          8           0        2.323902    0.940093    0.405173
     17          7           0        1.415259   -0.955759   -0.346999
     18          1           0        0.538604   -1.311535   -0.700553
     19          6           0        2.482490   -1.933268   -0.011309
     20          1           0        1.976765   -2.896532    0.055505
     21          1           0        3.258225   -1.892682   -0.775957
     22          1           0        2.923900   -1.704477    0.958698
 ---------------------------------------------------------------------

 SCF Done:  E(RHF) =  -492.997831821     A.U. after   14 cycles
 E2 =    -0.1890024700D+01 EUMP2 =    -0.49488785652112D+03

 The electronic state is 1-A.
 Alpha  occ. eigenvalues --  -20.51468 -20.50182 -15.60367 -15.57636 -11.35581
 Alpha  occ. eigenvalues --  -11.34804 -11.30330 -11.26498 -11.24428 -11.22888
 Alpha  occ. eigenvalues --   -1.36820  -1.35702  -1.24641  -1.20836  -1.05960
 Alpha  occ. eigenvalues --   -1.00094  -0.96078  -0.88912  -0.80520  -0.76067
 Alpha  occ. eigenvalues --   -0.72361  -0.69067  -0.64917  -0.63623  -0.62118
 Alpha  occ. eigenvalues --   -0.61086  -0.59595  -0.58559  -0.57199  -0.55719
 Alpha  occ. eigenvalues --   -0.54908  -0.54500  -0.52992  -0.50925  -0.48769
 Alpha  occ. eigenvalues --   -0.42532  -0.42119  -0.39650  -0.37923
 Alpha virt. eigenvalues --    0.10366   0.14064   0.15058   0.15701   0.17790
 Alpha virt. eigenvalues --    0.18361   0.18890   0.19669   0.21187   0.21724
 Alpha virt. eigenvalues --    0.23091   0.23694   0.24124   0.24710   0.27810

 Mulliken atomic charges:
              1
     1  H    0.157339
     2  C   -0.386065
     3  H    0.133943
     4  H    0.116168
     5  C    0.163608
     6  O   -0.327312
     7  N   -0.203678
     8  H    0.189742
     9  C   -0.042018
    10  H    0.148726
    11  C   -0.348018
    12  H    0.153715
    13  H    0.140593
    14  H    0.117477
    15  C    0.137008
    16  O   -0.328081
    17  N   -0.135558
    18  H    0.167105
    19  C   -0.244967
    20  H    0.120275
    21  H    0.125926
    22  H    0.144072
 Sum of Mulliken atomic charges =   0.00000

 Dipole moment (field-independent basis, Debye):
    X=             -2.9151    Y=             -1.4839    Z=             -4.6384  Tot=              5.6758
 Quadrupole moment (field-independent basis, Debye-Ang):
   XX=            -61.3729   YY=            -56.8376   ZZ=            -62.7530
   XY=             -7.0457   XZ=              2.8941   YZ=             -0.4931

 Normal termination of Gaussian 09 at Sat Mar 18 13:58:13 2017.
