 Gaussian 09, Revision A.02,
 Gaussian 09:  EM64L-G09RevA.02 11-Jun-2009

 -------------------------------------------------------------------
 # HF/6-31G* Opt=(ModRedundant, maxcycles=1000, calcfc) geom=nocrowd
 -------------------------------------------------------------------

 ------------------
 Phi Psi fixed scan
 ------------------
 Symbolic Z-matrix:
 Charge =  0 Multiplicity = 1

 SCF Done:  E(RHF) =  -983.675030146     A.U. after   17 cycles

  Exact polarizability:   0.000   0.000   0.000   0.000   0.000   0.000
 Approx polarizability: 143.580  -5.128 143.647  -2.432   0.156 110.372

 SCF Done:  E(RHF) =  -983.863688594     A.U. after   15 cycles
 SCF Done:  E(RHF) =  -984.122970088     A.U. after   16 cycles
 SCF Done:  E(RHF) =  -984.344234545     A.U. after   16 cycles
 SCF Done:  E(RHF) =  -984.433794950     A.U. after   14 cycles
 SCF Done:  E(RHF) =  -984.430739174     A.U. after   14 cycles
 SCF Done:  E(RHF) =  -984.470410387     A.U. after   14 cycles
 SCF Done:  E(RHF) =  -984.499041587     A.U. after   15 cycles
 SCF Done:  E(RHF) =  -984.528289853     A.U. after   14 cycles
 SCF Done:  E(RHF) =  -984.537494121     A.U. after   15 cycles
 SCF Done:  E(RHF) =  -984.548130926     A.U. after   11 cycles
 SCF Done:  E(RHF) =  -984.548134315     A.U. after   10 cycles
 SCF Done:  E(RHF) =  -984.548143042     A.U. after   11 cycles
 SCF Done:  E(RHF) =  -984.548144586     A.U. after   10 cycles
 SCF Done:  E(RHF) =  -984.548146230     A.U. after   10 cycles
 SCF Done:  E(RHF) =  -984.548147360     A.U. after   10 cycles
 SCF Done:  E(RHF) =  -984.548147762     A.U. after    9 cycles
 SCF Done:  E(RHF) =  -984.548147824     A.U. after    7 cycles
 SCF Done:  E(RHF) =  -984.548147852     A.U. after    6 cycles
 SCF Done:  E(RHF) =  -984.548147874     A.U. after    7 cycles
 Optimization completed.
    -- Stationary point found.

                         Standard orientation:
 ---------------------------------------------------------------------
 Center     Atomic      Atomic             Coordinates (Angstroms)
 Number     Number       Type             X           Y           Z
 ---------------------------------------------------------------------
      1          1           0       -5.787364   -2.778588   -1.104495
      2          6           0       -4.940253   -2.753635   -0.432414
      3          1           0       -4.109363   -3.290920   -0.873019
      4          1           0       -5.229063   -3.252551    0.486588
      5          6           0       -4.615146   -1.310483   -0.115682
      6          8           0       -5.477746   -0.497260    0.092982
      7          7           0       -3.302689   -1.003271   -0.060346
      8          1           0       -2.602092   -1.686031   -0.244537
      9          6           0       -2.842116    0.326983    0.247606
     10          1           0       -3.507800    1.032252   -0.233133
     11          6           0       -2.829930    0.600435    1.758563
     12          1           0       -2.163844   -0.091843    2.261753
     13          1           0       -2.505308    1.612944    1.977582
     14          1           0       -3.830888    0.471389    2.148130
     15          6           0       -1.430513    0.468971   -0.319800
     16          8           0       -0.750047   -0.508730   -0.501510
     17          7           0       -1.066189    1.736407   -0.589881
     18          1           0       -1.770908    2.405348   -0.376022
     19          6           0        0.223347    2.385945   -0.886612
     20          1           0        0.376435    2.320174   -1.961495
     21          6           0        0.061132    3.863159   -0.527840
     22          1           0       -0.076923    3.986379    0.541282
     23          1           0        0.936452    4.417463   -0.822343
     24          1           0       -0.801844    4.275698   -1.042118
     25          6           0        1.561245    1.857735   -0.316634
     26          8           0        2.448121    2.670419   -0.199819
     27          7           0        1.747774    0.562463   -0.052953
     28          1           0        1.025784   -0.113990   -0.205172
     29          6           0        3.042212    0.097725    0.399993
     30          1           0        3.801128    0.691211   -0.090663
     31          6           0        3.203696    0.243629    1.918531
     32          1           0        2.448710   -0.340368    2.432555
     33          1           0        4.182743   -0.096391    2.240945
     34          1           0        3.094451    1.284874    2.193587
     35          6           0        3.191158   -1.367752    0.008686
     36          8           0        2.251190   -2.115219   -0.014641
     37          7           0        4.452849   -1.770704   -0.245142
     38          1           0        5.167634   -1.086998   -0.334794
     39          6           0        4.751332   -3.138658   -0.612760
     40          1           0        4.269473   -3.817398    0.075905
     41          1           0        4.409308   -3.368748   -1.615684
     42          1           0        5.821937   -3.286174   -0.562522
 ---------------------------------------------------------------------

 The electronic state is 1-A.
 Alpha  occ. eigenvalues --  -20.54897 -20.52542 -20.52075 -20.51702 -15.61057
 Alpha  occ. eigenvalues --  -15.58979 -15.58149 -15.57311 -11.37061 -11.35183
 Alpha  occ. eigenvalues --  -11.34572 -11.34551 -11.29946 -11.28717 -11.27519
 Alpha  occ. eigenvalues --  -11.26033 -11.23219 -11.22896 -11.22868 -11.22004
 Alpha  occ. eigenvalues --   -1.41920  -1.39768  -1.39024  -1.38615  -1.26198
 Alpha  occ. eigenvalues --   -1.23854  -1.23705  -1.23092  -1.07688  -1.04668
 Alpha  occ. eigenvalues --   -1.03418  -0.98902  -0.96011  -0.91673  -0.89912
 Alpha  occ. eigenvalues --   -0.86763  -0.82401  -0.79586  -0.79138  -0.78395
 Alpha  occ. eigenvalues --   -0.73828  -0.72710  -0.69236  -0.68042  -0.67165
 Alpha  occ. eigenvalues --   -0.65740  -0.65585  -0.63651  -0.63449  -0.62736
 Alpha  occ. eigenvalues --   -0.61540  -0.60977  -0.59766  -0.59195  -0.58501
 Alpha  occ. eigenvalues --   -0.58307  -0.56996  -0.56032  -0.55676  -0.55663
 Alpha  occ. eigenvalues --   -0.55135  -0.54879  -0.54601  -0.53215  -0.53071
 Alpha  occ. eigenvalues --   -0.52244  -0.51834  -0.49922  -0.49684  -0.44214
 Alpha  occ. eigenvalues --   -0.43492  -0.42102  -0.41494  -0.39982  -0.39482
 Alpha  occ. eigenvalues --   -0.38577  -0.37934
 Alpha virt. eigenvalues --    0.17787   0.18559   0.19907   0.20895   0.21537
 Alpha virt. eigenvalues --    0.21760   0.24009   0.26300   0.26732   0.27297
 Alpha virt. eigenvalues --    0.27837   0.28451   0.28920   0.29967   0.30523

 Mulliken atomic charges:
              1
     1  H    0.208510
     2  C   -0.576725
     3  H    0.176901
     4  H    0.203005
     5  C    0.755927
     6  O   -0.622894
     7  N   -0.822750
     8  H    0.423899
     9  C   -0.043319
    10  H    0.220533
    11  C   -0.489717
    12  H    0.183003
    13  H    0.156396
    14  H    0.214731
    15  C    0.814012
    16  O   -0.651568
    17  N   -0.859159
    18  H    0.399875
    19  C    0.010487
    20  H    0.217328
    21  C   -0.517840
    22  H    0.177555
    23  H    0.231463
    24  H    0.163188
    25  C    0.778364
    26  O   -0.642975
    27  N   -0.884139
    28  H    0.514479
    29  C   -0.027799
    30  H    0.211320
    31  C   -0.486264
    32  H    0.182807
    33  H    0.161889
    34  H    0.199255
    35  C    0.766462
    36  O   -0.614098
    37  N   -0.800233
    38  H    0.387287
    39  C   -0.272207
    40  H    0.202728
    41  H    0.181440
    42  H    0.168840
 Sum of Mulliken atomic charges =   0.00000

 Dipole moment (field-independent basis, Debye):
    X=              2.9726    Y=             -0.0324    Z=             -0.2873  Tot=              2.9867
 Quadrupole moment (field-independent basis, Debye-Ang):
   XX=           -122.5976   YY=           -116.3048   ZZ=           -117.2175
   XY=             -8.6772   XZ=             -0.2408   YZ=             -0.0265

 Normal termination of Gaussian 09 at Tue Dec 27 14:09:27 2016.
