 Gaussian 09, Revision A.02,
 Gaussian 09:  EM64L-G09RevA.02 11-Jun-2009

 -------------------------------------------------------------------
 # HF/6-31G* Opt=(ModRedundant, maxcycles=1000, calcfc) geom=nocrowd
 -------------------------------------------------------------------

 ------------------
 Phi Psi fixed scan
 ------------------
 Symbolic Z-matrix:
 Charge =  0 Multiplicity = 1

 SCF Done:  E(RHF) =  -984.508153781     A.U. after   15 cycles

  Exact polarizability:   0.000   0.000   0.000   0.000   0.000   0.000
 Approx polarizability: 132.246  -1.157 131.358  17.243  -7.176 126.824

 SCF Done:  E(RHF) =  -984.524390089     A.U. after   13 cycles
 SCF Done:  E(RHF) =  -984.542839864     A.U. after   13 cycles
 SCF Done:  E(RHF) =  -984.548533174     A.U. after   13 cycles
 SCF Done:  E(RHF) =  -984.551206745     A.U. after   15 cycles
 SCF Done:  E(RHF) =  -984.542340857     A.U. after   15 cycles
 SCF Done:  E(RHF) =  -984.553984208     A.U. after   15 cycles
 SCF Done:  E(RHF) =  -984.553855957     A.U. after   15 cycles
 SCF Done:  E(RHF) =  -984.552296278     A.U. after   15 cycles
 SCF Done:  E(RHF) =  -984.552807957     A.U. after   13 cycles
 SCF Done:  E(RHF) =  -984.555603680     A.U. after    9 cycles
 SCF Done:  E(RHF) =  -984.555603991     A.U. after    9 cycles
 SCF Done:  E(RHF) =  -984.555604184     A.U. after    8 cycles
 SCF Done:  E(RHF) =  -984.555604298     A.U. after    8 cycles
 SCF Done:  E(RHF) =  -984.555604377     A.U. after    8 cycles
 SCF Done:  E(RHF) =  -984.555604523     A.U. after    8 cycles
 SCF Done:  E(RHF) =  -984.555604714     A.U. after    8 cycles
 SCF Done:  E(RHF) =  -984.555604840     A.U. after    8 cycles
 SCF Done:  E(RHF) =  -984.555604886     A.U. after    8 cycles
 SCF Done:  E(RHF) =  -984.555604926     A.U. after    7 cycles
 Optimization completed.
    -- Stationary point found.

                         Standard orientation:
 ---------------------------------------------------------------------
 Center     Atomic      Atomic             Coordinates (Angstroms)
 Number     Number       Type             X           Y           Z
 ---------------------------------------------------------------------
      1          1           0        5.978230    1.467263   -1.366000
      2          6           0        4.988639    1.780738   -1.062164
      3          1           0        4.385228    1.982248   -1.938959
      4          1           0        5.089685    2.697655   -0.491212
      5          6           0        4.396971    0.716340   -0.163959
      6          8           0        5.056361    0.157090    0.673491
      7          7           0        3.086721    0.456274   -0.347868
      8          1           0        2.562589    0.915289   -1.058310
      9          6           0        2.380745   -0.521015    0.441855
     10          1           0        3.038783   -1.366340    0.600073
     11          6           0        1.946489    0.038757    1.804765
     12          1           0        1.263054    0.870591    1.677222
     13          1           0        1.457600   -0.720977    2.407835
     14          1           0        2.823125    0.379010    2.339698
     15          6           0        1.161689   -0.965323   -0.361845
     16          8           0        0.701959   -0.283037   -1.237694
     17          7           0        0.659511   -2.174111   -0.015336
     18          1           0        1.112633   -2.630080    0.744797
     19          6           0       -0.644193   -2.725651   -0.374727
     20          1           0       -0.558275   -3.227128   -1.329504
     21          6           0       -1.050316   -3.757381    0.680555
     22          1           0       -1.178343   -3.291269    1.652605
     23          1           0       -1.983393   -4.223116    0.393652
     24          1           0       -0.295413   -4.533008    0.763738
     25          6           0       -1.817603   -1.762661   -0.593775
     26          8           0       -2.707080   -2.124569   -1.319831
     27          7           0       -1.851459   -0.606961    0.084068
     28          1           0       -1.062190   -0.287207    0.594583
     29          6           0       -2.870211    0.385856   -0.161949
     30          1           0       -3.108055    0.377289   -1.218651
     31          6           0       -4.148045    0.111352    0.640599
     32          1           0       -3.935290    0.130079    1.703796
     33          1           0       -4.912648    0.851420    0.428075
     34          1           0       -4.531080   -0.865065    0.375270
     35          6           0       -2.283388    1.741212    0.223056
     36          8           0       -1.379803    1.834886    1.014442
     37          7           0       -2.876086    2.810469   -0.335977
     38          1           0       -3.527266    2.666298   -1.072443
     39          6           0       -2.423261    4.159468   -0.065803
     40          1           0       -2.323257    4.306641    0.999653
     41          1           0       -1.465821    4.361069   -0.532604
     42          1           0       -3.157292    4.854545   -0.450442
 ---------------------------------------------------------------------

 The electronic state is 1-A.
 Alpha  occ. eigenvalues --  -20.54274 -20.53709 -20.52207 -20.51460 -15.60476
 Alpha  occ. eigenvalues --  -15.59763 -15.57984 -15.57886 -11.36252 -11.35629
 Alpha  occ. eigenvalues --  -11.34888 -11.34324 -11.28964 -11.28261 -11.28233
 Alpha  occ. eigenvalues --  -11.26637 -11.24046 -11.22775 -11.22451 -11.22204
 Alpha  occ. eigenvalues --   -1.41369  -1.40620  -1.39135  -1.38361  -1.25803
 Alpha  occ. eigenvalues --   -1.24558  -1.23779  -1.23440  -1.07603  -1.04942
 Alpha  occ. eigenvalues --   -1.03360  -0.98677  -0.96615  -0.91708  -0.89849
 Alpha  occ. eigenvalues --   -0.87213  -0.82074  -0.80455  -0.78829  -0.78653
 Alpha  occ. eigenvalues --   -0.74002  -0.72656  -0.69308  -0.67661  -0.66753
 Alpha  occ. eigenvalues --   -0.65764  -0.65435  -0.64523  -0.63349  -0.62866
 Alpha  occ. eigenvalues --   -0.62261  -0.61202  -0.60079  -0.59039  -0.58044
 Alpha  occ. eigenvalues --   -0.57891  -0.57277  -0.56807  -0.56345  -0.56223
 Alpha  occ. eigenvalues --   -0.55635  -0.54724  -0.54408  -0.53362  -0.52808
 Alpha  occ. eigenvalues --   -0.52572  -0.51879  -0.50029  -0.49352  -0.43586
 Alpha  occ. eigenvalues --   -0.43272  -0.42720  -0.41268  -0.40746  -0.40075
 Alpha  occ. eigenvalues --   -0.38349  -0.38175
 Alpha virt. eigenvalues --    0.18075   0.18329   0.20016   0.20460   0.21180
 Alpha virt. eigenvalues --    0.21379   0.23995   0.25716   0.26127   0.26999
 Alpha virt. eigenvalues --    0.28223   0.28278   0.29016   0.29774   0.30417

 Mulliken atomic charges:
              1
     1  H    0.208158
     2  C   -0.575971
     3  H    0.173358
     4  H    0.202363
     5  C    0.756767
     6  O   -0.622928
     7  N   -0.821010
     8  H    0.418876
     9  C   -0.034401
    10  H    0.219077
    11  C   -0.510374
    12  H    0.212410
    13  H    0.148709
    14  H    0.213192
    15  C    0.770755
    16  O   -0.621290
    17  N   -0.848845
    18  H    0.394374
    19  C    0.017220
    20  H    0.229265
    21  C   -0.531642
    22  H    0.177825
    23  H    0.217040
    24  H    0.178604
    25  C    0.786710
    26  O   -0.638236
    27  N   -0.823046
    28  H    0.432898
    29  C   -0.029834
    30  H    0.214598
    31  C   -0.483502
    32  H    0.177977
    33  H    0.159302
    34  H    0.209269
    35  C    0.781135
    36  O   -0.637935
    37  N   -0.797106
    38  H    0.390467
    39  C   -0.273644
    40  H    0.203381
    41  H    0.183680
    42  H    0.172353
 Sum of Mulliken atomic charges =   0.00000

 Dipole moment (field-independent basis, Debye):
    X=             -2.7119    Y=              1.8289    Z=              0.0968  Tot=              3.2724
 Quadrupole moment (field-independent basis, Debye-Ang):
   XX=           -132.4436   YY=           -101.7191   ZZ=           -125.0448
   XY=            -10.5615   XZ=             -9.9482   YZ=            -14.5203

 Normal termination of Gaussian 09 at Tue Dec 27 14:56:06 2016.
