 Gaussian 09, Revision A.02,
 Gaussian 09:  EM64L-G09RevA.02 11-Jun-2009

 -------------------------------------------------------------------
 # HF/6-31G* Opt=(ModRedundant, maxcycles=1000, calcfc) geom=nocrowd
 -------------------------------------------------------------------

 ------------------
 Phi Psi fixed scan
 ------------------
 Symbolic Z-matrix:
 Charge =  0 Multiplicity = 1

 SCF Done:  E(RHF) =  -984.517703119     A.U. after   15 cycles

  Exact polarizability:   0.000   0.000   0.000   0.000   0.000   0.000
 Approx polarizability: 133.085  -9.913 129.985   6.779  -0.638 126.576

 SCF Done:  E(RHF) =  -984.530548422     A.U. after   14 cycles
 SCF Done:  E(RHF) =  -984.543940542     A.U. after   14 cycles
 SCF Done:  E(RHF) =  -984.545058559     A.U. after   15 cycles
 SCF Done:  E(RHF) =  -984.545760170     A.U. after   13 cycles
 SCF Done:  E(RHF) =  -984.547519296     A.U. after   12 cycles
 SCF Done:  E(RHF) =  -984.548427217     A.U. after   12 cycles
 SCF Done:  E(RHF) =  -984.549993966     A.U. after   12 cycles
 SCF Done:  E(RHF) =  -984.551844422     A.U. after   13 cycles
 SCF Done:  E(RHF) =  -984.552625146     A.U. after   13 cycles
 SCF Done:  E(RHF) =  -984.554941962     A.U. after    9 cycles
 SCF Done:  E(RHF) =  -984.554944499     A.U. after    9 cycles
 SCF Done:  E(RHF) =  -984.554947375     A.U. after   10 cycles
 SCF Done:  E(RHF) =  -984.554949983     A.U. after   10 cycles
 SCF Done:  E(RHF) =  -984.554948600     A.U. after   10 cycles
 SCF Done:  E(RHF) =  -984.554950282     A.U. after   11 cycles
 SCF Done:  E(RHF) =  -984.554950229     A.U. after    8 cycles
 SCF Done:  E(RHF) =  -984.554950302     A.U. after    8 cycles
 SCF Done:  E(RHF) =  -984.554950303     A.U. after    7 cycles
 SCF Done:  E(RHF) =  -984.554950299     A.U. after    7 cycles
 Optimization completed.
    -- Stationary point found.

                         Standard orientation:
 ---------------------------------------------------------------------
 Center     Atomic      Atomic             Coordinates (Angstroms)
 Number     Number       Type             X           Y           Z
 ---------------------------------------------------------------------
      1          1           0       -5.276464   -3.310505    0.645236
      2          6           0       -4.845909   -2.974843   -0.292215
      3          1           0       -5.557848   -3.185215   -1.078876
      4          1           0       -3.931273   -3.526599   -0.472175
      5          6           0       -4.634518   -1.478484   -0.217310
      6          8           0       -5.550605   -0.704019   -0.314649
      7          7           0       -3.363634   -1.074850   -0.012768
      8          1           0       -2.617196   -1.729634    0.052845
      9          6           0       -3.009881    0.318708    0.094340
     10          1           0       -3.606731    0.872538   -0.618973
     11          6           0       -3.265979    0.876641    1.501467
     12          1           0       -2.673383    0.339365    2.233582
     13          1           0       -3.014097    1.930600    1.562756
     14          1           0       -4.314309    0.760342    1.742352
     15          6           0       -1.529639    0.445256   -0.256148
     16          8           0       -0.776298   -0.481895   -0.108712
     17          7           0       -1.162774    1.653027   -0.727682
     18          1           0       -1.885029    2.336265   -0.774095
     19          6           0        0.186632    2.198985   -0.896474
     20          1           0        0.534003    1.920027   -1.886784
     21          6           0        0.111804    3.718254   -0.814258
     22          1           0       -0.189159    4.030453    0.176691
     23          1           0        1.080795    4.152966   -1.023774
     24          1           0       -0.592818    4.100027   -1.547206
     25          6           0        1.230213    1.670624    0.109886
     26          8           0        1.458253    2.275822    1.125142
     27          7           0        1.899722    0.567694   -0.258245
     28          1           0        1.514097   -0.021401   -0.963071
     29          6           0        2.851189   -0.064628    0.625783
     30          1           0        3.453162    0.716118    1.071214
     31          6           0        2.179321   -0.881055    1.738510
     32          1           0        1.558936   -1.658686    1.310584
     33          1           0        2.923051   -1.339374    2.382974
     34          1           0        1.557202   -0.230045    2.338008
     35          6           0        3.723741   -0.978146   -0.228762
     36          8           0        3.289673   -1.523367   -1.209012
     37          7           0        4.978699   -1.172218    0.219616
     38          1           0        5.313299   -0.616189    0.971508
     39          6           0        5.909713   -2.035511   -0.476142
     40          1           0        6.242007   -1.595777   -1.409736
     41          1           0        6.768569   -2.203662    0.159746
     42          1           0        5.440792   -2.984338   -0.693456
 ---------------------------------------------------------------------

 The electronic state is 1-A.
 Alpha  occ. eigenvalues --  -20.54440 -20.52786 -20.52712 -20.51667 -15.60667
 Alpha  occ. eigenvalues --  -15.59204 -15.58137 -15.57624 -11.36531 -11.34939
 Alpha  occ. eigenvalues --  -11.34792 -11.34529 -11.29353 -11.28471 -11.27651
 Alpha  occ. eigenvalues --  -11.26213 -11.23315 -11.22915 -11.22597 -11.21577
 Alpha  occ. eigenvalues --   -1.41473  -1.39948  -1.39203  -1.38572  -1.25832
 Alpha  occ. eigenvalues --   -1.23946  -1.23800  -1.23490  -1.07627  -1.04735
 Alpha  occ. eigenvalues --   -1.03146  -0.98866  -0.96089  -0.91790  -0.89803
 Alpha  occ. eigenvalues --   -0.86424  -0.82240  -0.79615  -0.78980  -0.78211
 Alpha  occ. eigenvalues --   -0.73708  -0.72444  -0.69237  -0.68331  -0.66410
 Alpha  occ. eigenvalues --   -0.66090  -0.65278  -0.63870  -0.63495  -0.62864
 Alpha  occ. eigenvalues --   -0.61682  -0.60562  -0.59908  -0.59257  -0.59046
 Alpha  occ. eigenvalues --   -0.58239  -0.56980  -0.56111  -0.55871  -0.55674
 Alpha  occ. eigenvalues --   -0.54899  -0.54627  -0.53848  -0.53052  -0.52767
 Alpha  occ. eigenvalues --   -0.52169  -0.52053  -0.50186  -0.49741  -0.44031
 Alpha  occ. eigenvalues --   -0.43818  -0.42301  -0.41467  -0.40149  -0.39656
 Alpha  occ. eigenvalues --   -0.38521  -0.37690
 Alpha virt. eigenvalues --    0.18048   0.18431   0.19859   0.21068   0.21523
 Alpha virt. eigenvalues --    0.21598   0.23825   0.25302   0.26241   0.27142
 Alpha virt. eigenvalues --    0.27498   0.28851   0.29113   0.30031   0.30398

 Mulliken atomic charges:
              1
     1  H    0.202697
     2  C   -0.576497
     3  H    0.209026
     4  H    0.174604
     5  C    0.756402
     6  O   -0.621920
     7  N   -0.822512
     8  H    0.418203
     9  C   -0.040865
    10  H    0.219119
    11  C   -0.487813
    12  H    0.181591
    13  H    0.160906
    14  H    0.212206
    15  C    0.799670
    16  O   -0.638601
    17  N   -0.838130
    18  H    0.396530
    19  C    0.005804
    20  H    0.201127
    21  C   -0.513162
    22  H    0.206128
    23  H    0.193225
    24  H    0.164806
    25  C    0.778390
    26  O   -0.627176
    27  N   -0.794427
    28  H    0.427182
    29  C   -0.049556
    30  H    0.207431
    31  C   -0.486873
    32  H    0.197911
    33  H    0.155151
    34  H    0.203252
    35  C    0.783010
    36  O   -0.626573
    37  N   -0.800807
    38  H    0.387991
    39  C   -0.271923
    40  H    0.182056
    41  H    0.169540
    42  H    0.202877
 Sum of Mulliken atomic charges =   0.00000

 Dipole moment (field-independent basis, Debye):
    X=              3.4616    Y=              0.2915    Z=              0.5355  Tot=              3.5149
 Quadrupole moment (field-independent basis, Debye-Ang):
   XX=           -119.1307   YY=           -112.4516   ZZ=           -122.3285
   XY=             -1.7340   XZ=              4.2178   YZ=            -11.0081

 Normal termination of Gaussian 09 at Tue Dec 27 15:45:29 2016.
