 Gaussian 09, Revision A.02,
 Gaussian 09:  EM64L-G09RevA.02 11-Jun-2009

 -------------------------------------------------------------------
 # HF/6-31G* Opt=(ModRedundant, maxcycles=1000, calcfc) geom=nocrowd
 -------------------------------------------------------------------

 ------------------
 Phi Psi fixed scan
 ------------------
 Symbolic Z-matrix:
 Charge =  0 Multiplicity = 1

 SCF Done:  E(RHF) =  -984.506684080     A.U. after   15 cycles

  Exact polarizability:   0.000   0.000   0.000   0.000   0.000   0.000
 Approx polarizability: 125.182   3.898 122.899  -6.054 -10.470 141.935

 SCF Done:  E(RHF) =  -984.521686590     A.U. after   14 cycles
 SCF Done:  E(RHF) =  -984.538307005     A.U. after   15 cycles
 SCF Done:  E(RHF) =  -984.541267682     A.U. after   16 cycles
 SCF Done:  E(RHF) =  -984.537634171     A.U. after   16 cycles
 SCF Done:  E(RHF) =  -984.543601925     A.U. after   16 cycles
 SCF Done:  E(RHF) =  -984.545883953     A.U. after   13 cycles
 SCF Done:  E(RHF) =  -984.547914204     A.U. after   13 cycles
 SCF Done:  E(RHF) =  -984.548812451     A.U. after   13 cycles
 SCF Done:  E(RHF) =  -984.411771926     A.U. after   16 cycles
 SCF Done:  E(RHF) =  -984.549400009     A.U. after   10 cycles
 SCF Done:  E(RHF) =  -984.549400799     A.U. after   10 cycles
 SCF Done:  E(RHF) =  -984.549401350     A.U. after    9 cycles
 SCF Done:  E(RHF) =  -984.549401854     A.U. after    9 cycles
 SCF Done:  E(RHF) =  -984.549402207     A.U. after    8 cycles
 SCF Done:  E(RHF) =  -984.549402294     A.U. after    8 cycles
 SCF Done:  E(RHF) =  -984.549402324     A.U. after    8 cycles
 SCF Done:  E(RHF) =  -984.549402340     A.U. after    7 cycles
 SCF Done:  E(RHF) =  -984.549402348     A.U. after    6 cycles
 SCF Done:  E(RHF) =  -984.549402350     A.U. after    5 cycles
 Optimization completed.
    -- Stationary point found.

                         Standard orientation:
 ---------------------------------------------------------------------
 Center     Atomic      Atomic             Coordinates (Angstroms)
 Number     Number       Type             X           Y           Z
 ---------------------------------------------------------------------
      1          1           0       -6.261853   -2.402653   -1.054489
      2          6           0       -5.531011   -1.716149   -1.461023
      3          1           0       -6.048341   -1.040919   -2.133803
      4          1           0       -4.788108   -2.268345   -2.023460
      5          6           0       -4.942197   -0.906591   -0.326242
      6          8           0       -5.636247   -0.420717    0.529085
      7          7           0       -3.603167   -0.750827   -0.348459
      8          1           0       -3.050556   -1.126422   -1.086167
      9          6           0       -2.909345    0.056522    0.624153
     10          1           0       -3.517831    0.926642    0.837483
     11          6           0       -2.655406   -0.706923    1.931367
     12          1           0       -2.033983   -1.575808    1.744447
     13          1           0       -2.159958   -0.081809    2.667081
     14          1           0       -3.602600   -1.032830    2.339936
     15          6           0       -1.585637    0.491404   -0.005864
     16          8           0       -1.096173   -0.126564   -0.910367
     17          7           0       -1.005457    1.558297    0.590301
     18          1           0       -1.556344    2.027408    1.274366
     19          6           0        0.146868    2.330988    0.127609
     20          1           0       -0.199410    3.071602   -0.583264
     21          6           0        0.767320    3.053607    1.321760
     22          1           0        1.080815    2.363694    2.096380
     23          1           0        1.624360    3.637573    1.009350
     24          1           0        0.043370    3.735794    1.757664
     25          6           0        1.156633    1.515187   -0.699778
     26          8           0        1.144532    1.579781   -1.896073
     27          7           0        2.149610    0.910036   -0.012317
     28          1           0        2.057698    0.743851    0.965730
     29          6           0        3.095672    0.051450   -0.688536
     30          1           0        2.598723   -0.412094   -1.532189
     31          6           0        4.307326    0.842511   -1.196470
     32          1           0        4.832696    1.302173   -0.366447
     33          1           0        5.001706    0.204978   -1.733692
     34          1           0        3.965236    1.618863   -1.867934
     35          6           0        3.526272   -1.029897    0.299668
     36          8           0        3.345109   -0.913111    1.484699
     37          7           0        4.147704   -2.093859   -0.239678
     38          1           0        4.159576   -2.191988   -1.228339
     39          6           0        4.594393   -3.206543    0.572846
     40          1           0        5.159459   -2.841110    1.417898
     41          1           0        3.760601   -3.791678    0.943945
     42          1           0        5.230832   -3.840961   -0.029116
 ---------------------------------------------------------------------

 The electronic state is 1-A.
 Alpha  occ. eigenvalues --  -20.53896 -20.53645 -20.51987 -20.51421 -15.60235
 Alpha  occ. eigenvalues --  -15.59625 -15.57891 -15.57853 -11.36017 -11.35511
 Alpha  occ. eigenvalues --  -11.34697 -11.34297 -11.29079 -11.28190 -11.27988
 Alpha  occ. eigenvalues --  -11.26557 -11.24101 -11.22729 -11.22399 -11.22377
 Alpha  occ. eigenvalues --   -1.41080  -1.40563  -1.38931  -1.38309  -1.25536
 Alpha  occ. eigenvalues --   -1.24439  -1.23564  -1.23413  -1.07740  -1.04896
 Alpha  occ. eigenvalues --   -1.02964  -0.98645  -0.96448  -0.91710  -0.89786
 Alpha  occ. eigenvalues --   -0.87252  -0.82109  -0.80130  -0.78629  -0.78348
 Alpha  occ. eigenvalues --   -0.73320  -0.72942  -0.68936  -0.67390  -0.66243
 Alpha  occ. eigenvalues --   -0.65691  -0.65232  -0.64432  -0.63454  -0.63026
 Alpha  occ. eigenvalues --   -0.62270  -0.61154  -0.59666  -0.59221  -0.58387
 Alpha  occ. eigenvalues --   -0.57533  -0.56819  -0.56602  -0.56291  -0.56244
 Alpha  occ. eigenvalues --   -0.55303  -0.54999  -0.54346  -0.53574  -0.53072
 Alpha  occ. eigenvalues --   -0.52713  -0.52109  -0.50063  -0.49410  -0.43034
 Alpha  occ. eigenvalues --   -0.42967  -0.41501  -0.41243  -0.40523  -0.40362
 Alpha  occ. eigenvalues --   -0.38389  -0.38174
 Alpha virt. eigenvalues --    0.18339   0.18581   0.19543   0.20910   0.21261
 Alpha virt. eigenvalues --    0.21535   0.24154   0.24763   0.26086   0.27030
 Alpha virt. eigenvalues --    0.28017   0.28249   0.29192   0.29507   0.29900

 Mulliken atomic charges:
              1
     1  H    0.206534
     2  C   -0.574994
     3  H    0.204010
     4  H    0.173333
     5  C    0.756110
     6  O   -0.623886
     7  N   -0.823626
     8  H    0.420866
     9  C   -0.034530
    10  H    0.212575
    11  C   -0.483595
    12  H    0.179173
    13  H    0.158040
    14  H    0.212016
    15  C    0.793024
    16  O   -0.615196
    17  N   -0.841806
    18  H    0.386738
    19  C   -0.012505
    20  H    0.218999
    21  C   -0.508633
    22  H    0.180237
    23  H    0.197344
    24  H    0.170837
    25  C    0.795848
    26  O   -0.612723
    27  N   -0.823973
    28  H    0.424727
    29  C   -0.040966
    30  H    0.223843
    31  C   -0.478041
    32  H    0.176188
    33  H    0.156318
    34  H    0.208717
    35  C    0.773070
    36  O   -0.633598
    37  N   -0.796627
    38  H    0.390525
    39  C   -0.272706
    40  H    0.203165
    41  H    0.183242
    42  H    0.171927
 Sum of Mulliken atomic charges =   0.00000

 Dipole moment (field-independent basis, Debye):
    X=              3.4575    Y=             -0.9381    Z=              0.1298  Tot=              3.5849
 Quadrupole moment (field-independent basis, Debye-Ang):
   XX=           -127.3785   YY=           -102.7385   ZZ=           -126.6146
   XY=             -7.4034   XZ=              0.9912   YZ=             13.5055

 Normal termination of Gaussian 09 at Tue Dec 27 12:20:10 2016.
