 Gaussian 09, Revision A.02,
 Gaussian 09:  EM64L-G09RevA.02 11-Jun-2009

 -------------------------------------------------------------------
 # HF/6-31G* Opt=(ModRedundant, maxcycles=1000, calcfc) geom=nocrowd
 -------------------------------------------------------------------

 ------------------
 Phi Psi fixed scan
 ------------------
 Symbolic Z-matrix:
 Charge =  0 Multiplicity = 1

 SCF Done:  E(RHF) =  -984.445227011     A.U. after   15 cycles

  Exact polarizability:   0.000   0.000   0.000   0.000   0.000   0.000
 Approx polarizability: 131.580   2.562 138.495  -0.981 -15.245 121.879

 SCF Done:  E(RHF) =  -984.475663784     A.U. after   14 cycles
 SCF Done:  E(RHF) =  -984.510706258     A.U. after   15 cycles
 SCF Done:  E(RHF) =  -983.671907180     A.U. after   17 cycles
 SCF Done:  E(RHF) =  -983.997867180     A.U. after   17 cycles
 SCF Done:  E(RHF) =  -984.125252701     A.U. after   20 cycles
 SCF Done:  E(RHF) =  -984.255596034     A.U. after   18 cycles
 SCF Done:  E(RHF) =  -984.366165704     A.U. after   15 cycles
 SCF Done:  E(RHF) =  -984.435130966     A.U. after   15 cycles
 SCF Done:  E(RHF) =  -984.474860779     A.U. after   13 cycles
 SCF Done:  E(RHF) =  -984.538681194     A.U. after   12 cycles
 SCF Done:  E(RHF) =  -984.538707134     A.U. after   13 cycles
 SCF Done:  E(RHF) =  -984.538720584     A.U. after   12 cycles
 SCF Done:  E(RHF) =  -984.538728973     A.U. after   11 cycles
 SCF Done:  E(RHF) =  -984.538729922     A.U. after   10 cycles
 SCF Done:  E(RHF) =  -984.538730415     A.U. after   10 cycles
 SCF Done:  E(RHF) =  -984.538730535     A.U. after    9 cycles
 SCF Done:  E(RHF) =  -984.538730564     A.U. after    7 cycles
 SCF Done:  E(RHF) =  -984.538730568     A.U. after    7 cycles
 SCF Done:  E(RHF) =  -984.538730581     A.U. after    7 cycles
 Optimization completed.
    -- Stationary point found.

                         Standard orientation:
 ---------------------------------------------------------------------
 Center     Atomic      Atomic             Coordinates (Angstroms)
 Number     Number       Type             X           Y           Z
 ---------------------------------------------------------------------
      1          1           0       -6.817628   -1.454190   -1.536236
      2          6           0       -6.068055   -1.865398   -0.872868
      3          1           0       -5.376347   -2.474933   -1.441265
      4          1           0       -6.575528   -2.493388   -0.148869
      5          6           0       -5.397547   -0.726414   -0.135641
      6          8           0       -6.037226    0.160276    0.369354
      7          7           0       -4.053158   -0.782325   -0.065528
      8          1           0       -3.538840   -1.497869   -0.528371
      9          6           0       -3.274702    0.242399    0.584659
     10          1           0       -3.725765    1.201216    0.360374
     11          6           0       -3.235598    0.053089    2.107495
     12          1           0       -2.773543   -0.896356    2.355072
     13          1           0       -2.675204    0.844651    2.594335
     14          1           0       -4.246900    0.063292    2.491661
     15          6           0       -1.859749    0.179848   -0.003420
     16          8           0       -1.464301   -0.816489   -0.532444
     17          7           0       -1.129499    1.303451    0.233517
     18          1           0       -1.661952    2.043672    0.633824
     19          6           0        0.106861    1.814929   -0.365262
     20          1           0       -0.152981    2.342189   -1.278281
     21          6           0        0.703215    2.825406    0.614291
     22          1           0        0.963135    2.360864    1.559221
     23          1           0        1.581870    3.300997    0.196717
     24          1           0       -0.019945    3.608179    0.821528
     25          6           0        1.085873    0.743597   -0.886097
     26          8           0        0.822396    0.103968   -1.863204
     27          7           0        2.316669    0.728378   -0.329632
     28          1           0        2.498197    1.159140    0.548621
     29          6           0        3.311678   -0.226343   -0.761625
     30          1           0        2.809878   -1.142910   -1.046586
     31          6           0        4.111815    0.296323   -1.961471
     32          1           0        4.640416    1.205196   -1.695347
     33          1           0        4.835658   -0.435512   -2.304382
     34          1           0        3.430671    0.510976   -2.774074
     35          6           0        4.231182   -0.498304    0.426453
     36          8           0        4.279445    0.247374    1.371327
     37          7           0        4.999870   -1.596771    0.326108
     38          1           0        4.835238   -2.231918   -0.420029
     39          6           0        5.913177   -1.986306    1.380892
     40          1           0        5.384137   -2.355352    2.252140
     41          1           0        6.562569   -2.765659    1.005827
     42          1           0        6.514286   -1.139408    1.678166
 ---------------------------------------------------------------------

 The electronic state is 1-A.
 Alpha  occ. eigenvalues --  -20.53886 -20.53255 -20.52029 -20.51102 -15.59873
 Alpha  occ. eigenvalues --  -15.59795 -15.58310 -15.57484 -11.35763 -11.35502
 Alpha  occ. eigenvalues --  -11.35004 -11.33991 -11.29589 -11.28298 -11.27773
 Alpha  occ. eigenvalues --  -11.26739 -11.24174 -11.22629 -11.22471 -11.22127
 Alpha  occ. eigenvalues --   -1.40879  -1.40454  -1.39111  -1.37969  -1.25137
 Alpha  occ. eigenvalues --   -1.24679  -1.23834  -1.23098  -1.07801  -1.04883
 Alpha  occ. eigenvalues --   -1.02831  -0.98356  -0.96664  -0.91777  -0.89824
 Alpha  occ. eigenvalues --   -0.87318  -0.81877  -0.80098  -0.78810  -0.78250
 Alpha  occ. eigenvalues --   -0.73109  -0.72667  -0.68517  -0.67659  -0.66547
 Alpha  occ. eigenvalues --   -0.65299  -0.64902  -0.64580  -0.63933  -0.62855
 Alpha  occ. eigenvalues --   -0.61894  -0.60720  -0.59906  -0.58969  -0.58299
 Alpha  occ. eigenvalues --   -0.57603  -0.56854  -0.56476  -0.56380  -0.56148
 Alpha  occ. eigenvalues --   -0.55591  -0.55065  -0.54248  -0.53806  -0.53280
 Alpha  occ. eigenvalues --   -0.52517  -0.52005  -0.50069  -0.49084  -0.43289
 Alpha  occ. eigenvalues --   -0.43012  -0.41059  -0.40834  -0.40529  -0.40139
 Alpha  occ. eigenvalues --   -0.38402  -0.37763
 Alpha virt. eigenvalues --    0.17716   0.18943   0.19208   0.20826   0.21240
 Alpha virt. eigenvalues --    0.21970   0.24473   0.24749   0.25986   0.27554
 Alpha virt. eigenvalues --    0.28120   0.28584   0.29044   0.29754   0.29840

 Mulliken atomic charges:
              1
     1  H    0.206200
     2  C   -0.574783
     3  H    0.174215
     4  H    0.201729
     5  C    0.756022
     6  O   -0.625837
     7  N   -0.823733
     8  H    0.421706
     9  C   -0.037954
    10  H    0.209633
    11  C   -0.482911
    12  H    0.177511
    13  H    0.155689
    14  H    0.210979
    15  C    0.791373
    16  O   -0.591365
    17  N   -0.843118
    18  H    0.382415
    19  C    0.004048
    20  H    0.211808
    21  C   -0.529802
    22  H    0.189227
    23  H    0.196716
    24  H    0.174684
    25  C    0.784034
    26  O   -0.595329
    27  N   -0.846630
    28  H    0.431565
    29  C   -0.036507
    30  H    0.222772
    31  C   -0.479772
    32  H    0.176133
    33  H    0.157755
    34  H    0.210644
    35  C    0.773334
    36  O   -0.633398
    37  N   -0.797408
    38  H    0.391140
    39  C   -0.273075
    40  H    0.183967
    41  H    0.172730
    42  H    0.203594
 Sum of Mulliken atomic charges =   0.00000

 Dipole moment (field-independent basis, Debye):
    X=              4.4936    Y=             -0.6219    Z=              0.3217  Tot=              4.5478
 Quadrupole moment (field-independent basis, Debye-Ang):
   XX=           -125.7048   YY=           -103.0688   ZZ=           -126.1548
   XY=             -5.5287   XZ=             -1.0932   YZ=             -0.9089

 Normal termination of Gaussian 09 at Tue Dec 27 13:23:59 2016.
