 Gaussian 09, Revision A.02,
 Gaussian 09:  EM64L-G09RevA.02 11-Jun-2009

 -------------------------------------------------------------------
 # HF/6-31G* Opt=(ModRedundant, maxcycles=1000, calcfc) geom=nocrowd
 -------------------------------------------------------------------

 ------------------
 Phi Psi fixed scan
 ------------------
 Symbolic Z-matrix:
 Charge =  0 Multiplicity = 1

 SCF Done:  E(RHF) =  -984.311515216     A.U. after   17 cycles

  Exact polarizability:   0.000   0.000   0.000   0.000   0.000   0.000
 Approx polarizability: 143.749  -4.704 141.231   7.879  -7.464 113.175

 SCF Done:  E(RHF) =  -984.365686393     A.U. after   14 cycles
 SCF Done:  E(RHF) =  -984.440698056     A.U. after   15 cycles
 SCF Done:  E(RHF) =  -984.480474751     A.U. after   15 cycles
 SCF Done:  E(RHF) =  -984.510750140     A.U. after   13 cycles
 SCF Done:  E(RHF) =  -984.512133660     A.U. after   15 cycles
 SCF Done:  E(RHF) =  -984.517023755     A.U. after   15 cycles
 SCF Done:  E(RHF) =  -984.525447775     A.U. after   13 cycles
 SCF Done:  E(RHF) =  -984.531587069     A.U. after   15 cycles
 SCF Done:  E(RHF) =  -984.537806958     A.U. after   15 cycles
 SCF Done:  E(RHF) =  -984.549991169     A.U. after   10 cycles
 SCF Done:  E(RHF) =  -984.549991724     A.U. after    8 cycles
 SCF Done:  E(RHF) =  -984.549991888     A.U. after    7 cycles
 SCF Done:  E(RHF) =  -984.549992024     A.U. after    8 cycles
 SCF Done:  E(RHF) =  -984.549992069     A.U. after    8 cycles
 SCF Done:  E(RHF) =  -984.549992120     A.U. after    7 cycles
 SCF Done:  E(RHF) =  -984.549992145     A.U. after    7 cycles
 SCF Done:  E(RHF) =  -984.549992167     A.U. after    8 cycles
 SCF Done:  E(RHF) =  -984.549992201     A.U. after    7 cycles
 SCF Done:  E(RHF) =  -984.549992203     A.U. after    6 cycles
 Optimization completed.
    -- Stationary point found.

                         Standard orientation:
 ---------------------------------------------------------------------
 Center     Atomic      Atomic             Coordinates (Angstroms)
 Number     Number       Type             X           Y           Z
 ---------------------------------------------------------------------
      1          1           0       -5.981808   -2.209474   -1.187830
      2          6           0       -5.007508   -2.368150   -0.746160
      3          1           0       -4.320631   -2.735183   -1.499087
      4          1           0       -5.109368   -3.122181    0.027330
      5          6           0       -4.549234   -1.077024   -0.104344
      6          8           0       -5.310958   -0.357307    0.487647
      7          7           0       -3.233840   -0.800594   -0.219869
      8          1           0       -2.617159   -1.410530   -0.708163
      9          6           0       -2.644422    0.374434    0.370048
     10          1           0       -3.343211    1.193316    0.257676
     11          6           0       -2.332293    0.180062    1.861416
     12          1           0       -1.624009   -0.630025    1.996384
     13          1           0       -1.914791    1.080628    2.301233
     14          1           0       -3.248088   -0.061061    2.384540
     15          6           0       -1.357752    0.676880   -0.392861
     16          8           0       -0.771025   -0.195172   -0.982712
     17          7           0       -0.961476    1.963712   -0.347693
     18          1           0       -1.549078    2.553201    0.198089
     19          6           0        0.326116    2.590670   -0.672537
     20          1           0        0.317801    2.838042   -1.728275
     21          6           0        0.401435    3.900457    0.118340
     22          1           0        0.430527    3.703162    1.185891
     23          1           0        1.289548    4.445684   -0.158308
     24          1           0       -0.465729    4.517508   -0.096115
     25          6           0        1.669951    1.851203   -0.507770
     26          8           0        2.649437    2.499262   -0.788506
     27          7           0        1.747990    0.593850   -0.059243
     28          1           0        0.948472   -0.000705   -0.057815
     29          6           0        3.037980   -0.050211    0.077029
     30          1           0        3.650090    0.207639   -0.778752
     31          6           0        3.762221    0.388998    1.356155
     32          1           0        3.172438    0.125334    2.226800
     33          1           0        4.732522   -0.090160    1.436944
     34          1           0        3.909198    1.460322    1.337811
     35          6           0        2.805030   -1.556762    0.115302
     36          8           0        1.783261   -2.028232    0.538744
     37          7           0        3.840149   -2.311033   -0.301478
     38          1           0        4.606711   -1.869008   -0.752711
     39          6           0        3.769368   -3.757216   -0.309297
     40          1           0        3.421608   -4.114306    0.649294
     41          1           0        3.094577   -4.120651   -1.076002
     42          1           0        4.759543   -4.151548   -0.494290
 ---------------------------------------------------------------------

 The electronic state is 1-A.
 Alpha  occ. eigenvalues --  -20.54610 -20.53011 -20.52127 -20.51628 -15.60822
 Alpha  occ. eigenvalues --  -15.59283 -15.58051 -15.57677 -11.36798 -11.35182
 Alpha  occ. eigenvalues --  -11.35015 -11.34470 -11.29582 -11.28556 -11.27863
 Alpha  occ. eigenvalues --  -11.26273 -11.23561 -11.22827 -11.22660 -11.22108
 Alpha  occ. eigenvalues --   -1.41722  -1.40113  -1.39175  -1.38532  -1.26001
 Alpha  occ. eigenvalues --   -1.24052  -1.23785  -1.23336  -1.07601  -1.04766
 Alpha  occ. eigenvalues --   -1.03453  -0.98820  -0.96227  -0.91640  -0.89870
 Alpha  occ. eigenvalues --   -0.87021  -0.82276  -0.79921  -0.78983  -0.78390
 Alpha  occ. eigenvalues --   -0.73930  -0.72697  -0.69320  -0.67761  -0.67246
 Alpha  occ. eigenvalues --   -0.65819  -0.65577  -0.63916  -0.63437  -0.62898
 Alpha  occ. eigenvalues --   -0.61904  -0.61318  -0.59952  -0.59136  -0.58277
 Alpha  occ. eigenvalues --   -0.57418  -0.56912  -0.56489  -0.55986  -0.55947
 Alpha  occ. eigenvalues --   -0.55417  -0.54762  -0.54524  -0.53363  -0.52967
 Alpha  occ. eigenvalues --   -0.52420  -0.51834  -0.49875  -0.49463  -0.43938
 Alpha  occ. eigenvalues --   -0.43341  -0.42391  -0.41420  -0.40485  -0.39703
 Alpha  occ. eigenvalues --   -0.38499  -0.38176
 Alpha virt. eigenvalues --    0.17839   0.18439   0.19873   0.20676   0.21357
 Alpha virt. eigenvalues --    0.21497   0.24000   0.26205   0.26620   0.27389
 Alpha virt. eigenvalues --    0.27953   0.28383   0.29119   0.30162   0.30395

 Mulliken atomic charges:
              1
     1  H    0.208649
     2  C   -0.576923
     3  H    0.175637
     4  H    0.202873
     5  C    0.756308
     6  O   -0.622569
     7  N   -0.820586
     8  H    0.421514
     9  C   -0.041970
    10  H    0.220902
    11  C   -0.494796
    12  H    0.192979
    13  H    0.154824
    14  H    0.213244
    15  C    0.796972
    16  O   -0.646420
    17  N   -0.851759
    18  H    0.397618
    19  C    0.028403
    20  H    0.223220
    21  C   -0.533074
    22  H    0.175128
    23  H    0.233492
    24  H    0.170977
    25  C    0.778190
    26  O   -0.642305
    27  N   -0.872985
    28  H    0.487060
    29  C   -0.016834
    30  H    0.206708
    31  C   -0.488932
    32  H    0.180948
    33  H    0.160598
    34  H    0.208651
    35  C    0.763838
    36  O   -0.621402
    37  N   -0.799783
    38  H    0.388471
    39  C   -0.272273
    40  H    0.201729
    41  H    0.183647
    42  H    0.170030
 Sum of Mulliken atomic charges =   0.00000

 Dipole moment (field-independent basis, Debye):
    X=              2.9381    Y=             -0.9034    Z=             -0.3386  Tot=              3.0924
 Quadrupole moment (field-independent basis, Debye-Ang):
   XX=           -126.6171   YY=           -109.3945   ZZ=           -120.8717
   XY=            -12.0123   XZ=              4.7578   YZ=              7.8805

 Normal termination of Gaussian 09 at Tue Dec 27 12:31:18 2016.
