 Gaussian 09, Revision A.02,
 Gaussian 09:  EM64L-G09RevA.02 11-Jun-2009

 -------------------
 #SP MP2/aug-cc-pVDZ
 -------------------

 -------------------------------
 Single Point calculation at MP2
 -------------------------------
 Symbolic Z-matrix:
 Charge =  0 Multiplicity = 1

                         Standard orientation:
 ---------------------------------------------------------------------
 Center     Atomic      Atomic             Coordinates (Angstroms)
 Number     Number       Type             X           Y           Z
 ---------------------------------------------------------------------
      1          1           0       -2.802492   -2.124116    0.344103
      2          6           0       -3.103898   -1.084417    0.170203
      3          1           0       -3.851899   -0.823222    0.922103
      4          1           0       -3.548898   -1.014020   -0.827297
      5          6           0       -1.893103   -0.179611    0.351703
      6          8           0       -1.520805    0.190991    1.458703
      7          7           0       -1.264505    0.180893   -0.815697
      8          1           0       -1.452002   -0.402908   -1.619797
      9          6           0        0.045791    0.838700   -0.837597
     10          1           0        0.222190    1.075401   -1.894397
     11          6           0        0.071784    2.160000   -0.062797
     12          1           0       -0.063015    2.004300    1.008603
     13          1           0        1.012881    2.688306   -0.253897
     14          1           0       -0.745220    2.799796   -0.410197
     15          6           0        1.136197   -0.214594   -0.514597
     16          8           0        1.121303   -1.290094   -1.104497
     17          7           0        2.101395    0.143512    0.374903
     18          1           0        1.943991    0.964911    0.940003
     19          6           0        3.142601   -0.782282    0.790403
     20          1           0        3.239605   -1.543582    0.015603
     21          1           0        4.093598   -0.252577    0.905603
     22          1           0        2.892803   -1.277084    1.737603
 ---------------------------------------------------------------------

 SCF Done:  E(RHF) =  -492.921067611     A.U. after   14 cycles
 E2 =    -0.1601384445D+01 EUMP2 =    -0.49452245205605D+03

 The electronic state is 1-A.
 Alpha  occ. eigenvalues --  -20.53287 -20.52892 -15.59625 -15.59525 -11.36356
 Alpha  occ. eigenvalues --  -11.35917 -11.29674 -11.26681 -11.24477 -11.23585
 Alpha  occ. eigenvalues --   -1.38926  -1.38037  -1.23754  -1.23238  -1.05530
 Alpha  occ. eigenvalues --   -0.99109  -0.95282  -0.88945  -0.80058  -0.76793
 Alpha  occ. eigenvalues --   -0.71867  -0.69995  -0.65256  -0.64374  -0.61680
 Alpha  occ. eigenvalues --   -0.61530  -0.59643  -0.58646  -0.56438  -0.55618
 Alpha  occ. eigenvalues --   -0.54922  -0.54656  -0.52762  -0.51077  -0.50587
 Alpha  occ. eigenvalues --   -0.43245  -0.42262  -0.39991  -0.38864
 Alpha virt. eigenvalues --    0.03114   0.03748   0.04314   0.04815   0.05826
 Alpha virt. eigenvalues --    0.06040   0.06191   0.06887   0.07608   0.07773
 Alpha virt. eigenvalues --    0.09163   0.09685   0.10828   0.11559   0.13163

 Mulliken atomic charges:
              1
     1  H    0.060107
     2  C    0.378414
     3  H   -0.003454
     4  H   -0.073558
     5  C    0.624096
     6  O   -0.828817
     7  N   -0.431168
     8  H   -0.055081
     9  C   -0.155249
    10  H   -0.109568
    11  C    0.826834
    12  H    0.120040
    13  H   -0.012000
    14  H   -0.142006
    15  C    0.920857
    16  O   -0.887125
    17  N   -0.505720
    18  H   -0.108273
    19  C    0.736763
    20  H   -0.133526
    21  H   -0.154098
    22  H   -0.067466
 Sum of Mulliken atomic charges =   0.00000

 Dipole moment (field-independent basis, Debye):
    X=              0.1652    Y=              1.7429    Z=             -0.9826  Tot=              2.0076
 Quadrupole moment (field-independent basis, Debye-Ang):
   XX=            -52.0022   YY=            -61.6283   ZZ=            -64.9548
   XY=              6.3987   XZ=              9.4123   YZ=             -3.5426

 Normal termination of Gaussian 09 at Tue Feb 14 04:19:11 2017.
