 Gaussian 09, Revision A.02,
 Gaussian 09:  EM64L-G09RevA.02 11-Jun-2009

 -------------------
 #SP MP2/aug-cc-pVDZ
 -------------------

 -------------------------------
 Single Point calculation at MP2
 -------------------------------
 Symbolic Z-matrix:
 Charge =  0 Multiplicity = 1

                         Standard orientation:
 ---------------------------------------------------------------------
 Center     Atomic      Atomic             Coordinates (Angstroms)
 Number     Number       Type             X           Y           Z
 ---------------------------------------------------------------------
      1          1           0       -3.171579   -1.814124   -0.821496
      2          6           0       -3.153584   -0.735824   -0.639496
      3          1           0       -3.948985   -0.513327    0.079404
      4          1           0       -3.367586   -0.210025   -1.574996
      5          6           0       -1.817486   -0.367818   -0.013796
      6          8           0       -1.407383   -0.954116    0.991904
      7          7           0       -1.131290    0.632485   -0.628596
      8          1           0       -1.522692    1.006683   -1.480496
      9          6           0        0.121507    1.256390   -0.161296
     10          1           0        0.290004    2.097791   -0.836396
     11          6           0        0.018405    1.792990    1.274504
     12          1           0       -0.174891    0.991189    1.988704
     13          1           0        0.956903    2.289194    1.542604
     14          1           0       -0.792698    2.525786    1.345104
     15          6           0        1.378911    0.374396   -0.370596
     16          8           0        2.319409    0.801800   -1.034296
     17          7           0        1.361816   -0.827004    0.260204
     18          1           0        0.505318   -1.093008    0.743104
     19          6           0        2.462320   -1.768000    0.164604
     20          1           0        3.278518   -1.276396   -0.366696
     21          1           0        2.806922   -2.065198    1.161804
     22          1           0        2.170424   -2.671201   -0.386296
 ---------------------------------------------------------------------

 SCF Done:  E(RHF) =  -492.924214120     A.U. after   14 cycles
 E2 =    -0.1604096192D+01 EUMP2 =    -0.49452831031224D+03

 The electronic state is 1-A.
 Alpha  occ. eigenvalues --  -20.54599 -20.52227 -15.61609 -15.57621 -11.38169
 Alpha  occ. eigenvalues --  -11.35074 -11.29807 -11.26023 -11.25622 -11.23549
 Alpha  occ. eigenvalues --   -1.40000  -1.37356  -1.25345  -1.21803  -1.06109
 Alpha  occ. eigenvalues --   -1.00212  -0.94749  -0.88879  -0.80955  -0.76859
 Alpha  occ. eigenvalues --   -0.72317  -0.70718  -0.65369  -0.63364  -0.62565
 Alpha  occ. eigenvalues --   -0.61193  -0.60229  -0.58763  -0.57689  -0.56788
 Alpha  occ. eigenvalues --   -0.54458  -0.53971  -0.52489  -0.51582  -0.50568
 Alpha  occ. eigenvalues --   -0.44398  -0.43585  -0.39345  -0.37759
 Alpha virt. eigenvalues --    0.02469   0.04023   0.04333   0.04471   0.05744
 Alpha virt. eigenvalues --    0.06042   0.06624   0.06793   0.07431   0.08235
 Alpha virt. eigenvalues --    0.08897   0.10074   0.10839   0.11553   0.12155

 Mulliken atomic charges:
              1
     1  H    0.039846
     2  C    0.456156
     3  H    0.051281
     4  H   -0.131611
     5  C    0.605745
     6  O   -0.903655
     7  N   -0.109246
     8  H   -0.133623
     9  C   -0.257530
    10  H   -0.205488
    11  C    0.842144
    12  H   -0.046677
    13  H   -0.058644
    14  H   -0.090487
    15  C    0.974910
    16  O   -0.845023
    17  N   -0.516960
    18  H   -0.036071
    19  C    0.731524
    20  H   -0.165516
    21  H   -0.104578
    22  H   -0.096497
 Sum of Mulliken atomic charges =   0.00000

 Dipole moment (field-independent basis, Debye):
    X=             -4.0885    Y=              0.2313    Z=             -0.7974  Tot=              4.1720
 Quadrupole moment (field-independent basis, Debye-Ang):
   XX=            -62.1047   YY=            -58.8831   ZZ=            -63.3642
   XY=             -7.4094   XZ=             11.3529   YZ=              2.8585

 Normal termination of Gaussian 09 at Tue Feb 14 04:31:40 2017.
