 Gaussian 09, Revision A.02,
 Gaussian 09:  EM64L-G09RevA.02 11-Jun-2009

 -------------------
 #SP MP2/aug-cc-pVDZ
 -------------------

 -------------------------------
 Single Point calculation at MP2
 -------------------------------
 Symbolic Z-matrix:
 Charge =  0 Multiplicity = 1

                         Standard orientation:
 ---------------------------------------------------------------------
 Center     Atomic      Atomic             Coordinates (Angstroms)
 Number     Number       Type             X           Y           Z
 ---------------------------------------------------------------------
      1          1           0       -3.291783   -1.899340    0.676899
      2          6           0       -3.078891   -1.158838   -0.096701
      3          1           0       -3.896300   -0.427648   -0.095001
      4          1           0       -3.058485   -1.649238   -1.075701
      5          6           0       -1.772800   -0.455222    0.246799
      6          8           0       -1.405202   -0.276218    1.397099
      7          7           0       -1.020104   -0.055813   -0.841401
      8          1           0       -1.503304   -0.067619   -1.731301
      9          6           0        0.048383    0.955499   -0.720701
     10          1           0        0.351181    1.165003   -1.754701
     11          6           0       -0.393432    2.260994   -0.058101
     12          1           0       -0.706130    2.081390    0.971199
     13          1           0        0.442760    2.963704   -0.043601
     14          1           0       -1.223537    2.705584   -0.618601
     15          6           0        1.309290    0.367114   -0.041001
     16          8           0        1.987483    1.023822    0.735199
     17          7           0        1.674505   -0.864181   -0.510701
     18          1           0        0.946712   -1.398490   -0.966901
     19          6           0        2.793114   -1.589268    0.068599
     20          1           0        3.515205   -0.857059    0.432299
     21          1           0        2.486721   -2.221672    0.912599
     22          1           0        3.263921   -2.217162   -0.694201
 ---------------------------------------------------------------------

 SCF Done:  E(RHF) =  -492.919662532     A.U. after   14 cycles
 E2 =    -0.1602516022D+01 EUMP2 =    -0.49452217855345D+03

 The electronic state is 1-A.
 Alpha  occ. eigenvalues --  -20.54331 -20.52570 -15.60884 -15.58561 -11.37272
 Alpha  occ. eigenvalues --  -11.35334 -11.29707 -11.26111 -11.25741 -11.22096
 Alpha  occ. eigenvalues --   -1.39742  -1.37846  -1.24975  -1.22034  -1.05393
 Alpha  occ. eigenvalues --   -0.99639  -0.95420  -0.87402  -0.80573  -0.76746
 Alpha  occ. eigenvalues --   -0.71339  -0.70060  -0.65346  -0.64142  -0.62333
 Alpha  occ. eigenvalues --   -0.61205  -0.60205  -0.58994  -0.57391  -0.55841
 Alpha  occ. eigenvalues --   -0.54077  -0.52958  -0.52177  -0.51296  -0.50485
 Alpha  occ. eigenvalues --   -0.43923  -0.42835  -0.39878  -0.38668
 Alpha virt. eigenvalues --    0.02075   0.03668   0.03747   0.04651   0.05683
 Alpha virt. eigenvalues --    0.06075   0.06337   0.06447   0.07432   0.08072
 Alpha virt. eigenvalues --    0.08657   0.09271   0.11113   0.12226   0.12492

 Mulliken atomic charges:
              1
     1  H    0.001035
     2  C    0.366413
     3  H    0.054194
     4  H   -0.096871
     5  C    0.666357
     6  O   -0.816431
     7  N   -0.306907
     8  H   -0.087070
     9  C   -0.284026
    10  H   -0.133125
    11  C    0.745003
    12  H    0.009395
    13  H   -0.058263
    14  H   -0.026225
    15  C    1.027075
    16  O   -0.806159
    17  N   -0.566686
    18  H   -0.055714
    19  C    0.728538
    20  H   -0.129655
    21  H   -0.075973
    22  H   -0.154903
 Sum of Mulliken atomic charges =   0.00000

 Dipole moment (field-independent basis, Debye):
    X=             -3.0727    Y=             -2.4143    Z=             -5.4711  Tot=              6.7234
 Quadrupole moment (field-independent basis, Debye-Ang):
   XX=            -57.9284   YY=            -58.3348   ZZ=            -64.2163
   XY=             -4.3098   XZ=              2.4798   YZ=             -1.4885

 Normal termination of Gaussian 09 at Tue Feb 14 04:32:52 2017.
