 Gaussian 09, Revision A.02,
 Gaussian 09:  EM64L-G09RevA.02 11-Jun-2009

 -------------------
 #SP MP2/aug-cc-pVDZ
 -------------------

 -------------------------------
 Single Point calculation at MP2
 -------------------------------
 Symbolic Z-matrix:
 Charge =  0 Multiplicity = 1

                         Standard orientation:
 ---------------------------------------------------------------------
 Center     Atomic      Atomic             Coordinates (Angstroms)
 Number     Number       Type             X           Y           Z
 ---------------------------------------------------------------------
      1          1           0       -3.891405   -0.757567    0.130605
      2          6           0       -3.084706   -0.910772   -0.593695
      3          1           0       -3.350203   -0.406870   -1.528095
      4          1           0       -3.009412   -1.986773   -0.775195
      5          6           0       -1.780703   -0.425780    0.019605
      6          8           0       -1.311706   -0.958783    1.026705
      7          7           0       -1.184196    0.627216   -0.606595
      8          1           0       -1.570194    0.951219   -1.480895
      9          6           0        0.057508    1.265909   -0.137195
     10          1           0        0.203313    2.118508   -0.805695
     11          6           0       -0.032789    1.791409    1.299705
     12          1           0       -0.228294    0.997510    2.020805
     13          1           0        0.905014    2.289303    1.566505
     14          1           0       -0.844084    2.524014    1.371505
     15          6           0        1.271602    0.359801   -0.462595
     16          8           0        1.895503    0.511297   -1.507195
     17          7           0        1.606597   -0.541501    0.503705
     18          1           0        0.851895   -0.799996    1.133405
     19          6           0        2.654191   -1.521707    0.262405
     20          1           0        3.472094   -1.033612   -0.270095
     21          1           0        3.018888   -1.903510    1.219905
     22          1           0        2.304585   -2.365505   -0.347995
 ---------------------------------------------------------------------

 SCF Done:  E(RHF) =  -492.923359586     A.U. after   14 cycles
 E2 =    -0.1603211320D+01 EUMP2 =    -0.49452657090621D+03

 The electronic state is 1-A.
 Alpha  occ. eigenvalues --  -20.54189 -20.52811 -15.61196 -15.57980 -11.37692
 Alpha  occ. eigenvalues --  -11.35200 -11.29675 -11.25784 -11.25673 -11.23494
 Alpha  occ. eigenvalues --   -1.39634  -1.37798  -1.24922  -1.22058  -1.05901
 Alpha  occ. eigenvalues --   -0.99949  -0.94590  -0.88964  -0.80769  -0.76540
 Alpha  occ. eigenvalues --   -0.71960  -0.70449  -0.65364  -0.63897  -0.62486
 Alpha  occ. eigenvalues --   -0.61385  -0.59967  -0.58253  -0.57334  -0.56331
 Alpha  occ. eigenvalues --   -0.54569  -0.53861  -0.52317  -0.51326  -0.51169
 Alpha  occ. eigenvalues --   -0.44064  -0.43424  -0.39663  -0.38207
 Alpha virt. eigenvalues --    0.02717   0.04004   0.04209   0.04670   0.05795
 Alpha virt. eigenvalues --    0.05978   0.06466   0.06781   0.07440   0.08272
 Alpha virt. eigenvalues --    0.08776   0.10184   0.11119   0.11727   0.11981

 Mulliken atomic charges:
              1
     1  H    0.051330
     2  C    0.441629
     3  H   -0.129161
     4  H    0.039844
     5  C    0.610146
     6  O   -0.864548
     7  N   -0.346837
     8  H   -0.115818
     9  C   -0.026823
    10  H   -0.214511
    11  C    0.822548
    12  H   -0.042788
    13  H   -0.028740
    14  H   -0.055940
    15  C    0.892559
    16  O   -0.858129
    17  N   -0.590464
    18  H    0.009536
    19  C    0.768719
    20  H   -0.122765
    21  H   -0.172474
    22  H   -0.067314
 Sum of Mulliken atomic charges =   0.00000

 Dipole moment (field-independent basis, Debye):
    X=             -3.1973    Y=              0.6633    Z=              0.1152  Tot=              3.2674
 Quadrupole moment (field-independent basis, Debye-Ang):
   XX=            -57.9404   YY=            -58.2626   ZZ=            -66.2327
   XY=             -4.8365   XZ=             11.9375   YZ=              2.4759

 Normal termination of Gaussian 09 at Tue Feb 14 04:11:38 2017.
