 Gaussian 09, Revision A.02,
 Gaussian 09:  EM64L-G09RevA.02 11-Jun-2009

 -------------------
 #SP MP2/aug-cc-pVDZ
 -------------------

 -------------------------------
 Single Point calculation at MP2
 -------------------------------
 Symbolic Z-matrix:
 Charge =  0 Multiplicity = 1

                         Standard orientation:
 ---------------------------------------------------------------------
 Center     Atomic      Atomic             Coordinates (Angstroms)
 Number     Number       Type             X           Y           Z
 ---------------------------------------------------------------------
      1          1           0       -3.833685   -1.434345    0.223814
      2          6           0       -2.847384   -1.565233   -0.224786
      3          1           0       -2.958581   -1.767434   -1.295786
      4          1           0       -2.374473   -2.437627    0.242614
      5          6           0       -2.012499   -0.321123    0.066814
      6          8           0       -2.219707    0.380175    1.041714
      7          7           0       -1.043702   -0.067311   -0.887986
      8          1           0       -0.903193   -0.814210   -1.556186
      9          6           0        0.123288    0.812003   -0.723786
     10          1           0        0.525086    0.939408   -1.738086
     11          6           0       -0.226629    2.194599   -0.167486
     12          1           0       -0.551328    2.114295    0.868614
     13          1           0        0.657063    2.840909   -0.223386
     14          1           0       -1.028934    2.646489   -0.758386
     15          6           0        1.192696    0.127116    0.160514
     16          8           0        1.054298   -0.011586    1.366514
     17          7           0        2.278102   -0.348471   -0.529186
     18          1           0        2.362599   -0.130970   -1.511486
     19          6           0        3.397109   -0.997558    0.132114
     20          1           0        3.115111   -1.141061    1.176114
     21          1           0        3.609821   -1.971455   -0.323186
     22          1           0        4.303502   -0.381047    0.089414
 ---------------------------------------------------------------------

 SCF Done:  E(RHF) =  -492.911667191     A.U. after   14 cycles
 E2 =    -0.1602352753D+01 EUMP2 =    -0.49451401994441D+03

 The electronic state is 1-A.
 Alpha  occ. eigenvalues --  -20.52970 -20.52616 -15.60232 -15.59846 -11.35972
 Alpha  occ. eigenvalues --  -11.35939 -11.29889 -11.27156 -11.24385 -11.22228
 Alpha  occ. eigenvalues --   -1.38717  -1.37775  -1.24126  -1.23098  -1.05276
 Alpha  occ. eigenvalues --   -0.98704  -0.96058  -0.87519  -0.80180  -0.77177
 Alpha  occ. eigenvalues --   -0.71542  -0.69704  -0.65428  -0.63819  -0.62273
 Alpha  occ. eigenvalues --   -0.61603  -0.59664  -0.58710  -0.56153  -0.55356
 Alpha  occ. eigenvalues --   -0.54930  -0.52936  -0.51546  -0.50983  -0.50758
 Alpha  occ. eigenvalues --   -0.44519  -0.41451  -0.39598  -0.38315
 Alpha virt. eigenvalues --    0.02002   0.03640   0.03848   0.04572   0.05578
 Alpha virt. eigenvalues --    0.05922   0.06119   0.06640   0.07643   0.07734
 Alpha virt. eigenvalues --    0.08596   0.09602   0.10817   0.12142   0.12596

 Mulliken atomic charges:
              1
     1  H   -0.027175
     2  C    0.348650
     3  H   -0.059121
     4  H    0.057527
     5  C    0.700187
     6  O   -0.775779
     7  N   -0.361714
     8  H   -0.073912
     9  C   -0.336501
    10  H   -0.357171
    11  C    0.785996
    12  H    0.084067
    13  H   -0.064056
    14  H   -0.011045
    15  C    1.122858
    16  O   -0.811036
    17  N   -0.485230
    18  H   -0.122677
    19  C    0.746413
    20  H   -0.145818
    21  H   -0.121031
    22  H   -0.093431
 Sum of Mulliken atomic charges =   0.00000

 Dipole moment (field-independent basis, Debye):
    X=              2.5627    Y=             -1.9758    Z=             -6.1863  Tot=              6.9815
 Quadrupole moment (field-independent basis, Debye-Ang):
   XX=            -56.0317   YY=            -57.4753   ZZ=            -64.7324
   XY=              4.1264   XZ=              0.5610   YZ=             -0.3126

 Normal termination of Gaussian 09 at Tue Feb 14 03:31:12 2017.
