 Gaussian 09, Revision A.02,
 Gaussian 09:  EM64L-G09RevA.02 11-Jun-2009

 -------------------
 #SP MP2/aug-cc-pVDZ
 -------------------

 -------------------------------
 Single Point calculation at MP2
 -------------------------------
 Symbolic Z-matrix:
 Charge =  0 Multiplicity = 1

                         Standard orientation:
 ---------------------------------------------------------------------
 Center     Atomic      Atomic             Coordinates (Angstroms)
 Number     Number       Type             X           Y           Z
 ---------------------------------------------------------------------
      1          1           0        2.948422   -2.120059    0.477394
      2          6           0        3.079308   -1.036257    0.402894
      3          1           0        3.880306   -0.853347   -0.320106
      4          1           0        3.386503   -0.645154    1.377594
      5          6           0        1.793200   -0.422574   -0.129306
      6          8           0        1.313205   -0.767780   -1.207806
      7          7           0        1.221088    0.531418    0.662094
      8          1           0        1.571586    0.658423    1.599794
      9          6           0       -0.032321    1.215402    0.311594
     10          1           0       -0.172231    1.962300    1.098894
     11          6           0        0.029570    1.952403   -1.030306
     12          1           0        0.243978    1.282406   -1.863506
     13          1           0       -0.920237    2.464691   -1.214306
     14          1           0        0.824360    2.705013   -0.993406
     15          6           0       -1.215608    0.244087    0.548094
     16          8           0       -1.621106    0.042182    1.686994
     17          7           0       -1.780601   -0.300221   -0.567206
     18          1           0       -1.180601   -0.344613   -1.382306
     19          6           0       -2.812288   -1.319634   -0.444706
     20          1           0       -3.482392   -1.037243    0.368694
     21          1           0       -3.376787   -1.377341   -1.379306
     22          1           0       -2.394275   -2.309228   -0.216706
 ---------------------------------------------------------------------

 SCF Done:  E(RHF) =  -492.922224552     A.U. after   14 cycles
 E2 =    -0.1602402529D+01 EUMP2 =    -0.49452462708056D+03

 The electronic state is 1-A.
 Alpha  occ. eigenvalues --  -20.53766 -20.52903 -15.60687 -15.58562 -11.37203
 Alpha  occ. eigenvalues --  -11.35422 -11.29632 -11.26048 -11.25306 -11.23487
 Alpha  occ. eigenvalues --   -1.39283  -1.37974  -1.24506  -1.22446  -1.05737
 Alpha  occ. eigenvalues --   -0.99667  -0.94751  -0.88984  -0.80447  -0.76755
 Alpha  occ. eigenvalues --   -0.71874  -0.70214  -0.65304  -0.64170  -0.62217
 Alpha  occ. eigenvalues --   -0.61380  -0.59749  -0.58314  -0.57023  -0.56041
 Alpha  occ. eigenvalues --   -0.54681  -0.54117  -0.52439  -0.51384  -0.50869
 Alpha  occ. eigenvalues --   -0.43736  -0.43006  -0.39851  -0.38422
 Alpha virt. eigenvalues --    0.02921   0.03948   0.04182   0.04773   0.05824
 Alpha virt. eigenvalues --    0.05984   0.06350   0.06846   0.07484   0.08225
 Alpha virt. eigenvalues --    0.08759   0.10094   0.11195   0.11564   0.12316

 Mulliken atomic charges:
              1
     1  H    0.045368
     2  C    0.425997
     3  H    0.047648
     4  H   -0.131682
     5  C    0.606169
     6  O   -0.842227
     7  N   -0.405651
     8  H   -0.107739
     9  C   -0.004166
    10  H   -0.179128
    11  C    0.842306
    12  H   -0.007772
    13  H   -0.033237
    14  H   -0.067177
    15  C    0.919324
    16  O   -0.888670
    17  N   -0.632259
    18  H    0.017539
    19  C    0.757071
    20  H   -0.120747
    21  H   -0.177452
    22  H   -0.063517
 Sum of Mulliken atomic charges =   0.00000

 Dipole moment (field-independent basis, Debye):
    X=              2.2740    Y=              1.0753    Z=             -0.3205  Tot=              2.5358
 Quadrupole moment (field-independent basis, Debye-Ang):
   XX=            -55.5983   YY=            -58.0530   ZZ=            -67.3839
   XY=              1.9051   XZ=             12.1203   YZ=             -0.5660

 Normal termination of Gaussian 09 at Tue Feb 14 04:39:44 2017.
