 Gaussian 09, Revision A.02,
 Gaussian 09:  EM64L-G09RevA.02 11-Jun-2009

 -------------------
 #SP MP2/aug-cc-pVDZ
 -------------------

 -------------------------------
 Single Point calculation at MP2
 -------------------------------
 Symbolic Z-matrix:
 Charge =  0 Multiplicity = 1

                         Standard orientation:
 ---------------------------------------------------------------------
 Center     Atomic      Atomic             Coordinates (Angstroms)
 Number     Number       Type             X           Y           Z
 ---------------------------------------------------------------------
      1          1           0       -3.882597   -1.357917    0.148808
      2          6           0       -2.911397   -1.457915   -0.338792
      3          1           0       -3.054896   -1.562515   -1.419992
      4          1           0       -2.433194   -2.371913    0.034208
      5          6           0       -2.052399   -0.253613    0.034208
      6          8           0       -2.250001    0.388987    1.050608
      7          7           0       -1.077800    0.045090   -0.904492
      8          1           0       -0.956498   -0.664910   -1.616292
      9          6           0        0.136798    0.827993   -0.654292
     10          1           0        0.543597    1.048994   -1.650692
     11          6           0       -0.124905    2.160292    0.058908
     12          1           0       -0.470205    1.986791    1.076808
     13          1           0        0.800893    2.747194    0.079308
     14          1           0       -0.888407    2.730390   -0.478892
     15          6           0        1.169200   -0.011105    0.135208
     16          8           0        0.916201   -0.500306    1.226208
     17          7           0        2.364500   -0.192902   -0.509692
     18          1           0        2.527099    0.300298   -1.375792
     19          6           0        3.482402   -0.885999    0.108008
     20          1           0        3.100003   -1.387300    0.998308
     21          1           0        3.902204   -1.630898   -0.576892
     22          1           0        4.277300   -0.190897    0.406408
 ---------------------------------------------------------------------

 SCF Done:  E(RHF) =  -492.912596277     A.U. after   14 cycles
 E2 =    -0.1601957294D+01 EUMP2 =    -0.49451455357036D+03

 The electronic state is 1-A.
 Alpha  occ. eigenvalues --  -20.53032 -20.52472 -15.60280 -15.59564 -11.35990
 Alpha  occ. eigenvalues --  -11.35798 -11.29873 -11.27198 -11.24142 -11.22565
 Alpha  occ. eigenvalues --   -1.38772  -1.37640  -1.23984  -1.23166  -1.05279
 Alpha  occ. eigenvalues --   -0.98615  -0.95999  -0.87633  -0.80110  -0.77061
 Alpha  occ. eigenvalues --   -0.71491  -0.69646  -0.65514  -0.63435  -0.62319
 Alpha  occ. eigenvalues --   -0.61696  -0.59450  -0.58580  -0.56160  -0.55540
 Alpha  occ. eigenvalues --   -0.55027  -0.53079  -0.52012  -0.50675  -0.50589
 Alpha  occ. eigenvalues --   -0.44419  -0.41335  -0.39648  -0.38348
 Alpha virt. eigenvalues --    0.02113   0.03662   0.03965   0.04564   0.05722
 Alpha virt. eigenvalues --    0.05967   0.06018   0.06653   0.07811   0.07886
 Alpha virt. eigenvalues --    0.08537   0.09366   0.10948   0.12083   0.12725

 Mulliken atomic charges:
              1
     1  H   -0.034477
     2  C    0.326208
     3  H   -0.049847
     4  H    0.060649
     5  C    0.728522
     6  O   -0.782177
     7  N   -0.370044
     8  H   -0.074297
     9  C   -0.388806
    10  H   -0.333307
    11  C    0.783712
    12  H    0.071286
    13  H   -0.075810
    14  H   -0.022307
    15  C    1.201977
    16  O   -0.835064
    17  N   -0.468988
    18  H   -0.119071
    19  C    0.745950
    20  H   -0.142829
    21  H   -0.130489
    22  H   -0.090791
 Sum of Mulliken atomic charges =   0.00000

 Dipole moment (field-independent basis, Debye):
    X=              2.9679    Y=             -0.7340    Z=             -5.8880  Tot=              6.6344
 Quadrupole moment (field-independent basis, Debye-Ang):
   XX=            -54.7578   YY=            -58.3614   ZZ=            -64.3457
   XY=              5.6565   XZ=              1.6881   YZ=              0.7896

 Normal termination of Gaussian 09 at Tue Feb 14 03:11:40 2017.
