 Gaussian 09, Revision A.02,
 Gaussian 09:  EM64L-G09RevA.02 11-Jun-2009

 -------------------
 #SP MP2/aug-cc-pVDZ
 -------------------

 -------------------------------
 Single Point calculation at MP2
 -------------------------------
 Symbolic Z-matrix:
 Charge =  0 Multiplicity = 1

                         Standard orientation:
 ---------------------------------------------------------------------
 Center     Atomic      Atomic             Coordinates (Angstroms)
 Number     Number       Type             X           Y           Z
 ---------------------------------------------------------------------
      1          1           0       -3.273008   -1.913283    0.542696
      2          6           0       -3.090805   -1.081184   -0.140504
      3          1           0       -3.899802   -0.353781   -0.002904
      4          1           0       -3.125406   -1.443084   -1.173504
      5          6           0       -1.764402   -0.428990    0.225396
      6          8           0       -1.364102   -0.357392    1.377196
      7          7           0       -1.034800    0.056007   -0.842404
      8          1           0       -1.525800    0.110109   -1.725704
      9          6           0        0.066404    1.020102   -0.665704
     10          1           0        0.341506    1.319001   -1.685804
     11          6           0       -0.319190    2.274904    0.121996
     12          1           0       -0.631991    2.011405    1.133696
     13          1           0        0.546813    2.936200    0.189696
     14          1           0       -1.136288    2.801607   -0.383304
     15          6           0        1.345602    0.362597   -0.093604
     16          8           0        2.177704    1.029493    0.507496
     17          7           0        1.520096   -0.946804   -0.428604
     18          1           0        0.710294   -1.434100   -0.785804
     19          6           0        2.641693   -1.721609    0.070896
     20          1           0        3.415396   -1.019312    0.384196
     21          1           0        2.359390   -2.339908    0.932896
     22          1           0        3.037190   -2.371010   -0.717504
 ---------------------------------------------------------------------

 SCF Done:  E(RHF) =  -492.921046488     A.U. after   14 cycles
 E2 =    -0.1602951284D+01 EUMP2 =    -0.49452399777120D+03

 The electronic state is 1-A.
 Alpha  occ. eigenvalues --  -20.54457 -20.52322 -15.61008 -15.58527 -11.37444
 Alpha  occ. eigenvalues --  -11.35355 -11.29741 -11.26043 -11.25881 -11.22125
 Alpha  occ. eigenvalues --   -1.39866  -1.37696  -1.25124  -1.22030  -1.05459
 Alpha  occ. eigenvalues --   -0.99741  -0.95440  -0.87545  -0.80608  -0.77036
 Alpha  occ. eigenvalues --   -0.71606  -0.70178  -0.65474  -0.63860  -0.62347
 Alpha  occ. eigenvalues --   -0.61338  -0.60149  -0.59146  -0.57526  -0.55828
 Alpha  occ. eigenvalues --   -0.54083  -0.53411  -0.52069  -0.51405  -0.50234
 Alpha  occ. eigenvalues --   -0.43915  -0.42959  -0.39835  -0.38505
 Alpha virt. eigenvalues --    0.02097   0.03671   0.03825   0.04666   0.05733
 Alpha virt. eigenvalues --    0.06130   0.06362   0.06447   0.07373   0.08170
 Alpha virt. eigenvalues --    0.08690   0.09219   0.11368   0.12182   0.12268

 Mulliken atomic charges:
              1
     1  H    0.003677
     2  C    0.395120
     3  H    0.051302
     4  H   -0.104853
     5  C    0.630125
     6  O   -0.816766
     7  N   -0.186778
     8  H   -0.094811
     9  C   -0.362460
    10  H   -0.117339
    11  C    0.744066
    12  H   -0.011717
    13  H   -0.049532
    14  H   -0.032201
    15  C    1.050540
    16  O   -0.831356
    17  N   -0.537495
    18  H   -0.070983
    19  C    0.706269
    20  H   -0.141641
    21  H   -0.082557
    22  H   -0.140611
 Sum of Mulliken atomic charges =   0.00000

 Dipole moment (field-independent basis, Debye):
    X=             -3.6385    Y=             -2.1619    Z=             -5.0003  Tot=              6.5510
 Quadrupole moment (field-independent basis, Debye-Ang):
   XX=            -59.6992   YY=            -58.2461   ZZ=            -63.5771
   XY=             -5.2291   XZ=              3.1001   YZ=             -1.0757

 Normal termination of Gaussian 09 at Tue Feb 14 04:36:53 2017.
