 Gaussian 09, Revision A.02,
 Gaussian 09:  EM64L-G09RevA.02 11-Jun-2009

 -------------------
 #SP MP2/aug-cc-pVDZ
 -------------------

 -------------------------------
 Single Point calculation at MP2
 -------------------------------
 Symbolic Z-matrix:
 Charge =  0 Multiplicity = 1

                         Standard orientation:
 ---------------------------------------------------------------------
 Center     Atomic      Atomic             Coordinates (Angstroms)
 Number     Number       Type             X           Y           Z
 ---------------------------------------------------------------------
      1          1           0       -3.917804   -0.858683    0.804096
      2          6           0       -3.153205   -1.052786    0.049796
      3          1           0       -3.588404   -0.952485   -0.950004
      4          1           0       -2.804808   -2.085687    0.171196
      5          6           0       -1.984502   -0.105290    0.279696
      6          8           0       -1.736300    0.369509    1.379396
      7          7           0       -1.247001    0.173408   -0.851704
      8          1           0       -1.344503   -0.506092   -1.595304
      9          6           0        0.082201    0.774204   -0.781804
     10          1           0        0.354702    0.982103   -1.826404
     11          6           0        0.110506    2.114703   -0.033704
     12          1           0        0.010605    1.979104    1.042796
     13          1           0        1.034207    2.661000   -0.262004
     14          1           0       -0.722692    2.736206   -0.374604
     15          6           0        1.105898   -0.298100   -0.318604
     16          8           0        0.852394   -1.491299   -0.434904
     17          7           0        2.316099    0.172096    0.098396
     18          1           0        2.403502    1.156096    0.304296
     19          6           0        3.377296   -0.715807    0.545396
     20          1           0        3.151993   -1.714706    0.170596
     21          1           0        4.342397   -0.384910    0.147596
     22          1           0        3.439196   -0.757707    1.640296
 ---------------------------------------------------------------------

 SCF Done:  E(RHF) =  -492.920359115     A.U. after   14 cycles
 E2 =    -0.1600802408D+01 EUMP2 =    -0.49452116152354D+03

 The electronic state is 1-A.
 Alpha  occ. eigenvalues --  -20.53224 -20.52952 -15.59771 -15.58935 -11.36091
 Alpha  occ. eigenvalues --  -11.35852 -11.29734 -11.26891 -11.23979 -11.23671
 Alpha  occ. eigenvalues --   -1.38984  -1.37909  -1.23548  -1.23274  -1.05368
 Alpha  occ. eigenvalues --   -0.98771  -0.95402  -0.88690  -0.79955  -0.76517
 Alpha  occ. eigenvalues --   -0.71855  -0.69771  -0.65465  -0.63774  -0.61794
 Alpha  occ. eigenvalues --   -0.61591  -0.59635  -0.58496  -0.56187  -0.55811
 Alpha  occ. eigenvalues --   -0.54950  -0.54239  -0.52953  -0.50681  -0.50368
 Alpha  occ. eigenvalues --   -0.43084  -0.41975  -0.39776  -0.39343
 Alpha virt. eigenvalues --    0.02847   0.03806   0.04399   0.04706   0.05786
 Alpha virt. eigenvalues --    0.05968   0.06275   0.06753   0.07600   0.08044
 Alpha virt. eigenvalues --    0.09183   0.09280   0.11263   0.11584   0.13111

 Mulliken atomic charges:
              1
     1  H   -0.031648
     2  C    0.345114
     3  H   -0.033179
     4  H    0.065867
     5  C    0.667014
     6  O   -0.832120
     7  N   -0.460326
     8  H   -0.040661
     9  C    0.009929
    10  H   -0.099572
    11  C    0.717455
    12  H    0.040954
    13  H   -0.050963
    14  H   -0.093887
    15  C    0.885181
    16  O   -0.851149
    17  N   -0.478375
    18  H   -0.108548
    19  C    0.728294
    20  H   -0.148292
    21  H   -0.151667
    22  H   -0.079421
 Sum of Mulliken atomic charges =   0.00000

 Dipole moment (field-independent basis, Debye):
    X=              1.5592    Y=              1.7744    Z=             -2.4173  Tot=              3.3798
 Quadrupole moment (field-independent basis, Debye-Ang):
   XX=            -50.5270   YY=            -62.6369   ZZ=            -63.6610
   XY=              7.2865   XZ=              7.2191   YZ=             -1.8515

 Normal termination of Gaussian 09 at Tue Feb 14 04:01:17 2017.
