 Gaussian 09, Revision A.02,
 Gaussian 09:  EM64L-G09RevA.02 11-Jun-2009

 -------------------
 #SP MP2/aug-cc-pVDZ
 -------------------

 -------------------------------
 Single Point calculation at MP2
 -------------------------------
 Symbolic Z-matrix:
 Charge =  0 Multiplicity = 1

                         Standard orientation:
 ---------------------------------------------------------------------
 Center     Atomic      Atomic             Coordinates (Angstroms)
 Number     Number       Type             X           Y           Z
 ---------------------------------------------------------------------
      1          1           0       -3.882793   -0.814889    0.908509
      2          6           0       -3.136393   -1.053990    0.148509
      3          1           0       -3.587593   -0.978689   -0.845991
      4          1           0       -2.813296   -2.090491    0.303709
      5          6           0       -1.940891   -0.128993    0.328109
      6          8           0       -1.621590    0.316606    1.422909
      7          7           0       -1.262991    0.161305   -0.834191
      8          1           0       -1.404092   -0.494594   -1.591291
      9          6           0        0.061511    0.783602   -0.829591
     10          1           0        0.283211    0.979602   -1.887591
     11          6           0        0.097314    2.133302   -0.102991
     12          1           0       -0.012486    2.014603    0.975309
     13          1           0        1.028915    2.663300   -0.335091
     14          1           0       -0.729085    2.756904   -0.456891
     15          6           0        1.115908   -0.277200   -0.417591
     16          8           0        0.970606   -1.444900   -0.762691
     17          7           0        2.220609    0.177797    0.236209
     18          1           0        2.192112    1.104598    0.634409
     19          6           0        3.271207   -0.724005    0.680809
     20          1           0        3.256005   -1.601705    0.033709
     21          1           0        4.244508   -0.229307    0.605209
     22          1           0        3.117207   -1.053005    1.716609
 ---------------------------------------------------------------------

 SCF Done:  E(RHF) =  -492.921037873     A.U. after   14 cycles
 E2 =    -0.1601041140D+01 EUMP2 =    -0.49452207901235D+03

 The electronic state is 1-A.
 Alpha  occ. eigenvalues --  -20.53145 -20.53070 -15.59738 -15.59174 -11.36093
 Alpha  occ. eigenvalues --  -11.36013 -11.29706 -11.26822 -11.24214 -11.23629
 Alpha  occ. eigenvalues --   -1.38943  -1.38012  -1.23592  -1.23313  -1.05453
 Alpha  occ. eigenvalues --   -0.98939  -0.95337  -0.88850  -0.80015  -0.76617
 Alpha  occ. eigenvalues --   -0.71871  -0.69894  -0.65360  -0.64141  -0.61711
 Alpha  occ. eigenvalues --   -0.61499  -0.59681  -0.58576  -0.56297  -0.55674
 Alpha  occ. eigenvalues --   -0.55029  -0.54501  -0.52846  -0.50886  -0.50420
 Alpha  occ. eigenvalues --   -0.43103  -0.42139  -0.39971  -0.39133
 Alpha virt. eigenvalues --    0.02999   0.03778   0.04361   0.04765   0.05841
 Alpha virt. eigenvalues --    0.06034   0.06204   0.06826   0.07584   0.07831
 Alpha virt. eigenvalues --    0.09189   0.09555   0.10921   0.11611   0.13127

 Mulliken atomic charges:
              1
     1  H   -0.018703
     2  C    0.356165
     3  H   -0.049982
     4  H    0.063071
     5  C    0.646691
     6  O   -0.829913
     7  N   -0.442805
     8  H   -0.041990
     9  C   -0.114582
    10  H   -0.097010
    11  C    0.801010
    12  H    0.080886
    13  H   -0.006947
    14  H   -0.135867
    15  C    0.874609
    16  O   -0.870085
    17  N   -0.466406
    18  H   -0.120061
    19  C    0.737626
    20  H   -0.131092
    21  H   -0.165483
    22  H   -0.069130
 Sum of Mulliken atomic charges =   0.00000

 Dipole moment (field-independent basis, Debye):
    X=              0.8994    Y=              1.8034    Z=             -1.6835  Tot=              2.6259
 Quadrupole moment (field-independent basis, Debye-Ang):
   XX=            -50.9808   YY=            -62.5165   ZZ=            -64.0743
   XY=              7.0830   XZ=              8.1854   YZ=             -2.8386

 Normal termination of Gaussian 09 at Tue Feb 14 04:17:23 2017.
