 Gaussian 09, Revision A.02,
 Gaussian 09:  EM64L-G09RevA.02 11-Jun-2009

 ----------------------------------------------------------------------
 # b3lyp/6-31G* Opt=(ModRedundant, maxcycles=1000, calcfc) geom=nocrowd
 ----------------------------------------------------------------------

 ------------------
 Phi Psi fixed scan
 ------------------
 Symbolic Z-matrix:
 Charge =  0 Multiplicity = 1

 SCF Done:  E(RB3LYP) =  -495.829753201     A.U. after   15 cycles

  Exact polarizability:   0.000   0.000   0.000   0.000   0.000   0.000
 Approx polarizability: 117.378  -9.717 117.750   5.124   6.126 100.126

 SCF Done:  E(RB3LYP) =  -495.834505942     A.U. after   12 cycles
 SCF Done:  E(RB3LYP) =  -495.839700631     A.U. after   13 cycles
 SCF Done:  E(RB3LYP) =  -495.840573393     A.U. after   13 cycles
 SCF Done:  E(RB3LYP) =  -495.834072542     A.U. after   14 cycles
 SCF Done:  E(RB3LYP) =  -495.840695379     A.U. after   14 cycles
 SCF Done:  E(RB3LYP) =  -495.840987944     A.U. after   12 cycles
 SCF Done:  E(RB3LYP) =  -495.841183250     A.U. after   12 cycles
 SCF Done:  E(RB3LYP) =  -495.835865541     A.U. after   13 cycles
 SCF Done:  E(RB3LYP) =  -495.841274673     A.U. after   13 cycles
 SCF Done:  E(RB3LYP) =  -495.841533868     A.U. after   13 cycles
 SCF Done:  E(RB3LYP) =  -495.841616405     A.U. after   12 cycles
 SCF Done:  E(RB3LYP) =  -495.841625953     A.U. after   10 cycles
 SCF Done:  E(RB3LYP) =  -495.841628710     A.U. after   10 cycles
 SCF Done:  E(RB3LYP) =  -495.841629302     A.U. after    8 cycles
 SCF Done:  E(RB3LYP) =  -495.841629612     A.U. after    7 cycles
 SCF Done:  E(RB3LYP) =  -495.841629887     A.U. after    7 cycles
 SCF Done:  E(RB3LYP) =  -495.841630746     A.U. after    9 cycles
 SCF Done:  E(RB3LYP) =  -495.841631583     A.U. after    9 cycles
 SCF Done:  E(RB3LYP) =  -495.841631626     A.U. after    6 cycles
 Optimization completed.
    -- Stationary point found.

                         Standard orientation:
 ---------------------------------------------------------------------
 Center     Atomic      Atomic             Coordinates (Angstroms)
 Number     Number       Type             X           Y           Z
 ---------------------------------------------------------------------
      1          1           0       -3.836795   -1.739529    0.179345
      2          6           0       -2.927928   -1.445410    0.708390
      3          1           0       -2.319785   -2.333674    0.908765
      4          1           0       -3.225974   -1.007302    1.668446
      5          6           0       -2.201105   -0.392536   -0.119367
      6          8           0       -2.800033    0.423829   -0.804521
      7          7           0       -0.825221   -0.459794   -0.058621
      8          1           0       -0.460817   -1.046335    0.682601
      9          6           0        0.053969    0.668591   -0.439025
     10          1           0        0.099014    0.701077   -1.535388
     11          6           0       -0.405074    2.030059    0.088023
     12          1           0       -0.400483    2.032213    1.181080
     13          1           0        0.291217    2.805042   -0.248527
     14          1           0       -1.404495    2.258618   -0.281414
     15          6           0        1.452910    0.332700    0.126772
     16          8           0        1.900110    0.856779    1.137935
     17          7           0        2.117283   -0.629748   -0.579641
     18          1           0        1.672031   -1.008242   -1.404002
     19          6           0        3.432313   -1.120953   -0.206365
     20          1           0        3.733665   -0.589212    0.697067
     21          1           0        3.410857   -2.197729   -0.000360
     22          1           0        4.166000   -0.927709   -0.997674
 ---------------------------------------------------------------------

 The electronic state is 1-A.
 Alpha  occ. eigenvalues --  -19.12068 -19.11192 -14.37207 -14.36346 -10.29282
 Alpha  occ. eigenvalues --  -10.28913 -10.23831 -10.22583 -10.19381 -10.16692
 Alpha  occ. eigenvalues --   -1.04097  -1.03012  -0.93233  -0.91876  -0.77780
 Alpha  occ. eigenvalues --   -0.72830  -0.71571  -0.64143  -0.58981  -0.57472
 Alpha  occ. eigenvalues --   -0.53573  -0.48305  -0.47976  -0.46760  -0.45468
 Alpha  occ. eigenvalues --   -0.44599  -0.42385  -0.41263  -0.40161  -0.39747
 Alpha  occ. eigenvalues --   -0.39348  -0.37972  -0.36717  -0.36091  -0.34496
 Alpha  occ. eigenvalues --   -0.26768  -0.26081  -0.25472  -0.24487
 Alpha virt. eigenvalues --    0.01118   0.02688   0.07075   0.07726   0.11597
 Alpha virt. eigenvalues --    0.12829   0.13177   0.14882   0.15598   0.15870
 Alpha virt. eigenvalues --    0.16721   0.17087   0.18089   0.19046   0.20524

 Mulliken atomic charges:
              1
     1  H    0.188363
     2  C   -0.543683
     3  H    0.150966
     4  H    0.183788
     5  C    0.596462
     6  O   -0.498426
     7  N   -0.614876
     8  H    0.330210
     9  C   -0.007189
    10  H    0.154618
    11  C   -0.453051
    12  H    0.161368
    13  H    0.148518
    14  H    0.188327
    15  C    0.551914
    16  O   -0.503601
    17  N   -0.579609
    18  H    0.333052
    19  C   -0.313553
    20  H    0.206091
    21  H    0.158015
    22  H    0.162296
 Sum of Mulliken atomic charges =   0.00000

 Dipole moment (field-independent basis, Debye):
    X=              1.9293    Y=             -3.6200    Z=             -0.5773  Tot=              4.1425
 Quadrupole moment (field-independent basis, Debye-Ang):
   XX=            -63.5469   YY=            -57.8838   ZZ=            -60.7826
   XY=             -0.6783   XZ=            -10.9946   YZ=             -1.5382

 Normal termination of Gaussian 09 at Fri Feb 10 21:00:49 2017.
