 Gaussian 09, Revision A.02,
 Gaussian 09:  EM64L-G09RevA.02 11-Jun-2009

 ----------------------------------------------------------------------
 # b3lyp/6-31G* Opt=(ModRedundant, maxcycles=1000, calcfc) geom=nocrowd
 ----------------------------------------------------------------------

 ------------------
 Phi Psi fixed scan
 ------------------
 Symbolic Z-matrix:
 Charge =  0 Multiplicity = 1

 SCF Done:  E(RB3LYP) =  -495.839106103     A.U. after   14 cycles

  Exact polarizability:   0.000   0.000   0.000   0.000   0.000   0.000
 Approx polarizability: 120.677  -0.069 127.017  -4.751 -11.528  86.301

 SCF Done:  E(RB3LYP) =  -495.843857942     A.U. after   12 cycles
 SCF Done:  E(RB3LYP) =  -495.848267995     A.U. after   13 cycles
 SCF Done:  E(RB3LYP) =  -495.849051344     A.U. after   12 cycles
 SCF Done:  E(RB3LYP) =  -495.843403660     A.U. after   13 cycles
 SCF Done:  E(RB3LYP) =  -495.849318558     A.U. after   12 cycles
 SCF Done:  E(RB3LYP) =  -495.849682921     A.U. after   12 cycles
 SCF Done:  E(RB3LYP) =  -495.849595530     A.U. after   12 cycles
 SCF Done:  E(RB3LYP) =  -495.849682326     A.U. after   11 cycles
 SCF Done:  E(RB3LYP) =  -495.849707251     A.U. after   11 cycles
 SCF Done:  E(RB3LYP) =  -495.849711499     A.U. after   10 cycles
 SCF Done:  E(RB3LYP) =  -495.849715526     A.U. after   10 cycles
 SCF Done:  E(RB3LYP) =  -495.849723352     A.U. after   10 cycles
 SCF Done:  E(RB3LYP) =  -495.849729875     A.U. after   10 cycles
 SCF Done:  E(RB3LYP) =  -495.849731341     A.U. after    9 cycles
 SCF Done:  E(RB3LYP) =  -495.849731700     A.U. after    9 cycles
 SCF Done:  E(RB3LYP) =  -495.849731746     A.U. after    7 cycles
 Optimization completed.
    -- Stationary point found.

                         Standard orientation:
 ---------------------------------------------------------------------
 Center     Atomic      Atomic             Coordinates (Angstroms)
 Number     Number       Type             X           Y           Z
 ---------------------------------------------------------------------
      1          1           0       -4.163672   -1.126795   -0.503376
      2          6           0       -3.290527   -1.199441    0.150083
      3          1           0       -2.835236   -2.188197    0.038133
      4          1           0       -3.642550   -1.090603    1.182201
      5          6           0       -2.342285   -0.051327   -0.172704
      6          8           0       -2.751357    1.091710   -0.350458
      7          7           0       -1.025757   -0.406309   -0.272455
      8          1           0       -0.739772   -1.329656    0.040212
      9          6           0        0.082722    0.535680   -0.300498
     10          1           0        0.148265    0.998881   -1.294751
     11          6           0       -0.026532    1.650625    0.762782
     12          1           0       -0.027352    1.213877    1.767388
     13          1           0        0.820404    2.341930    0.689216
     14          1           0       -0.953779    2.204403    0.614778
     15          6           0        1.354223   -0.295712   -0.034058
     16          8           0        1.295559   -1.431940    0.430617
     17          7           0        2.522341    0.331874   -0.331184
     18          1           0        2.481158    1.261775   -0.723640
     19          6           0        3.825974   -0.265579   -0.094708
     20          1           0        3.659509   -1.261309    0.317386
     21          1           0        4.392587   -0.353550   -1.028670
     22          1           0        4.409283    0.326661    0.619947
 ---------------------------------------------------------------------

 The electronic state is 1-A.
 Alpha  occ. eigenvalues --  -19.12800 -19.09919 -14.37679 -14.34792 -10.29876
 Alpha  occ. eigenvalues --  -10.27860 -10.24040 -10.22870 -10.18325 -10.18231
 Alpha  occ. eigenvalues --   -1.04776  -1.01808  -0.93483  -0.91385  -0.78014
 Alpha  occ. eigenvalues --   -0.72673  -0.71086  -0.65016  -0.59980  -0.56463
 Alpha  occ. eigenvalues --   -0.53685  -0.48730  -0.47521  -0.46271  -0.45148
 Alpha  occ. eigenvalues --   -0.44249  -0.43091  -0.41094  -0.40398  -0.40215
 Alpha  occ. eigenvalues --   -0.38677  -0.38502  -0.36885  -0.36626  -0.34054
 Alpha  occ. eigenvalues --   -0.26833  -0.26797  -0.24655  -0.23612
 Alpha virt. eigenvalues --    0.01552   0.03624   0.06225   0.10090   0.11306
 Alpha virt. eigenvalues --    0.13447   0.14261   0.14416   0.15410   0.15816
 Alpha virt. eigenvalues --    0.16422   0.17673   0.18288   0.18930   0.20134

 Mulliken atomic charges:
              1
     1  H    0.182776
     2  C   -0.536903
     3  H    0.152234
     4  H    0.179393
     5  C    0.594958
     6  O   -0.518849
     7  N   -0.617266
     8  H    0.349542
     9  C   -0.010414
    10  H    0.158957
    11  C   -0.461099
    12  H    0.155910
    13  H    0.129332
    14  H    0.211425
    15  C    0.598074
    16  O   -0.529213
    17  N   -0.590066
    18  H    0.331182
    19  C   -0.313341
    20  H    0.207744
    21  H    0.162894
    22  H    0.162731
 Sum of Mulliken atomic charges =   0.00000

 Dipole moment (field-independent basis, Debye):
    X=              3.6368    Y=              0.2868    Z=             -0.2895  Tot=              3.6596
 Quadrupole moment (field-independent basis, Debye-Ang):
   XX=            -55.3701   YY=            -62.3176   ZZ=            -59.8698
   XY=             12.3257   XZ=             -4.6848   YZ=              0.6162

 Normal termination of Gaussian 09 at Fri Feb 10 20:53:24 2017.
