 Gaussian 09, Revision A.02,
 Gaussian 09:  EM64L-G09RevA.02 11-Jun-2009

 ----------------------------------------------------------------------
 # b3lyp/6-31G* Opt=(ModRedundant, maxcycles=1000, calcfc) geom=nocrowd
 ----------------------------------------------------------------------

 ------------------
 Phi Psi fixed scan
 ------------------
 Symbolic Z-matrix:
 Charge =  0 Multiplicity = 1

 SCF Done:  E(RB3LYP) =  -495.831454033     A.U. after   16 cycles

  Exact polarizability:   0.000   0.000   0.000   0.000   0.000   0.000
 Approx polarizability: 116.794   7.530 112.355  10.442  -6.704 106.233

 SCF Done:  E(RB3LYP) =  -495.835768086     A.U. after   13 cycles
 SCF Done:  E(RB3LYP) =  -495.840307565     A.U. after   16 cycles
 SCF Done:  E(RB3LYP) =  -495.840933972     A.U. after   13 cycles
 SCF Done:  E(RB3LYP) =  -495.827933953     A.U. after   14 cycles
 SCF Done:  E(RB3LYP) =  -495.840994266     A.U. after   14 cycles
 SCF Done:  E(RB3LYP) =  -495.841150390     A.U. after   12 cycles
 SCF Done:  E(RB3LYP) =  -495.832883788     A.U. after   16 cycles
 SCF Done:  E(RB3LYP) =  -495.841196430     A.U. after   16 cycles
 SCF Done:  E(RB3LYP) =  -495.841302962     A.U. after   12 cycles
 SCF Done:  E(RB3LYP) =  -495.841351973     A.U. after   12 cycles
 SCF Done:  E(RB3LYP) =  -495.841365133     A.U. after   10 cycles
 SCF Done:  E(RB3LYP) =  -495.841382938     A.U. after   11 cycles
 SCF Done:  E(RB3LYP) =  -495.841387585     A.U. after   10 cycles
 SCF Done:  E(RB3LYP) =  -495.841390595     A.U. after   10 cycles
 SCF Done:  E(RB3LYP) =  -495.841400431     A.U. after   11 cycles
 SCF Done:  E(RB3LYP) =  -495.841406841     A.U. after   10 cycles
 SCF Done:  E(RB3LYP) =  -495.841412085     A.U. after   10 cycles
 SCF Done:  E(RB3LYP) =  -495.841412475     A.U. after    8 cycles
 SCF Done:  E(RB3LYP) =  -495.841412499     A.U. after    6 cycles
 Optimization completed.
    -- Stationary point found.

                         Standard orientation:
 ---------------------------------------------------------------------
 Center     Atomic      Atomic             Coordinates (Angstroms)
 Number     Number       Type             X           Y           Z
 ---------------------------------------------------------------------
      1          1           0        3.606387   -1.698292   -0.693834
      2          6           0        2.990478   -1.532316    0.193768
      3          1           0        3.668789   -1.426814    1.047572
      4          1           0        2.353518   -2.407468    0.357833
      5          6           0        2.220458   -0.227944    0.010568
      6          8           0        2.769523    0.781356   -0.408290
      7          7           0        0.893094   -0.297710    0.359859
      8          1           0        0.600907   -1.136669    0.842751
      9          6           0       -0.062827    0.819892    0.405712
     10          1           0        0.059168    1.376849    1.342255
     11          6           0        0.059676    1.797632   -0.773614
     12          1           0       -0.017704    1.279469   -1.735567
     13          1           0       -0.753789    2.528245   -0.709175
     14          1           0        1.018164    2.313232   -0.747190
     15          6           0       -1.488448    0.233501    0.474026
     16          8           0       -2.249421    0.502310    1.394834
     17          7           0       -1.831565   -0.556976   -0.585114
     18          1           0       -1.129974   -0.738275   -1.289256
     19          6           0       -3.143300   -1.163649   -0.724468
     20          1           0       -3.730758   -0.871171    0.146903
     21          1           0       -3.647721   -0.810895   -1.631811
     22          1           0       -3.074728   -2.257441   -0.761999
 ---------------------------------------------------------------------

 The electronic state is 1-A.
 Alpha  occ. eigenvalues --  -19.11625 -19.11231 -14.36861 -14.36851 -10.29297
 Alpha  occ. eigenvalues --  -10.28921 -10.23900 -10.22392 -10.19626 -10.18169
 Alpha  occ. eigenvalues --   -1.03717  -1.03085  -0.93395  -0.91861  -0.78387
 Alpha  occ. eigenvalues --   -0.73144  -0.71177  -0.65228  -0.58953  -0.57372
 Alpha  occ. eigenvalues --   -0.53856  -0.50565  -0.47308  -0.45735  -0.45218
 Alpha  occ. eigenvalues --   -0.44270  -0.42814  -0.41435  -0.40723  -0.40004
 Alpha  occ. eigenvalues --   -0.39156  -0.38303  -0.37811  -0.36324  -0.35224
 Alpha  occ. eigenvalues --   -0.26539  -0.25841  -0.25453  -0.24267
 Alpha virt. eigenvalues --    0.01745   0.02384   0.06537   0.08248   0.11506
 Alpha virt. eigenvalues --    0.12525   0.13553   0.15190   0.15377   0.16030
 Alpha virt. eigenvalues --    0.16082   0.17420   0.17825   0.18301   0.19951

 Mulliken atomic charges:
              1
     1  H    0.187880
     2  C   -0.539472
     3  H    0.187183
     4  H    0.143852
     5  C    0.596585
     6  O   -0.501185
     7  N   -0.629603
     8  H    0.329561
     9  C   -0.001857
    10  H    0.174563
    11  C   -0.456023
    12  H    0.137224
    13  H    0.157693
    14  H    0.205251
    15  C    0.549681
    16  O   -0.509763
    17  N   -0.573535
    18  H    0.330244
    19  C   -0.311273
    20  H    0.205722
    21  H    0.161516
    22  H    0.155756
 Sum of Mulliken atomic charges =   0.00000

 Dipole moment (field-independent basis, Debye):
    X=             -0.6074    Y=             -3.5896    Z=             -1.6001  Tot=              3.9767
 Quadrupole moment (field-independent basis, Debye-Ang):
   XX=            -67.5234   YY=            -57.0095   ZZ=            -61.2108
   XY=             -2.6789   XZ=              9.9945   YZ=             -0.3033

 Normal termination of Gaussian 09 at Fri Feb 10 21:07:06 2017.
