 Gaussian 09, Revision A.02,
 Gaussian 09:  EM64L-G09RevA.02 11-Jun-2009

 ----------------------------------------------------------------------
 # b3lyp/6-31G* Opt=(ModRedundant, maxcycles=1000, calcfc) geom=nocrowd
 ----------------------------------------------------------------------

 ------------------
 Phi Psi fixed scan
 ------------------
 Symbolic Z-matrix:
 Charge =  0 Multiplicity = 1

 SCF Done:  E(RB3LYP) =  -495.829255498     A.U. after   15 cycles

  Exact polarizability:   0.000   0.000   0.000   0.000   0.000   0.000
 Approx polarizability: 117.863  -7.511 124.055   6.048   5.432  93.237

 SCF Done:  E(RB3LYP) =  -495.834153129     A.U. after   12 cycles
 SCF Done:  E(RB3LYP) =  -495.839638152     A.U. after   13 cycles
 SCF Done:  E(RB3LYP) =  -495.840810073     A.U. after   13 cycles
 SCF Done:  E(RB3LYP) =  -495.837844333     A.U. after   14 cycles
 SCF Done:  E(RB3LYP) =  -495.840982082     A.U. after   13 cycles
 SCF Done:  E(RB3LYP) =  -495.841298680     A.U. after   12 cycles
 SCF Done:  E(RB3LYP) =  -495.839423198     A.U. after   13 cycles
 SCF Done:  E(RB3LYP) =  -495.841582295     A.U. after   12 cycles
 SCF Done:  E(RB3LYP) =  -495.841799048     A.U. after   12 cycles
 SCF Done:  E(RB3LYP) =  -495.841852098     A.U. after   10 cycles
 SCF Done:  E(RB3LYP) =  -495.841853158     A.U. after    9 cycles
 SCF Done:  E(RB3LYP) =  -495.841853516     A.U. after    8 cycles
 SCF Done:  E(RB3LYP) =  -495.841854212     A.U. after    9 cycles
 SCF Done:  E(RB3LYP) =  -495.841855084     A.U. after    9 cycles
 SCF Done:  E(RB3LYP) =  -495.841855560     A.U. after    8 cycles
 SCF Done:  E(RB3LYP) =  -495.841856014     A.U. after    9 cycles
 SCF Done:  E(RB3LYP) =  -495.841857139     A.U. after    9 cycles
 SCF Done:  E(RB3LYP) =  -495.841857931     A.U. after    9 cycles
 SCF Done:  E(RB3LYP) =  -495.841857924     A.U. after    7 cycles
 Optimization completed.
    -- Stationary point found.

                         Standard orientation:
 ---------------------------------------------------------------------
 Center     Atomic      Atomic             Coordinates (Angstroms)
 Number     Number       Type             X           Y           Z
 ---------------------------------------------------------------------
      1          1           0       -3.807004   -1.757704    0.199602
      2          6           0       -2.883592   -1.476571    0.710088
      3          1           0       -2.264323   -2.367320    0.859126
      4          1           0       -3.153573   -1.075531    1.694371
      5          6           0       -2.189172   -0.389662   -0.101650
      6          8           0       -2.813886    0.442500   -0.742720
      7          7           0       -0.811164   -0.444761   -0.077781
      8          1           0       -0.420882   -1.059069    0.626658
      9          6           0        0.051488    0.702505   -0.440599
     10          1           0        0.077007    0.768335   -1.536696
     11          6           0       -0.412655    2.043015    0.132437
     12          1           0       -0.418347    2.009412    1.225614
     13          1           0        0.285739    2.828571   -0.169692
     14          1           0       -1.411102    2.280911   -0.233796
     15          6           0        1.472985    0.374442    0.072849
     16          8           0        2.058446    1.065177    0.894010
     17          7           0        2.004473   -0.764520   -0.468796
     18          1           0        1.469943   -1.247198   -1.178204
     19          6           0        3.340597   -1.240151   -0.153428
     20          1           0        3.727760   -0.615095    0.652240
     21          1           0        3.317951   -2.284721    0.177358
     22          1           0        4.009286   -1.158509   -1.019030
 ---------------------------------------------------------------------

 The electronic state is 1-A.
 Alpha  occ. eigenvalues --  -19.12101 -19.11324 -14.37151 -14.36489 -10.29318
 Alpha  occ. eigenvalues --  -10.29054 -10.23873 -10.22594 -10.19520 -10.16652
 Alpha  occ. eigenvalues --   -1.04129  -1.03145  -0.93443  -0.91781  -0.77817
 Alpha  occ. eigenvalues --   -0.72849  -0.71654  -0.64113  -0.58929  -0.57606
 Alpha  occ. eigenvalues --   -0.53654  -0.48299  -0.48148  -0.46868  -0.45485
 Alpha  occ. eigenvalues --   -0.44644  -0.42432  -0.41384  -0.40145  -0.39820
 Alpha  occ. eigenvalues --   -0.39262  -0.38013  -0.36698  -0.36216  -0.34546
 Alpha  occ. eigenvalues --   -0.26857  -0.26070  -0.25582  -0.24592
 Alpha virt. eigenvalues --    0.00958   0.02677   0.07016   0.08196   0.11660
 Alpha virt. eigenvalues --    0.12741   0.12869   0.14832   0.15541   0.15630
 Alpha virt. eigenvalues --    0.16636   0.17097   0.17944   0.18837   0.20543

 Mulliken atomic charges:
              1
     1  H    0.189059
     2  C   -0.543840
     3  H    0.150096
     4  H    0.183765
     5  C    0.597048
     6  O   -0.496533
     7  N   -0.621406
     8  H    0.327311
     9  C   -0.013244
    10  H    0.165081
    11  C   -0.447984
    12  H    0.153108
    13  H    0.155584
    14  H    0.187033
    15  C    0.554838
    16  O   -0.502016
    17  N   -0.584321
    18  H    0.333325
    19  C   -0.311864
    20  H    0.205756
    21  H    0.156676
    22  H    0.162529
 Sum of Mulliken atomic charges =   0.00000

 Dipole moment (field-independent basis, Debye):
    X=              1.6017    Y=             -4.0795    Z=             -0.2218  Tot=              4.3883
 Quadrupole moment (field-independent basis, Debye-Ang):
   XX=            -65.5081   YY=            -58.0143   ZZ=            -60.0563
   XY=             -1.6238   XZ=             -9.7298   YZ=             -1.5557

 Normal termination of Gaussian 09 at Fri Feb 10 21:00:38 2017.
