 Gaussian 09, Revision A.02,
 Gaussian 09:  EM64L-G09RevA.02 11-Jun-2009

 ----------------------------------------------------------------------
 # b3lyp/6-31G* Opt=(ModRedundant, maxcycles=1000, calcfc) geom=nocrowd
 ----------------------------------------------------------------------

 ------------------
 Phi Psi fixed scan
 ------------------
 Symbolic Z-matrix:
 Charge =  0 Multiplicity = 1

 SCF Done:  E(RB3LYP) =  -495.836615167     A.U. after   14 cycles

  Exact polarizability:   0.000   0.000   0.000   0.000   0.000   0.000
 Approx polarizability: 121.293   1.244 132.289  -0.475  -5.230  81.137

 SCF Done:  E(RB3LYP) =  -495.842544383     A.U. after   12 cycles
 SCF Done:  E(RB3LYP) =  -495.847339376     A.U. after   13 cycles
 SCF Done:  E(RB3LYP) =  -495.847841641     A.U. after   12 cycles
 SCF Done:  E(RB3LYP) =  -495.788882461     A.U. after   14 cycles
 SCF Done:  E(RB3LYP) =  -495.847921152     A.U. after   13 cycles
 SCF Done:  E(RB3LYP) =  -495.848015018     A.U. after   11 cycles
 SCF Done:  E(RB3LYP) =  -495.847988351     A.U. after   12 cycles
 SCF Done:  E(RB3LYP) =  -495.848030361     A.U. after   12 cycles
 SCF Done:  E(RB3LYP) =  -495.848071333     A.U. after   11 cycles
 SCF Done:  E(RB3LYP) =  -495.848086277     A.U. after   10 cycles
 SCF Done:  E(RB3LYP) =  -495.848108088     A.U. after   11 cycles
 SCF Done:  E(RB3LYP) =  -495.848126481     A.U. after   11 cycles
 SCF Done:  E(RB3LYP) =  -495.848131176     A.U. after   10 cycles
 SCF Done:  E(RB3LYP) =  -495.848131864     A.U. after    8 cycles
 SCF Done:  E(RB3LYP) =  -495.848132020     A.U. after    7 cycles
 SCF Done:  E(RB3LYP) =  -495.848132087     A.U. after    7 cycles
 Optimization completed.
    -- Stationary point found.

                         Standard orientation:
 ---------------------------------------------------------------------
 Center     Atomic      Atomic             Coordinates (Angstroms)
 Number     Number       Type             X           Y           Z
 ---------------------------------------------------------------------
      1          1           0       -4.105300   -1.241065   -0.328992
      2          6           0       -3.251334   -1.214742    0.353796
      3          1           0       -2.755996   -2.190468    0.348742
      4          1           0       -3.643009   -1.023545    1.358562
      5          6           0       -2.342673   -0.057581   -0.046051
      6          8           0       -2.790233    1.073657   -0.214016
      7          7           0       -1.032131   -0.396625   -0.207055
      8          1           0       -0.732206   -1.354018   -0.055612
      9          6           0        0.081235    0.509421   -0.451010
     10          1           0        0.102980    0.793264   -1.515447
     11          6           0        0.013705    1.794635    0.394664
     12          1           0        0.144622    1.569586    1.458402
     13          1           0        0.784792    2.511820    0.088793
     14          1           0       -0.959265    2.264312    0.251750
     15          6           0        1.355148   -0.327664   -0.169184
     16          8           0        1.302391   -1.553956   -0.091191
     17          7           0        2.508510    0.372468   -0.021107
     18          1           0        2.475079    1.378886   -0.079295
     19          6           0        3.794470   -0.266758    0.204783
     20          1           0        3.622473   -1.341870    0.260615
     21          1           0        4.489912   -0.055453   -0.615838
     22          1           0        4.240693    0.076175    1.145121
 ---------------------------------------------------------------------

 The electronic state is 1-A.
 Alpha  occ. eigenvalues --  -19.12715 -19.09728 -14.37638 -14.34864 -10.29927
 Alpha  occ. eigenvalues --  -10.27862 -10.24294 -10.22834 -10.18456 -10.18265
 Alpha  occ. eigenvalues --   -1.04760  -1.01642  -0.93458  -0.91384  -0.78133
 Alpha  occ. eigenvalues --   -0.72618  -0.70970  -0.65518  -0.60079  -0.56270
 Alpha  occ. eigenvalues --   -0.53788  -0.49332  -0.47521  -0.46087  -0.45274
 Alpha  occ. eigenvalues --   -0.44130  -0.42889  -0.41291  -0.40286  -0.40040
 Alpha  occ. eigenvalues --   -0.38803  -0.38430  -0.37205  -0.36833  -0.34072
 Alpha  occ. eigenvalues --   -0.26931  -0.26619  -0.24377  -0.23565
 Alpha virt. eigenvalues --    0.01519   0.03920   0.06374   0.10326   0.11138
 Alpha virt. eigenvalues --    0.13433   0.13856   0.14693   0.15236   0.15667
 Alpha virt. eigenvalues --    0.15909   0.18123   0.18464   0.19623   0.20584

 Mulliken atomic charges:
              1
     1  H    0.181865
     2  C   -0.534213
     3  H    0.149742
     4  H    0.179911
     5  C    0.599554
     6  O   -0.522167
     7  N   -0.623795
     8  H    0.353066
     9  C   -0.005835
    10  H    0.173286
    11  C   -0.481283
    12  H    0.155256
    13  H    0.125281
    14  H    0.221682
    15  C    0.599339
    16  O   -0.530954
    17  N   -0.594219
    18  H    0.333715
    19  C   -0.313890
    20  H    0.208219
    21  H    0.162563
    22  H    0.162878
 Sum of Mulliken atomic charges =   0.00000

 Dipole moment (field-independent basis, Debye):
    X=              3.7100    Y=              0.4798    Z=              0.4701  Tot=              3.7703
 Quadrupole moment (field-independent basis, Debye-Ang):
   XX=            -56.3622   YY=            -62.5599   ZZ=            -59.4349
   XY=             12.7048   XZ=             -1.5557   YZ=             -0.3712

 Normal termination of Gaussian 09 at Fri Feb 10 20:46:11 2017.
