 Gaussian 09, Revision A.02,
 Gaussian 09:  EM64L-G09RevA.02 11-Jun-2009

 ----------------------------------------------------------------------
 # b3lyp/6-31G* Opt=(ModRedundant, maxcycles=1000, calcfc) geom=nocrowd
 ----------------------------------------------------------------------

 ------------------
 Phi Psi fixed scan
 ------------------
 Symbolic Z-matrix:
 Charge =  0 Multiplicity = 1

 SCF Done:  E(RB3LYP) =  -495.832413853     A.U. after   14 cycles

  Exact polarizability:   0.000   0.000   0.000   0.000   0.000   0.000
 Approx polarizability: 118.557 -11.956 105.130  -1.022  -0.761 111.987

 SCF Done:  E(RB3LYP) =  -495.837167877     A.U. after   12 cycles
 SCF Done:  E(RB3LYP) =  -495.841621626     A.U. after   13 cycles
 SCF Done:  E(RB3LYP) =  -495.842417288     A.U. after   12 cycles
 SCF Done:  E(RB3LYP) =  -495.810281571     A.U. after   15 cycles
 SCF Done:  E(RB3LYP) =  -495.842537398     A.U. after   15 cycles
 SCF Done:  E(RB3LYP) =  -495.843358762     A.U. after   12 cycles
 SCF Done:  E(RB3LYP) =  -495.843901702     A.U. after   12 cycles
 SCF Done:  E(RB3LYP) =  -495.843788198     A.U. after   12 cycles
 SCF Done:  E(RB3LYP) =  -495.843917560     A.U. after   12 cycles
 SCF Done:  E(RB3LYP) =  -495.843939045     A.U. after   11 cycles
 SCF Done:  E(RB3LYP) =  -495.843948354     A.U. after   11 cycles
 SCF Done:  E(RB3LYP) =  -495.843951164     A.U. after    9 cycles
 SCF Done:  E(RB3LYP) =  -495.843954217     A.U. after    9 cycles
 SCF Done:  E(RB3LYP) =  -495.843958470     A.U. after   10 cycles
 SCF Done:  E(RB3LYP) =  -495.843966695     A.U. after   11 cycles
 SCF Done:  E(RB3LYP) =  -495.843970688     A.U. after   10 cycles
 SCF Done:  E(RB3LYP) =  -495.843972158     A.U. after   10 cycles
 SCF Done:  E(RB3LYP) =  -495.843972527     A.U. after   10 cycles
 SCF Done:  E(RB3LYP) =  -495.843973024     A.U. after    9 cycles
 Optimization completed on the basis of negligible forces.
    -- Stationary point found.

                         Standard orientation:
 ---------------------------------------------------------------------
 Center     Atomic      Atomic             Coordinates (Angstroms)
 Number     Number       Type             X           Y           Z
 ---------------------------------------------------------------------
      1          1           0       -4.015355   -1.504653   -0.165201
      2          6           0       -3.082280   -1.403435    0.392546
      3          1           0       -2.562495   -2.366759    0.414671
      4          1           0       -3.333341   -1.124333    1.423134
      5          6           0       -2.251297   -0.295660   -0.241791
      6          8           0       -2.760521    0.659056   -0.812258
      7          7           0       -0.886952   -0.476710   -0.152598
      8          1           0       -0.595514   -1.151186    0.547122
      9          6           0        0.065929    0.637908   -0.308545
     10          1           0        0.137112    0.871529   -1.377893
     11          6           0       -0.314914    1.909104    0.463994
     12          1           0       -0.327021    1.697452    1.536730
     13          1           0        0.430272    2.691588    0.279044
     14          1           0       -1.292816    2.268410    0.143163
     15          6           0        1.408216    0.109802    0.231030
     16          8           0        1.576052   -0.075288    1.432310
     17          7           0        2.335408   -0.203192   -0.715765
     18          1           0        2.109209   -0.028028   -1.684239
     19          6           0        3.648421   -0.733489   -0.389956
     20          1           0        3.688834   -0.859794    0.692648
     21          1           0        3.809580   -1.704125   -0.872796
     22          1           0        4.443651   -0.046311   -0.701925
 ---------------------------------------------------------------------

 The electronic state is 1-A.
 Alpha  occ. eigenvalues --  -19.12048 -19.10943 -14.37497 -14.35737 -10.29350
 Alpha  occ. eigenvalues --  -10.28555 -10.23771 -10.22644 -10.18990 -10.17136
 Alpha  occ. eigenvalues --   -1.04149  -1.02712  -0.93089  -0.91836  -0.77728
 Alpha  occ. eigenvalues --   -0.72769  -0.71447  -0.64308  -0.59324  -0.57008
 Alpha  occ. eigenvalues --   -0.53505  -0.48348  -0.47397  -0.46549  -0.45468
 Alpha  occ. eigenvalues --   -0.44475  -0.42455  -0.41043  -0.40338  -0.39888
 Alpha  occ. eigenvalues --   -0.39324  -0.38106  -0.36622  -0.36005  -0.34478
 Alpha  occ. eigenvalues --   -0.26600  -0.25990  -0.25638  -0.24244
 Alpha virt. eigenvalues --    0.01674   0.02507   0.06623   0.08494   0.11548
 Alpha virt. eigenvalues --    0.13362   0.13780   0.15115   0.15573   0.15843
 Alpha virt. eigenvalues --    0.16643   0.17028   0.18314   0.19181   0.20385

 Mulliken atomic charges:
              1
     1  H    0.186652
     2  C   -0.544429
     3  H    0.156317
     4  H    0.181610
     5  C    0.593139
     6  O   -0.501920
     7  N   -0.607099
     8  H    0.335233
     9  C    0.006216
    10  H    0.143286
    11  C   -0.464878
    12  H    0.167904
    13  H    0.141650
    14  H    0.193097
    15  C    0.568217
    16  O   -0.521464
    17  N   -0.581604
    18  H    0.331849
    19  C   -0.314884
    20  H    0.206886
    21  H    0.161690
    22  H    0.162530
 Sum of Mulliken atomic charges =   0.00000

 Dipole moment (field-independent basis, Debye):
    X=              2.6839    Y=             -1.8750    Z=             -1.3876  Tot=              3.5559
 Quadrupole moment (field-independent basis, Debye-Ang):
   XX=            -58.6189   YY=            -58.1731   ZZ=            -62.0848
   XY=              4.8549   XZ=            -11.8633   YZ=              0.1745

 Normal termination of Gaussian 09 at Fri Feb 10 20:44:39 2017.
