 Gaussian 09, Revision A.02,
 Gaussian 09:  EM64L-G09RevA.02 11-Jun-2009

 ----------------------------------------------------------------------
 # b3lyp/6-31G* Opt=(ModRedundant, maxcycles=1000, calcfc) geom=nocrowd
 ----------------------------------------------------------------------

 ------------------
 Phi Psi fixed scan
 ------------------
 Symbolic Z-matrix:
 Charge =  0 Multiplicity = 1

 SCF Done:  E(RB3LYP) =  -495.832683630     A.U. after   15 cycles

  Exact polarizability:   0.000   0.000   0.000   0.000   0.000   0.000
 Approx polarizability: 118.721  -5.253 118.929  10.288   8.400  97.922

 SCF Done:  E(RB3LYP) =  -495.836836437     A.U. after   12 cycles
 SCF Done:  E(RB3LYP) =  -495.841350239     A.U. after   13 cycles
 SCF Done:  E(RB3LYP) =  -495.842160784     A.U. after   16 cycles
 SCF Done:  E(RB3LYP) =  -495.835771637     A.U. after   16 cycles
 SCF Done:  E(RB3LYP) =  -495.842262110     A.U. after   16 cycles
 SCF Done:  E(RB3LYP) =  -495.842418848     A.U. after   12 cycles
 SCF Done:  E(RB3LYP) =  -495.840001806     A.U. after   16 cycles
 SCF Done:  E(RB3LYP) =  -495.842543898     A.U. after   16 cycles
 SCF Done:  E(RB3LYP) =  -495.842641959     A.U. after   12 cycles
 SCF Done:  E(RB3LYP) =  -495.842676962     A.U. after   10 cycles
 SCF Done:  E(RB3LYP) =  -495.842695855     A.U. after   11 cycles
 SCF Done:  E(RB3LYP) =  -495.842709389     A.U. after   11 cycles
 SCF Done:  E(RB3LYP) =  -495.842711456     A.U. after    8 cycles
 SCF Done:  E(RB3LYP) =  -495.842720136     A.U. after   10 cycles
 SCF Done:  E(RB3LYP) =  -495.842731361     A.U. after   11 cycles
 SCF Done:  E(RB3LYP) =  -495.842733128     A.U. after   15 cycles
 SCF Done:  E(RB3LYP) =  -495.842733227     A.U. after    8 cycles
 SCF Done:  E(RB3LYP) =  -495.842733212     A.U. after    7 cycles
 Optimization completed.
    -- Stationary point found.

                         Standard orientation:
 ---------------------------------------------------------------------
 Center     Atomic      Atomic             Coordinates (Angstroms)
 Number     Number       Type             X           Y           Z
 ---------------------------------------------------------------------
      1          1           0       -3.626715   -1.695370    0.614450
      2          6           0       -2.985317   -1.518082   -0.252571
      3          1           0       -3.638641   -1.397869   -1.123842
      4          1           0       -2.346034   -2.392492   -0.411717
      5          6           0       -2.216687   -0.219460   -0.027555
      6          8           0       -2.770530    0.780887    0.404197
      7          7           0       -0.881427   -0.285740   -0.354844
      8          1           0       -0.592286   -1.105397   -0.872310
      9          6           0        0.069552    0.835382   -0.381782
     10          1           0       -0.050365    1.412006   -1.306740
     11          6           0       -0.057103    1.788900    0.818807
     12          1           0        0.042435    1.245221    1.764618
     13          1           0        0.746143    2.530361    0.757823
     14          1           0       -1.023150    2.290865    0.813851
     15          6           0        1.507791    0.284320   -0.426758
     16          8           0        2.356274    0.779835   -1.156503
     17          7           0        1.756580   -0.741229    0.440855
     18          1           0        1.001231   -1.041827    1.041556
     19          6           0        3.081302   -1.306078    0.627352
     20          1           0        3.723944   -0.894042   -0.151914
     21          1           0        3.497202   -1.040418    1.607148
     22          1           0        3.056991   -2.397918    0.538479
 ---------------------------------------------------------------------

 The electronic state is 1-A.
 Alpha  occ. eigenvalues --  -19.11495 -19.11446 -14.36971 -14.36842 -10.29476
 Alpha  occ. eigenvalues --  -10.28883 -10.23917 -10.22378 -10.19767 -10.18016
 Alpha  occ. eigenvalues --   -1.03734  -1.03205  -0.93608  -0.91774  -0.78394
 Alpha  occ. eigenvalues --   -0.73196  -0.71285  -0.65026  -0.58924  -0.57364
 Alpha  occ. eigenvalues --   -0.53991  -0.50603  -0.47423  -0.45809  -0.45332
 Alpha  occ. eigenvalues --   -0.44229  -0.42931  -0.41437  -0.40795  -0.39975
 Alpha  occ. eigenvalues --   -0.39285  -0.38221  -0.37650  -0.36133  -0.35209
 Alpha  occ. eigenvalues --   -0.26517  -0.25911  -0.25781  -0.24280
 Alpha virt. eigenvalues --    0.01675   0.02434   0.06370   0.08869   0.11740
 Alpha virt. eigenvalues --    0.12466   0.13508   0.14778   0.15303   0.15969
 Alpha virt. eigenvalues --    0.16294   0.17417   0.17760   0.18364   0.19996

 Mulliken atomic charges:
              1
     1  H    0.189016
     2  C   -0.540263
     3  H    0.187343
     4  H    0.143596
     5  C    0.596737
     6  O   -0.497500
     7  N   -0.636384
     8  H    0.327628
     9  C   -0.000948
    10  H    0.173998
    11  C   -0.455936
    12  H    0.139498
    13  H    0.162326
    14  H    0.205326
    15  C    0.556761
    16  O   -0.513847
    17  N   -0.580037
    18  H    0.330188
    19  C   -0.309873
    20  H    0.205274
    21  H    0.161708
    22  H    0.155390
 Sum of Mulliken atomic charges =   0.00000

 Dipole moment (field-independent basis, Debye):
    X=              0.2935    Y=             -4.1038    Z=              1.0612  Tot=              4.2489
 Quadrupole moment (field-independent basis, Debye-Ang):
   XX=            -68.5536   YY=            -57.3436   ZZ=            -60.3233
   XY=              1.1729   XZ=              9.1480   YZ=              0.7055

 Normal termination of Gaussian 09 at Fri Feb 10 21:03:24 2017.
