 Gaussian 09, Revision A.02,
 Gaussian 09:  EM64L-G09RevA.02 11-Jun-2009

 ----------------------------------------------------------------------
 # b3lyp/6-31G* Opt=(ModRedundant, maxcycles=1000, calcfc) geom=nocrowd
 ----------------------------------------------------------------------

 ------------------
 Phi Psi fixed scan
 ------------------
 Symbolic Z-matrix:
 Charge =  0 Multiplicity = 1

 SCF Done:  E(RB3LYP) =  -495.836340149     A.U. after   14 cycles

  Exact polarizability:   0.000   0.000   0.000   0.000   0.000   0.000
 Approx polarizability: 120.222  -5.794 113.314  -7.037 -13.754 101.506

 SCF Done:  E(RB3LYP) =  -495.840325439     A.U. after   12 cycles
 SCF Done:  E(RB3LYP) =  -495.844861792     A.U. after   12 cycles
 SCF Done:  E(RB3LYP) =  -495.846410190     A.U. after   13 cycles
 SCF Done:  E(RB3LYP) =  -495.845406460     A.U. after   13 cycles
 SCF Done:  E(RB3LYP) =  -495.846845783     A.U. after   12 cycles
 SCF Done:  E(RB3LYP) =  -495.830464319     A.U. after   13 cycles
 SCF Done:  E(RB3LYP) =  -495.846907310     A.U. after   15 cycles
 SCF Done:  E(RB3LYP) =  -495.847370387     A.U. after   12 cycles
 SCF Done:  E(RB3LYP) =  -495.847711381     A.U. after   12 cycles
 SCF Done:  E(RB3LYP) =  -495.847875165     A.U. after   13 cycles
 SCF Done:  E(RB3LYP) =  -495.847903827     A.U. after   11 cycles
 SCF Done:  E(RB3LYP) =  -495.847907339     A.U. after   10 cycles
 SCF Done:  E(RB3LYP) =  -495.847909107     A.U. after   10 cycles
 SCF Done:  E(RB3LYP) =  -495.847910084     A.U. after    7 cycles
 SCF Done:  E(RB3LYP) =  -495.847912251     A.U. after    9 cycles
 SCF Done:  E(RB3LYP) =  -495.847923706     A.U. after   10 cycles
 SCF Done:  E(RB3LYP) =  -495.847935221     A.U. after   11 cycles
 SCF Done:  E(RB3LYP) =  -495.847936342     A.U. after    9 cycles
 SCF Done:  E(RB3LYP) =  -495.847936396     A.U. after    7 cycles
 Optimization completed.
    -- Stationary point found.

                         Standard orientation:
 ---------------------------------------------------------------------
 Center     Atomic      Atomic             Coordinates (Angstroms)
 Number     Number       Type             X           Y           Z
 ---------------------------------------------------------------------
      1          1           0       -4.152323   -1.167689   -0.536057
      2          6           0       -3.231338   -1.283429    0.039360
      3          1           0       -2.779454   -2.254843   -0.184692
      4          1           0       -3.496219   -1.262775    1.103348
      5          6           0       -2.309920   -0.110970   -0.270742
      6          8           0       -2.740173    1.010678   -0.510435
      7          7           0       -0.971483   -0.421563   -0.290732
      8          1           0       -0.703335   -1.293065    0.156629
      9          6           0        0.078877    0.593172   -0.192422
     10          1           0        0.159673    1.109619   -1.157050
     11          6           0       -0.153490    1.635604    0.919990
     12          1           0       -0.195099    1.135541    1.892846
     13          1           0        0.671884    2.356866    0.936833
     14          1           0       -1.088942    2.166969    0.742723
     15          6           0        1.372527   -0.170910    0.130302
     16          8           0        1.380319   -1.064707    0.973157
     17          7           0        2.467290    0.199980   -0.585540
     18          1           0        2.366840    0.938842   -1.266812
     19          6           0        3.787729   -0.362987   -0.356850
     20          1           0        3.678618   -1.162402    0.376932
     21          1           0        4.198495   -0.777477   -1.284006
     22          1           0        4.481735    0.390837    0.033610
 ---------------------------------------------------------------------

 The electronic state is 1-A.
 Alpha  occ. eigenvalues --  -19.12342 -19.10446 -14.37699 -14.35126 -10.29587
 Alpha  occ. eigenvalues --  -10.28142 -10.23838 -10.22779 -10.18592 -10.17797
 Alpha  occ. eigenvalues --   -1.04420  -1.02250  -0.93314  -0.91551  -0.77855
 Alpha  occ. eigenvalues --   -0.72720  -0.71314  -0.64604  -0.59718  -0.56657
 Alpha  occ. eigenvalues --   -0.53566  -0.48478  -0.47344  -0.46380  -0.45302
 Alpha  occ. eigenvalues --   -0.44310  -0.42847  -0.41020  -0.40430  -0.40052
 Alpha  occ. eigenvalues --   -0.38975  -0.38294  -0.36677  -0.36361  -0.34287
 Alpha  occ. eigenvalues --   -0.26603  -0.26547  -0.25145  -0.23897
 Alpha virt. eigenvalues --    0.01639   0.03055   0.06429   0.09542   0.11479
 Alpha virt. eigenvalues --    0.13676   0.13901   0.14876   0.15776   0.15922
 Alpha virt. eigenvalues --    0.16235   0.16965   0.18467   0.19023   0.19971

 Mulliken atomic charges:
              1
     1  H    0.184438
     2  C   -0.541451
     3  H    0.156030
     4  H    0.180011
     5  C    0.591981
     6  O   -0.510230
     7  N   -0.607655
     8  H    0.341559
     9  C    0.001907
    10  H    0.146435
    11  C   -0.463328
    12  H    0.162537
    13  H    0.137587
    14  H    0.202273
    15  C    0.584117
    16  O   -0.530568
    17  N   -0.585959
    18  H    0.331263
    19  C   -0.314364
    20  H    0.207679
    21  H    0.162813
    22  H    0.162926
 Sum of Mulliken atomic charges =   0.00000

 Dipole moment (field-independent basis, Debye):
    X=              3.2694    Y=             -0.2551    Z=             -1.1034  Tot=              3.4600
 Quadrupole moment (field-independent basis, Debye-Ang):
   XX=            -55.7637   YY=            -60.7547   ZZ=            -60.8047
   XY=             10.8037   XZ=             -7.8205   YZ=              1.4253

 Normal termination of Gaussian 09 at Fri Feb 10 20:48:12 2017.
