 Gaussian 09, Revision A.02,
 Gaussian 09:  EM64L-G09RevA.02 11-Jun-2009

 ----------------------------------------------------------------------
 # b3lyp/6-31G* Opt=(ModRedundant, maxcycles=1000, calcfc) geom=nocrowd
 ----------------------------------------------------------------------

 ------------------
 Phi Psi fixed scan
 ------------------
 Symbolic Z-matrix:
 Charge =  0 Multiplicity = 1

 SCF Done:  E(RB3LYP) =  -495.827185186     A.U. after   15 cycles

  Exact polarizability:   0.000   0.000   0.000   0.000   0.000   0.000
 Approx polarizability: 116.415  -8.137 120.340   3.629   8.053  99.938

 SCF Done:  E(RB3LYP) =  -495.833049224     A.U. after   12 cycles
 SCF Done:  E(RB3LYP) =  -495.839523011     A.U. after   16 cycles
 SCF Done:  E(RB3LYP) =  -495.840827218     A.U. after   12 cycles
 SCF Done:  E(RB3LYP) =  -495.841132390     A.U. after   12 cycles
 SCF Done:  E(RB3LYP) =  -495.840055808     A.U. after   13 cycles
 SCF Done:  E(RB3LYP) =  -495.841223965     A.U. after   13 cycles
 SCF Done:  E(RB3LYP) =  -495.841428147     A.U. after   12 cycles
 SCF Done:  E(RB3LYP) =  -495.840008163     A.U. after   13 cycles
 SCF Done:  E(RB3LYP) =  -495.841532899     A.U. after   13 cycles
 SCF Done:  E(RB3LYP) =  -495.841565740     A.U. after   10 cycles
 SCF Done:  E(RB3LYP) =  -495.841589809     A.U. after   10 cycles
 SCF Done:  E(RB3LYP) =  -495.841623891     A.U. after   11 cycles
 SCF Done:  E(RB3LYP) =  -495.841665006     A.U. after   11 cycles
 SCF Done:  E(RB3LYP) =  -495.841694672     A.U. after   11 cycles
 SCF Done:  E(RB3LYP) =  -495.841704675     A.U. after   11 cycles
 SCF Done:  E(RB3LYP) =  -495.841708181     A.U. after   10 cycles
 SCF Done:  E(RB3LYP) =  -495.841709088     A.U. after    9 cycles
 SCF Done:  E(RB3LYP) =  -495.841709503     A.U. after    9 cycles
 SCF Done:  E(RB3LYP) =  -495.841709604     A.U. after    7 cycles
 Optimization completed.
    -- Stationary point found.

                         Standard orientation:
 ---------------------------------------------------------------------
 Center     Atomic      Atomic             Coordinates (Angstroms)
 Number     Number       Type             X           Y           Z
 ---------------------------------------------------------------------
      1          1           0        3.564568   -1.154038   -1.495799
      2          6           0        3.058655   -1.373745   -0.551425
      3          1           0        3.834734   -1.551645    0.200422
      4          1           0        2.462753   -2.284054   -0.668776
      5          6           0        2.248967   -0.147946   -0.140098
      6          8           0        2.758525    0.965322   -0.102442
      7          7           0        0.940124   -0.414096    0.165897
      8          1           0        0.679940   -1.384767    0.287753
      9          6           0       -0.055151    0.529636    0.694934
     10          1           0        0.057215    0.611569    1.784936
     11          6           0        0.041731    1.930480    0.081143
     12          1           0        0.031788    1.892469   -1.014709
     13          1           0       -0.799189    2.541532    0.429140
     14          1           0        0.976390    2.408182    0.369247
     15          6           0       -1.407330   -0.190278    0.479818
     16          8           0       -1.673804   -1.179739    1.157813
     17          7           0       -2.194332    0.255869   -0.534058
     18          1           0       -1.906888    1.076292   -1.045615
     19          6           0       -3.461734   -0.368493   -0.873626
     20          1           0       -3.596946   -1.218724   -0.204224
     21          1           0       -4.295735    0.330702   -0.741678
     22          1           0       -3.457773   -0.722510   -1.911014
 ---------------------------------------------------------------------

 The electronic state is 1-A.
 Alpha  occ. eigenvalues --  -19.11718 -19.10512 -14.37239 -14.36024 -10.29194
 Alpha  occ. eigenvalues --  -10.28626 -10.24067 -10.22508 -10.18928 -10.18540
 Alpha  occ. eigenvalues --   -1.03893  -1.02409  -0.92940  -0.91991  -0.78298
 Alpha  occ. eigenvalues --   -0.72814  -0.71026  -0.65727  -0.59359  -0.56719
 Alpha  occ. eigenvalues --   -0.53611  -0.50493  -0.47123  -0.45525  -0.45301
 Alpha  occ. eigenvalues --   -0.44267  -0.42487  -0.41431  -0.40361  -0.39714
 Alpha  occ. eigenvalues --   -0.38696  -0.38622  -0.37956  -0.36775  -0.34814
 Alpha  occ. eigenvalues --   -0.26542  -0.25912  -0.24971  -0.23868
 Alpha virt. eigenvalues --    0.01574   0.03239   0.07380   0.08699   0.11288
 Alpha virt. eigenvalues --    0.13072   0.13826   0.14781   0.15554   0.15808
 Alpha virt. eigenvalues --    0.16514   0.17206   0.18246   0.18501   0.19621

 Mulliken atomic charges:
              1
     1  H    0.184747
     2  C   -0.536390
     3  H    0.184178
     4  H    0.147437
     5  C    0.596828
     6  O   -0.511736
     7  N   -0.617881
     8  H    0.340499
     9  C    0.024109
    10  H    0.169825
    11  C   -0.485543
    12  H    0.147279
    13  H    0.144117
    14  H    0.210544
    15  C    0.558797
    16  O   -0.525232
    17  N   -0.583091
    18  H    0.336740
    19  C   -0.314390
    20  H    0.206757
    21  H    0.161412
    22  H    0.160996
 Sum of Mulliken atomic charges =   0.00000

 Dipole moment (field-independent basis, Debye):
    X=             -2.2247    Y=             -0.1314    Z=             -2.1074  Tot=              3.0672
 Quadrupole moment (field-independent basis, Debye-Ang):
   XX=            -60.9924   YY=            -60.2215   ZZ=            -60.0944
   XY=            -11.5336   XZ=              5.7487   YZ=              2.6023

 Normal termination of Gaussian 09 at Fri Feb 10 20:53:01 2017.
