 Gaussian 09, Revision A.02,
 Gaussian 09:  EM64L-G09RevA.02 11-Jun-2009

 ----------------------------------------------------------------------
 # b3lyp/6-31G* Opt=(ModRedundant, maxcycles=1000, calcfc) geom=nocrowd
 ----------------------------------------------------------------------

 ------------------
 Phi Psi fixed scan
 ------------------
 Symbolic Z-matrix:
 Charge =  0 Multiplicity = 1

 SCF Done:  E(RB3LYP) =  -495.838905927     A.U. after   14 cycles

  Exact polarizability:   0.000   0.000   0.000   0.000   0.000   0.000
 Approx polarizability: 120.935   1.093 130.608  -2.723  -8.553  82.511

 SCF Done:  E(RB3LYP) =  -495.843378641     A.U. after   12 cycles
 SCF Done:  E(RB3LYP) =  -495.848013650     A.U. after   13 cycles
 SCF Done:  E(RB3LYP) =  -495.848758450     A.U. after   13 cycles
 SCF Done:  E(RB3LYP) =  -495.845535758     A.U. after   13 cycles
 SCF Done:  E(RB3LYP) =  -495.848852320     A.U. after   12 cycles
 SCF Done:  E(RB3LYP) =  -495.848997216     A.U. after   12 cycles
 SCF Done:  E(RB3LYP) =  -495.822690557     A.U. after   13 cycles
 SCF Done:  E(RB3LYP) =  -495.849048681     A.U. after   13 cycles
 SCF Done:  E(RB3LYP) =  -495.849133572     A.U. after   12 cycles
 SCF Done:  E(RB3LYP) =  -495.849159061     A.U. after   10 cycles
 SCF Done:  E(RB3LYP) =  -495.849177911     A.U. after   10 cycles
 SCF Done:  E(RB3LYP) =  -495.849196806     A.U. after   11 cycles
 SCF Done:  E(RB3LYP) =  -495.849204367     A.U. after   10 cycles
 SCF Done:  E(RB3LYP) =  -495.849205720     A.U. after   10 cycles
 SCF Done:  E(RB3LYP) =  -495.849205848     A.U. after    7 cycles
 SCF Done:  E(RB3LYP) =  -495.849205855     A.U. after    6 cycles
 SCF Done:  E(RB3LYP) =  -495.849205866     A.U. after    6 cycles
 SCF Done:  E(RB3LYP) =  -495.849205884     A.U. after    6 cycles
 SCF Done:  E(RB3LYP) =  -495.849205891     A.U. after    6 cycles
 Optimization completed.
    -- Stationary point found.

                         Standard orientation:
 ---------------------------------------------------------------------
 Center     Atomic      Atomic             Coordinates (Angstroms)
 Number     Number       Type             X           Y           Z
 ---------------------------------------------------------------------
      1          1           0       -4.134818   -1.184666   -0.431286
      2          6           0       -3.279797   -1.199495    0.250111
      3          1           0       -2.804200   -2.184224    0.210818
      4          1           0       -3.665569   -1.035128    1.262190
      5          6           0       -2.346368   -0.050637   -0.113052
      6          8           0       -2.771240    1.087222   -0.291923
      7          7           0       -1.033883   -0.401401   -0.240664
      8          1           0       -0.736668   -1.342226   -0.000729
      9          6           0        0.082517    0.520749   -0.374055
     10          1           0        0.130401    0.902208   -1.405017
     11          6           0       -0.001189    1.719606    0.593909
     12          1           0        0.049963    1.375718    1.632585
     13          1           0        0.819450    2.425540    0.424062
     14          1           0       -0.946284    2.240270    0.440010
     15          6           0        1.353410   -0.317916   -0.099950
     16          8           0        1.287659   -1.513511    0.178689
     17          7           0        2.526634    0.362595   -0.175039
     18          1           0        2.502139    1.340141   -0.425992
     19          6           0        3.819787   -0.264136    0.043354
     20          1           0        3.638564   -1.301939    0.324109
     21          1           0        4.430446   -0.240608   -0.866887
     22          1           0        4.365813    0.237837    0.850024
 ---------------------------------------------------------------------

 The electronic state is 1-A.
 Alpha  occ. eigenvalues --  -19.12863 -19.09752 -14.37657 -14.34762 -10.29959
 Alpha  occ. eigenvalues --  -10.27810 -10.24181 -10.22872 -10.18349 -10.18258
 Alpha  occ. eigenvalues --   -1.04846  -1.01667  -0.93495  -0.91354  -0.78061
 Alpha  occ. eigenvalues --   -0.72637  -0.70990  -0.65264  -0.60067  -0.56364
 Alpha  occ. eigenvalues --   -0.53744  -0.48956  -0.47574  -0.46204  -0.45211
 Alpha  occ. eigenvalues --   -0.44181  -0.43004  -0.41177  -0.40346  -0.40195
 Alpha  occ. eigenvalues --   -0.38691  -0.38461  -0.37049  -0.36691  -0.34019
 Alpha  occ. eigenvalues --   -0.26970  -0.26715  -0.24464  -0.23546
 Alpha virt. eigenvalues --    0.01523   0.03815   0.06159   0.10258   0.11185
 Alpha virt. eigenvalues --    0.13416   0.14074   0.14654   0.15374   0.15719
 Alpha virt. eigenvalues --    0.16061   0.17969   0.18619   0.19174   0.20534

 Mulliken atomic charges:
              1
     1  H    0.182153
     2  C   -0.535286
     3  H    0.150706
     4  H    0.179472
     5  C    0.597465
     6  O   -0.521459
     7  N   -0.621329
     8  H    0.352310
     9  C   -0.013091
    10  H    0.167127
    11  C   -0.466077
    12  H    0.155080
    13  H    0.124610
    14  H    0.216033
    15  C    0.601953
    16  O   -0.529576
    17  N   -0.592308
    18  H    0.332080
    19  C   -0.313195
    20  H    0.207899
    21  H    0.162795
    22  H    0.162636
 Sum of Mulliken atomic charges =   0.00000

 Dipole moment (field-independent basis, Debye):
    X=              3.7390    Y=              0.3950    Z=              0.0609  Tot=              3.7603
 Quadrupole moment (field-independent basis, Debye-Ang):
   XX=            -55.7463   YY=            -62.5506   ZZ=            -59.6081
   XY=             12.5643   XZ=             -3.3352   YZ=              0.1281

 Normal termination of Gaussian 09 at Fri Feb 10 20:55:03 2017.
