 Gaussian 09, Revision A.02,
 Gaussian 09:  EM64L-G09RevA.02 11-Jun-2009

 ----------------------------------------------------------------------
 # b3lyp/6-31G* Opt=(ModRedundant, maxcycles=1000, calcfc) geom=nocrowd
 ----------------------------------------------------------------------

 ------------------
 Phi Psi fixed scan
 ------------------
 Symbolic Z-matrix:
 Charge =  0 Multiplicity = 1

 SCF Done:  E(RB3LYP) =  -495.833134722     A.U. after   14 cycles

  Exact polarizability:   0.000   0.000   0.000   0.000   0.000   0.000
 Approx polarizability: 121.129   0.404 132.259   1.994  -1.746  82.404

 SCF Done:  E(RB3LYP) =  -495.839192347     A.U. after   12 cycles
 SCF Done:  E(RB3LYP) =  -495.845436000     A.U. after   13 cycles
 SCF Done:  E(RB3LYP) =  -495.846272218     A.U. after   13 cycles
 SCF Done:  E(RB3LYP) =  -495.845448735     A.U. after   13 cycles
 SCF Done:  E(RB3LYP) =  -495.846490284     A.U. after   12 cycles
 SCF Done:  E(RB3LYP) =  -495.846473173     A.U. after   11 cycles
 SCF Done:  E(RB3LYP) =  -495.846643613     A.U. after   11 cycles
 SCF Done:  E(RB3LYP) =  -495.846692698     A.U. after   11 cycles
 SCF Done:  E(RB3LYP) =  -495.846725226     A.U. after   10 cycles
 SCF Done:  E(RB3LYP) =  -495.846779823     A.U. after   11 cycles
 SCF Done:  E(RB3LYP) =  -495.846822139     A.U. after   11 cycles
 SCF Done:  E(RB3LYP) =  -495.846854487     A.U. after   11 cycles
 SCF Done:  E(RB3LYP) =  -495.846871762     A.U. after   11 cycles
 SCF Done:  E(RB3LYP) =  -495.846877356     A.U. after   10 cycles
 SCF Done:  E(RB3LYP) =  -495.846880058     A.U. after   10 cycles
 SCF Done:  E(RB3LYP) =  -495.846881163     A.U. after    9 cycles
 SCF Done:  E(RB3LYP) =  -495.846881608     A.U. after    8 cycles
 SCF Done:  E(RB3LYP) =  -495.846881819     A.U. after    9 cycles
 Optimization completed.
    -- Stationary point found.

                         Standard orientation:
 ---------------------------------------------------------------------
 Center     Atomic      Atomic             Coordinates (Angstroms)
 Number     Number       Type             X           Y           Z
 ---------------------------------------------------------------------
      1          1           0       -3.615481   -1.022988    1.442214
      2          6           0       -3.213066   -1.235593    0.446385
      3          1           0       -4.062241   -1.301663   -0.240129
      4          1           0       -2.696420   -2.199863    0.472953
      5          6           0       -2.329364   -0.068730    0.018149
      6          8           0       -2.795609    1.057465   -0.130100
      7          7           0       -1.020827   -0.396642   -0.180622
      8          1           0       -0.728726   -1.364952   -0.111656
      9          6           0        0.077051    0.500156   -0.527122
     10          1           0        0.064736    0.697089   -1.611835
     11          6           0        0.018184    1.847916    0.207895
     12          1           0        0.169982    1.717721    1.284992
     13          1           0        0.778368    2.535832   -0.182482
     14          1           0       -0.960355    2.300486    0.050883
     15          6           0        1.359746   -0.323590   -0.245382
     16          8           0        1.344253   -1.548460   -0.359007
     17          7           0        2.464326    0.370415    0.127043
     18          1           0        2.398346    1.371710    0.225870
     19          6           0        3.746246   -0.269163    0.374444
     20          1           0        3.602707   -1.345086    0.272138
     21          1           0        4.500853    0.063740   -0.347871
     22          1           0        4.101806   -0.046445    1.386623
 ---------------------------------------------------------------------

 The electronic state is 1-A.
 Alpha  occ. eigenvalues --  -19.12431 -19.09818 -14.37642 -14.35071 -10.29800
 Alpha  occ. eigenvalues --  -10.27983 -10.24315 -10.22791 -10.18483 -10.18346
 Alpha  occ. eigenvalues --   -1.04561  -1.01723  -0.93394  -0.91477  -0.78205
 Alpha  occ. eigenvalues --   -0.72627  -0.70989  -0.65676  -0.60010  -0.56263
 Alpha  occ. eigenvalues --   -0.53791  -0.49716  -0.47393  -0.45956  -0.45341
 Alpha  occ. eigenvalues --   -0.44074  -0.42757  -0.41378  -0.40089  -0.39946
 Alpha  occ. eigenvalues --   -0.38962  -0.38412  -0.37337  -0.36988  -0.34182
 Alpha  occ. eigenvalues --   -0.26793  -0.26508  -0.24402  -0.23617
 Alpha virt. eigenvalues --    0.01501   0.03929   0.06864   0.10197   0.11179
 Alpha virt. eigenvalues --    0.13497   0.13711   0.14651   0.15088   0.15722
 Alpha virt. eigenvalues --    0.15873   0.18191   0.18353   0.19178   0.20337

 Mulliken atomic charges:
              1
     1  H    0.180803
     2  C   -0.533789
     3  H    0.181992
     4  H    0.148868
     5  C    0.600658
     6  O   -0.521157
     7  N   -0.623969
     8  H    0.351351
     9  C    0.006303
    10  H    0.174255
    11  C   -0.493989
    12  H    0.153938
    13  H    0.129826
    14  H    0.223799
    15  C    0.591973
    16  O   -0.532060
    17  N   -0.594472
    18  H    0.336334
    19  C   -0.314509
    20  H    0.208325
    21  H    0.162908
    22  H    0.162611
 Sum of Mulliken atomic charges =   0.00000

 Dipole moment (field-independent basis, Debye):
    X=              3.5422    Y=              0.5012    Z=              0.8516  Tot=              3.6774
 Quadrupole moment (field-independent basis, Debye-Ang):
   XX=            -57.0564   YY=            -62.4405   ZZ=            -59.3097
   XY=             12.7401   XZ=              0.2559   YZ=             -1.0264

 Normal termination of Gaussian 09 at Fri Feb 10 20:50:40 2017.
