 Gaussian 09, Revision A.02,
 Gaussian 09:  EM64L-G09RevA.02 11-Jun-2009

 ----------------------------------------------------------------------
 # b3lyp/6-31G* Opt=(ModRedundant, maxcycles=1000, calcfc) geom=nocrowd
 ----------------------------------------------------------------------

 ------------------
 Phi Psi fixed scan
 ------------------
 Symbolic Z-matrix:
 Charge =  0 Multiplicity = 1

 SCF Done:  E(RB3LYP) =  -495.820327716     A.U. after   15 cycles

  Exact polarizability:   0.000   0.000   0.000   0.000   0.000   0.000
 Approx polarizability: 120.872  -3.720 133.499   1.211  -2.167  80.663

 SCF Done:  E(RB3LYP) =  -495.826310487     A.U. after   12 cycles
 SCF Done:  E(RB3LYP) =  -495.834170164     A.U. after   13 cycles
 SCF Done:  E(RB3LYP) =  -495.811065599     A.U. after   14 cycles
 SCF Done:  E(RB3LYP) =  -495.826486861     A.U. after   12 cycles
 SCF Done:  E(RB3LYP) =  -495.834842661     A.U. after   12 cycles
 SCF Done:  E(RB3LYP) =  -495.836573295     A.U. after   12 cycles
 SCF Done:  E(RB3LYP) =  -495.838668949     A.U. after   12 cycles
 SCF Done:  E(RB3LYP) =  -495.838653712     A.U. after   13 cycles
 SCF Done:  E(RB3LYP) =  -495.839139188     A.U. after   12 cycles
 SCF Done:  E(RB3LYP) =  -495.840096927     A.U. after   12 cycles
 SCF Done:  E(RB3LYP) =  -495.840111739     A.U. after   11 cycles
 SCF Done:  E(RB3LYP) =  -495.840119985     A.U. after   10 cycles
 SCF Done:  E(RB3LYP) =  -495.840136761     A.U. after   11 cycles
 SCF Done:  E(RB3LYP) =  -495.840146634     A.U. after   10 cycles
 SCF Done:  E(RB3LYP) =  -495.840160032     A.U. after   10 cycles
 SCF Done:  E(RB3LYP) =  -495.840163090     A.U. after   10 cycles
 SCF Done:  E(RB3LYP) =  -495.840163632     A.U. after    9 cycles
 SCF Done:  E(RB3LYP) =  -495.840163692     A.U. after    7 cycles
 SCF Done:  E(RB3LYP) =  -495.840163704     A.U. after    7 cycles
 Optimization completed.
    -- Stationary point found.

                         Standard orientation:
 ---------------------------------------------------------------------
 Center     Atomic      Atomic             Coordinates (Angstroms)
 Number     Number       Type             X           Y           Z
 ---------------------------------------------------------------------
      1          1           0       -3.900038   -1.595881    0.139153
      2          6           0       -2.881957   -1.512269    0.523431
      3          1           0       -2.347524   -2.452848    0.353203
      4          1           0       -2.940699   -1.342632    1.605821
      5          6           0       -2.203488   -0.322169   -0.142973
      6          8           0       -2.831779    0.628346   -0.579719
      7          7           0       -0.823289   -0.432715   -0.249475
      8          1           0       -0.447542   -1.104944    0.412792
      9          6           0        0.039426    0.763145   -0.372602
     10          1           0       -0.022174    1.107665   -1.412884
     11          6           0       -0.356182    1.926354    0.550358
     12          1           0       -0.341271    1.606060    1.598906
     13          1           0        0.368345    2.734470    0.434316
     14          1           0       -1.355749    2.281624    0.300497
     15          6           0        1.513560    0.394481   -0.099152
     16          8           0        2.342147    1.252337    0.166912
     17          7           0        1.825049   -0.945385   -0.116060
     18          1           0        1.219611   -1.544018   -0.664144
     19          6           0        3.214966   -1.363419    0.022153
     20          1           0        3.666118   -0.807079    0.844967
     21          1           0        3.245966   -2.433005    0.245293
     22          1           0        3.801742   -1.164909   -0.884004
 ---------------------------------------------------------------------

 The electronic state is 1-A.
 Alpha  occ. eigenvalues --  -19.12140 -19.11955 -14.37213 -14.36509 -10.29436
 Alpha  occ. eigenvalues --  -10.29429 -10.23972 -10.22593 -10.19811 -10.17102
 Alpha  occ. eigenvalues --   -1.04313  -1.03649  -0.93827  -0.91705  -0.77875
 Alpha  occ. eigenvalues --   -0.72998  -0.71613  -0.64284  -0.59060  -0.57367
 Alpha  occ. eigenvalues --   -0.53948  -0.48162  -0.47882  -0.47016  -0.45441
 Alpha  occ. eigenvalues --   -0.44568  -0.42725  -0.41649  -0.40486  -0.40275
 Alpha  occ. eigenvalues --   -0.39721  -0.38339  -0.36687  -0.36028  -0.34700
 Alpha  occ. eigenvalues --   -0.27374  -0.26849  -0.25647  -0.24856
 Alpha virt. eigenvalues --    0.00874   0.01912   0.06421   0.09527   0.12174
 Alpha virt. eigenvalues --    0.12622   0.13112   0.14139   0.14631   0.15140
 Alpha virt. eigenvalues --    0.16825   0.17456   0.17721   0.18560   0.20287

 Mulliken atomic charges:
              1
     1  H    0.191477
     2  C   -0.547582
     3  H    0.156006
     4  H    0.180101
     5  C    0.593528
     6  O   -0.486655
     7  N   -0.628737
     8  H    0.320330
     9  C   -0.033554
    10  H    0.188726
    11  C   -0.459114
    12  H    0.136612
    13  H    0.179157
    14  H    0.189219
    15  C    0.585019
    16  O   -0.505312
    17  N   -0.605182
    18  H    0.333852
    19  C   -0.302029
    20  H    0.195250
    21  H    0.152830
    22  H    0.166060
 Sum of Mulliken atomic charges =   0.00000

 Dipole moment (field-independent basis, Debye):
    X=              0.8845    Y=             -4.5848    Z=              0.6651  Tot=              4.7165
 Quadrupole moment (field-independent basis, Debye-Ang):
   XX=            -68.0741   YY=            -58.2169   ZZ=            -59.1941
   XY=             -2.1553   XZ=             -5.6118   YZ=             -0.1456

 Normal termination of Gaussian 09 at Fri Feb 10 20:50:17 2017.
