 Gaussian 09, Revision A.02,
 Gaussian 09:  EM64L-G09RevA.02 11-Jun-2009

 ----------------------------------------------------------------------
 # b3lyp/6-31G* Opt=(ModRedundant, maxcycles=1000, calcfc) geom=nocrowd
 ----------------------------------------------------------------------

 ------------------
 Phi Psi fixed scan
 ------------------
 Symbolic Z-matrix:
 Charge =  0 Multiplicity = 1

 SCF Done:  E(RB3LYP) =  -495.826953031     A.U. after   15 cycles

  Exact polarizability:   0.000   0.000   0.000   0.000   0.000   0.000
 Approx polarizability: 121.612  -3.352 129.641   5.493   7.052  84.901

 SCF Done:  E(RB3LYP) =  -495.832379640     A.U. after   13 cycles
 SCF Done:  E(RB3LYP) =  -495.839267952     A.U. after   15 cycles
 SCF Done:  E(RB3LYP) =  -495.840101724     A.U. after   13 cycles
 SCF Done:  E(RB3LYP) =  -495.841310348     A.U. after   13 cycles
 SCF Done:  E(RB3LYP) =  -495.841687924     A.U. after   12 cycles
 SCF Done:  E(RB3LYP) =  -495.831714885     A.U. after   15 cycles
 SCF Done:  E(RB3LYP) =  -495.841816005     A.U. after   15 cycles
 SCF Done:  E(RB3LYP) =  -495.841903228     A.U. after   12 cycles
 SCF Done:  E(RB3LYP) =  -495.840967849     A.U. after   13 cycles
 SCF Done:  E(RB3LYP) =  -495.842041803     A.U. after   12 cycles
 SCF Done:  E(RB3LYP) =  -495.842090078     A.U. after   10 cycles
 SCF Done:  E(RB3LYP) =  -495.842091972     A.U. after   11 cycles
 SCF Done:  E(RB3LYP) =  -495.842091514     A.U. after   14 cycles
 SCF Done:  E(RB3LYP) =  -495.842146760     A.U. after   11 cycles
 SCF Done:  E(RB3LYP) =  -495.842156244     A.U. after   11 cycles
 SCF Done:  E(RB3LYP) =  -495.842157882     A.U. after   10 cycles
 SCF Done:  E(RB3LYP) =  -495.842158464     A.U. after    8 cycles
 SCF Done:  E(RB3LYP) =  -495.842158446     A.U. after    8 cycles
 SCF Done:  E(RB3LYP) =  -495.842158497     A.U. after    7 cycles
 Optimization completed.
    -- Stationary point found.

                         Standard orientation:
 ---------------------------------------------------------------------
 Center     Atomic      Atomic             Coordinates (Angstroms)
 Number     Number       Type             X           Y           Z
 ---------------------------------------------------------------------
      1          1           0       -3.547783   -1.517427   -1.109326
      2          6           0       -2.968377   -1.551515   -0.179695
      3          1           0       -2.317948   -2.431805   -0.204182
      4          1           0       -3.678486   -1.651819    0.644718
      5          6           0       -2.217855   -0.233284   -0.013115
      6          8           0       -2.796457    0.789180    0.318004
      7          7           0       -0.861392   -0.321975   -0.262153
      8          1           0       -0.584305   -1.148476   -0.778382
      9          6           0        0.071274    0.805874   -0.407100
     10          1           0       -0.022529    1.252837   -1.405817
     11          6           0       -0.129106    1.911169    0.644844
     12          1           0       -0.066961    1.495052    1.656651
     13          1           0        0.670042    2.646329    0.517305
     14          1           0       -1.100563    2.388307    0.531221
     15          6           0        1.533161    0.326935   -0.305022
     16          8           0        2.443863    1.045065   -0.694540
     17          7           0        1.729632   -0.928783    0.203939
     18          1           0        0.960835   -1.331124    0.724481
     19          6           0        3.072420   -1.422598    0.470184
     20          1           0        3.740439   -1.015319   -0.289814
     21          1           0        3.441817   -1.109659    1.455607
     22          1           0        3.079413   -2.515034    0.416749
 ---------------------------------------------------------------------

 The electronic state is 1-A.
 Alpha  occ. eigenvalues --  -19.11763 -19.11491 -14.37027 -14.36866 -10.29696
 Alpha  occ. eigenvalues --  -10.28908 -10.24017 -10.22372 -10.19900 -10.17529
 Alpha  occ. eigenvalues --   -1.03899  -1.03393  -0.93810  -0.91730  -0.78258
 Alpha  occ. eigenvalues --   -0.73143  -0.71377  -0.64657  -0.58985  -0.56858
 Alpha  occ. eigenvalues --   -0.54119  -0.50737  -0.47536  -0.45854  -0.45545
 Alpha  occ. eigenvalues --   -0.44527  -0.42707  -0.41418  -0.40736  -0.39770
 Alpha  occ. eigenvalues --   -0.39539  -0.37777  -0.37281  -0.35968  -0.34989
 Alpha  occ. eigenvalues --   -0.27178  -0.26194  -0.25889  -0.24257
 Alpha virt. eigenvalues --    0.01457   0.02265   0.05938   0.09714   0.12355
 Alpha virt. eigenvalues --    0.12608   0.13203   0.14250   0.15171   0.15530
 Alpha virt. eigenvalues --    0.16925   0.17741   0.17920   0.18466   0.19949

 Mulliken atomic charges:
              1
     1  H    0.186188
     2  C   -0.541934
     3  H    0.144118
     4  H    0.191058
     5  C    0.595565
     6  O   -0.489715
     7  N   -0.643118
     8  H    0.325231
     9  C   -0.006746
    10  H    0.174089
    11  C   -0.455029
    12  H    0.142687
    13  H    0.170981
    14  H    0.199802
    15  C    0.576662
    16  O   -0.516628
    17  N   -0.595716
    18  H    0.331356
    19  C   -0.305527
    20  H    0.199532
    21  H    0.163625
    22  H    0.153519
 Sum of Mulliken atomic charges =   0.00000

 Dipole moment (field-independent basis, Debye):
    X=              0.0801    Y=             -4.6114    Z=              0.3251  Tot=              4.6236
 Quadrupole moment (field-independent basis, Debye-Ang):
   XX=            -69.3654   YY=            -57.9361   ZZ=            -58.8914
   XY=             -0.2034   XZ=              6.6118   YZ=              0.2524

 Normal termination of Gaussian 09 at Fri Feb 10 20:59:01 2017.
