 Gaussian 09, Revision A.02,
 Gaussian 09:  EM64L-G09RevA.02 11-Jun-2009

 ----------------------------------------------------------------------
 # b3lyp/6-31G* Opt=(ModRedundant, maxcycles=1000, calcfc) geom=nocrowd
 ----------------------------------------------------------------------

 ------------------
 Phi Psi fixed scan
 ------------------
 Symbolic Z-matrix:
 Charge =  0 Multiplicity = 1

 SCF Done:  E(RB3LYP) =  -495.831607639     A.U. after   15 cycles

  Exact polarizability:   0.000   0.000   0.000   0.000   0.000   0.000
 Approx polarizability: 120.552  -3.939 124.879   8.350   8.310  90.601

 SCF Done:  E(RB3LYP) =  -495.835898350     A.U. after   12 cycles
 SCF Done:  E(RB3LYP) =  -495.840861442     A.U. after   13 cycles
 SCF Done:  E(RB3LYP) =  -495.842262991     A.U. after   15 cycles
 SCF Done:  E(RB3LYP) =  -495.840884995     A.U. after   15 cycles
 SCF Done:  E(RB3LYP) =  -495.842512302     A.U. after   15 cycles
 SCF Done:  E(RB3LYP) =  -495.842774718     A.U. after   12 cycles
 SCF Done:  E(RB3LYP) =  -495.841009479     A.U. after   15 cycles
 SCF Done:  E(RB3LYP) =  -495.842986935     A.U. after   15 cycles
 SCF Done:  E(RB3LYP) =  -495.843024079     A.U. after   12 cycles
 SCF Done:  E(RB3LYP) =  -495.843034562     A.U. after   11 cycles
 SCF Done:  E(RB3LYP) =  -495.843042138     A.U. after   10 cycles
 SCF Done:  E(RB3LYP) =  -495.843046464     A.U. after   10 cycles
 SCF Done:  E(RB3LYP) =  -495.843052668     A.U. after   10 cycles
 SCF Done:  E(RB3LYP) =  -495.843061774     A.U. after   10 cycles
 SCF Done:  E(RB3LYP) =  -495.843073415     A.U. after   11 cycles
 SCF Done:  E(RB3LYP) =  -495.843079278     A.U. after   11 cycles
 SCF Done:  E(RB3LYP) =  -495.843080106     A.U. after   10 cycles
 SCF Done:  E(RB3LYP) =  -495.843080213     A.U. after    7 cycles
 SCF Done:  E(RB3LYP) =  -495.843080222     A.U. after    7 cycles
 Optimization completed.
    -- Stationary point found.

                         Standard orientation:
 ---------------------------------------------------------------------
 Center     Atomic      Atomic             Coordinates (Angstroms)
 Number     Number       Type             X           Y           Z
 ---------------------------------------------------------------------
      1          1           0       -3.650925   -1.672164    0.617641
      2          6           0       -2.978419   -1.526158   -0.231305
      3          1           0       -3.599481   -1.437358   -1.129691
      4          1           0       -2.334527   -2.405409   -0.335824
      5          6           0       -2.215786   -0.220857   -0.024696
      6          8           0       -2.779157    0.789080    0.368480
      7          7           0       -0.870706   -0.298525   -0.318438
      8          1           0       -0.588065   -1.117508   -0.841941
      9          6           0        0.072425    0.826663   -0.391902
     10          1           0       -0.039204    1.357970   -1.345277
     11          6           0       -0.079930    1.838264    0.758279
     12          1           0        0.017388    1.338900    1.728763
     13          1           0        0.716547    2.582669    0.665913
     14          1           0       -1.052072    2.326476    0.720485
     15          6           0        1.522963    0.309137   -0.372917
     16          8           0        2.417357    0.936481   -0.924158
     17          7           0        1.725075   -0.857207    0.311614
     18          1           0        0.952754   -1.209720    0.861243
     19          6           0        3.058303   -1.383420    0.552650
     20          1           0        3.722048   -0.963745   -0.204376
     21          1           0        3.437044   -1.101189    1.543544
     22          1           0        3.054970   -2.475049    0.472051
 ---------------------------------------------------------------------

 The electronic state is 1-A.
 Alpha  occ. eigenvalues --  -19.11628 -19.11433 -14.37023 -14.36843 -10.29612
 Alpha  occ. eigenvalues --  -10.28879 -10.23962 -10.22366 -10.19854 -10.17819
 Alpha  occ. eigenvalues --   -1.03808  -1.03289  -0.93744  -0.91730  -0.78352
 Alpha  occ. eigenvalues --   -0.73192  -0.71351  -0.64839  -0.58932  -0.57180
 Alpha  occ. eigenvalues --   -0.54092  -0.50660  -0.47502  -0.45790  -0.45485
 Alpha  occ. eigenvalues --   -0.44369  -0.42849  -0.41424  -0.40790  -0.39926
 Alpha  occ. eigenvalues --   -0.39410  -0.38049  -0.37474  -0.36020  -0.35100
 Alpha  occ. eigenvalues --   -0.26676  -0.26182  -0.25866  -0.24251
 Alpha virt. eigenvalues --    0.01566   0.02440   0.06173   0.09382   0.12088
 Alpha virt. eigenvalues --    0.12439   0.13357   0.14466   0.15214   0.15783
 Alpha virt. eigenvalues --    0.16641   0.17589   0.17803   0.18430   0.20026

 Mulliken atomic charges:
              1
     1  H    0.190097
     2  C   -0.541118
     3  H    0.186966
     4  H    0.143795
     5  C    0.596502
     6  O   -0.493697
     7  N   -0.641625
     8  H    0.326652
     9  C   -0.001453
    10  H    0.173742
    11  C   -0.455946
    12  H    0.140817
    13  H    0.167043
    14  H    0.203911
    15  C    0.566031
    16  O   -0.516686
    17  N   -0.588364
    18  H    0.331028
    19  C   -0.307883
    20  H    0.203145
    21  H    0.162341
    22  H    0.154700
 Sum of Mulliken atomic charges =   0.00000

 Dipole moment (field-independent basis, Debye):
    X=              0.1185    Y=             -4.3921    Z=              0.6712  Tot=              4.4447
 Quadrupole moment (field-independent basis, Debye-Ang):
   XX=            -69.1397   YY=            -57.6912   ZZ=            -59.4986
   XY=              0.3449   XZ=              7.9904   YZ=              0.5990

 Normal termination of Gaussian 09 at Fri Feb 10 20:58:19 2017.
