 Gaussian 09, Revision A.02,
 Gaussian 09:  EM64L-G09RevA.02 11-Jun-2009

 ----------------------------------------------------------------------
 # b3lyp/6-31G* Opt=(ModRedundant, maxcycles=1000, calcfc) geom=nocrowd
 ----------------------------------------------------------------------

 ------------------
 Phi Psi fixed scan
 ------------------
 Symbolic Z-matrix:
 Charge =  0 Multiplicity = 1

 SCF Done:  E(RB3LYP) =  -495.828785792     A.U. after   15 cycles

  Exact polarizability:   0.000   0.000   0.000   0.000   0.000   0.000
 Approx polarizability: 117.944  -4.326 126.648   4.631   5.458  92.285

 SCF Done:  E(RB3LYP) =  -495.835821985     A.U. after   12 cycles
 SCF Done:  E(RB3LYP) =  -495.842261743     A.U. after   13 cycles
 SCF Done:  E(RB3LYP) =  -495.842950657     A.U. after   12 cycles
 SCF Done:  E(RB3LYP) =  -495.836264065     A.U. after   14 cycles
 SCF Done:  E(RB3LYP) =  -495.843207941     A.U. after   15 cycles
 SCF Done:  E(RB3LYP) =  -495.843498767     A.U. after   11 cycles
 SCF Done:  E(RB3LYP) =  -495.843423450     A.U. after   12 cycles
 SCF Done:  E(RB3LYP) =  -495.843499216     A.U. after   12 cycles
 SCF Done:  E(RB3LYP) =  -495.843519571     A.U. after   10 cycles
 SCF Done:  E(RB3LYP) =  -495.843524839     A.U. after    9 cycles
 SCF Done:  E(RB3LYP) =  -495.843532402     A.U. after    9 cycles
 SCF Done:  E(RB3LYP) =  -495.843546805     A.U. after   10 cycles
 SCF Done:  E(RB3LYP) =  -495.843570028     A.U. after   11 cycles
 SCF Done:  E(RB3LYP) =  -495.843575424     A.U. after   11 cycles
 SCF Done:  E(RB3LYP) =  -495.843585064     A.U. after   10 cycles
 SCF Done:  E(RB3LYP) =  -495.843585662     A.U. after   10 cycles
 SCF Done:  E(RB3LYP) =  -495.843588891     A.U. after   10 cycles
 SCF Done:  E(RB3LYP) =  -495.843588926     A.U. after    6 cycles
 SCF Done:  E(RB3LYP) =  -495.843588922     A.U. after    6 cycles
 Optimization completed.
    -- Stationary point found.

                         Standard orientation:
 ---------------------------------------------------------------------
 Center     Atomic      Atomic             Coordinates (Angstroms)
 Number     Number       Type             X           Y           Z
 ---------------------------------------------------------------------
      1          1           0       -3.565471   -1.074866    1.532135
      2          6           0       -3.110138   -1.309718    0.565383
      3          1           0       -3.924872   -1.457440   -0.150634
      4          1           0       -2.541989   -2.240494    0.656716
      5          6           0       -2.277251   -0.112309    0.118329
      6          8           0       -2.772699    1.005638    0.029883
      7          7           0       -0.970627   -0.408098   -0.157039
      8          1           0       -0.703738   -1.382770   -0.220145
      9          6           0        0.061823    0.503779   -0.662175
     10          1           0       -0.025815    0.589503   -1.755809
     11          6           0       -0.013122    1.908372   -0.054964
     12          1           0        0.053516    1.874537    1.038907
     13          1           0        0.801075    2.527544   -0.450474
     14          1           0       -0.964989    2.373867   -0.304611
     15          6           0        1.385072   -0.259253   -0.410387
     16          8           0        1.523237   -1.384508   -0.886633
     17          7           0        2.305678    0.326967    0.396512
     18          1           0        2.119146    1.250620    0.755731
     19          6           0        3.573938   -0.303771    0.722628
     20          1           0        3.574215   -1.294292    0.266618
     21          1           0        4.417859    0.274709    0.328718
     22          1           0        3.689476   -0.404642    1.807658
 ---------------------------------------------------------------------

 The electronic state is 1-A.
 Alpha  occ. eigenvalues --  -19.11876 -19.10231 -14.37470 -14.35677 -10.29412
 Alpha  occ. eigenvalues --  -10.28374 -10.24164 -10.22633 -10.18690 -10.18518
 Alpha  occ. eigenvalues --   -1.04089  -1.02130  -0.93115  -0.91805  -0.78278
 Alpha  occ. eigenvalues --   -0.72721  -0.71038  -0.65755  -0.59637  -0.56509
 Alpha  occ. eigenvalues --   -0.53670  -0.50309  -0.47179  -0.45571  -0.45450
 Alpha  occ. eigenvalues --   -0.44139  -0.42526  -0.41437  -0.40275  -0.39439
 Alpha  occ. eigenvalues --   -0.39117  -0.38501  -0.37756  -0.36895  -0.34567
 Alpha  occ. eigenvalues --   -0.26515  -0.26227  -0.24726  -0.23751
 Alpha virt. eigenvalues --    0.01482   0.03578   0.07427   0.09357   0.11239
 Alpha virt. eigenvalues --    0.13241   0.14026   0.14789   0.15098   0.15754
 Alpha virt. eigenvalues --    0.16162   0.17739   0.18141   0.18603   0.19862

 Mulliken atomic charges:
              1
     1  H    0.183332
     2  C   -0.534979
     3  H    0.183260
     4  H    0.147696
     5  C    0.598767
     6  O   -0.515605
     7  N   -0.619777
     8  H    0.344271
     9  C    0.023512
    10  H    0.170442
    11  C   -0.492950
    12  H    0.149636
    13  H    0.138924
    14  H    0.216519
    15  C    0.569137
    16  O   -0.529970
    17  N   -0.587525
    18  H    0.338322
    19  C   -0.314954
    20  H    0.207638
    21  H    0.162384
    22  H    0.161919
 Sum of Mulliken atomic charges =   0.00000

 Dipole moment (field-independent basis, Debye):
    X=              2.7880    Y=              0.2644    Z=              1.6614  Tot=              3.2562
 Quadrupole moment (field-independent basis, Debye-Ang):
   XX=            -59.2228   YY=            -61.3430   ZZ=            -59.5846
   XY=             12.3078   XZ=              3.8438   YZ=             -2.3087

 Normal termination of Gaussian 09 at Fri Feb 10 20:53:34 2017.
