 Gaussian 09, Revision A.02,
 Gaussian 09:  EM64L-G09RevA.02 11-Jun-2009

 ----------------------------------------------------------------------
 # b3lyp/6-31G* Opt=(ModRedundant, maxcycles=1000, calcfc) geom=nocrowd
 ----------------------------------------------------------------------

 ------------------
 Phi Psi fixed scan
 ------------------
 Symbolic Z-matrix:
 Charge =  0 Multiplicity = 1

 SCF Done:  E(RB3LYP) =  -495.829119018     A.U. after   15 cycles

  Exact polarizability:   0.000   0.000   0.000   0.000   0.000   0.000
 Approx polarizability: 115.509  10.725 107.033  -7.093   0.899 113.097

 SCF Done:  E(RB3LYP) =  -495.833839969     A.U. after   12 cycles
 SCF Done:  E(RB3LYP) =  -495.838868008     A.U. after   13 cycles
 SCF Done:  E(RB3LYP) =  -495.839635548     A.U. after   13 cycles
 SCF Done:  E(RB3LYP) =  -495.838160722     A.U. after   14 cycles
 SCF Done:  E(RB3LYP) =  -495.839690134     A.U. after   12 cycles
 SCF Done:  E(RB3LYP) =  -495.839888137     A.U. after   12 cycles
 SCF Done:  E(RB3LYP) =  -495.838289394     A.U. after   13 cycles
 SCF Done:  E(RB3LYP) =  -495.839999946     A.U. after   12 cycles
 SCF Done:  E(RB3LYP) =  -495.840114422     A.U. after   12 cycles
 SCF Done:  E(RB3LYP) =  -495.840150715     A.U. after   11 cycles
 SCF Done:  E(RB3LYP) =  -495.840170331     A.U. after   10 cycles
 SCF Done:  E(RB3LYP) =  -495.840184266     A.U. after   11 cycles
 SCF Done:  E(RB3LYP) =  -495.840185080     A.U. after    9 cycles
 SCF Done:  E(RB3LYP) =  -495.840185722     A.U. after    9 cycles
 SCF Done:  E(RB3LYP) =  -495.840186379     A.U. after    9 cycles
 SCF Done:  E(RB3LYP) =  -495.840186746     A.U. after    8 cycles
 SCF Done:  E(RB3LYP) =  -495.840186773     A.U. after    7 cycles
 Optimization completed.
    -- Stationary point found.

                         Standard orientation:
 ---------------------------------------------------------------------
 Center     Atomic      Atomic             Coordinates (Angstroms)
 Number     Number       Type             X           Y           Z
 ---------------------------------------------------------------------
      1          1           0        3.571531   -1.605284   -0.982211
      2          6           0        2.999347   -1.544040   -0.052682
      3          1           0        3.718468   -1.534119    0.773529
      4          1           0        2.369091   -2.434278    0.039543
      5          6           0        2.224866   -0.229518   -0.047420
      6          8           0        2.765890    0.828305   -0.339503
      7          7           0        0.904197   -0.351249    0.308129
      8          1           0        0.622550   -1.245217    0.687901
      9          6           0       -0.055718    0.744389    0.520070
     10          1           0        0.066121    1.151973    1.531005
     11          6           0        0.071263    1.889003   -0.495038
     12          1           0        0.045319    1.526151   -1.528807
     13          1           0       -0.760514    2.587173   -0.351797
     14          1           0        1.016051    2.413553   -0.363187
     15          6           0       -1.465344    0.110067    0.522945
     16          8           0       -2.084936   -0.054652    1.567413
     17          7           0       -1.942930   -0.255129   -0.700960
     18          1           0       -1.350525   -0.117519   -1.506869
     19          6           0       -3.235269   -0.891414   -0.884074
     20          1           0       -3.721722   -0.927067    0.091458
     21          1           0       -3.859844   -0.317666   -1.578325
     22          1           0       -3.127902   -1.913208   -1.268502
 ---------------------------------------------------------------------

 The electronic state is 1-A.
 Alpha  occ. eigenvalues --  -19.11687 -19.11010 -14.36886 -14.36654 -10.29101
 Alpha  occ. eigenvalues --  -10.28959 -10.23931 -10.22384 -10.19432 -10.18354
 Alpha  occ. eigenvalues --   -1.03731  -1.02904  -0.93137  -0.91968  -0.78357
 Alpha  occ. eigenvalues --   -0.73049  -0.71073  -0.65446  -0.59005  -0.57217
 Alpha  occ. eigenvalues --   -0.53725  -0.50578  -0.47191  -0.45569  -0.45192
 Alpha  occ. eigenvalues --   -0.44375  -0.42630  -0.41434  -0.40566  -0.40012
 Alpha  occ. eigenvalues --   -0.39046  -0.38271  -0.37986  -0.36522  -0.35159
 Alpha  occ. eigenvalues --   -0.26577  -0.25717  -0.25283  -0.24163
 Alpha virt. eigenvalues --    0.01804   0.02505   0.06704   0.07825   0.11393
 Alpha virt. eigenvalues --    0.12650   0.13493   0.15061   0.15795   0.15960
 Alpha virt. eigenvalues --    0.16255   0.17489   0.17922   0.18577   0.19814

 Mulliken atomic charges:
              1
     1  H    0.186778
     2  C   -0.538439
     3  H    0.186527
     4  H    0.144788
     5  C    0.596399
     6  O   -0.504796
     7  N   -0.623442
     8  H    0.333288
     9  C    0.002938
    10  H    0.173845
    11  C   -0.461129
    12  H    0.136681
    13  H    0.154094
    14  H    0.204991
    15  C    0.547442
    16  O   -0.509533
    17  N   -0.573539
    18  H    0.331753
    19  C   -0.312253
    20  H    0.205608
    21  H    0.160888
    22  H    0.157110
 Sum of Mulliken atomic charges =   0.00000

 Dipole moment (field-independent basis, Debye):
    X=             -1.0398    Y=             -2.4950    Z=             -2.2924  Tot=              3.5442
 Quadrupole moment (field-independent basis, Debye-Ang):
   XX=            -65.7925   YY=            -57.2100   ZZ=            -61.6423
   XY=             -5.7912   XZ=              9.9822   YZ=              0.9626

 Normal termination of Gaussian 09 at Fri Feb 10 20:53:17 2017.
