 Gaussian 09, Revision A.02,
 Gaussian 09:  EM64L-G09RevA.02 11-Jun-2009

 ----------------------------------------------------------------------
 # b3lyp/6-31G* Opt=(ModRedundant, maxcycles=1000, calcfc) geom=nocrowd
 ----------------------------------------------------------------------

 ------------------
 Phi Psi fixed scan
 ------------------
 Symbolic Z-matrix:
 Charge =  0 Multiplicity = 1

 SCF Done:  E(RB3LYP) =  -495.827062807     A.U. after   15 cycles

  Exact polarizability:   0.000   0.000   0.000   0.000   0.000   0.000
 Approx polarizability: 115.442  11.422 111.466  -0.232  -7.234 109.271

 SCF Done:  E(RB3LYP) =  -495.832522790     A.U. after   13 cycles
 SCF Done:  E(RB3LYP) =  -495.838422669     A.U. after   14 cycles
 SCF Done:  E(RB3LYP) =  -495.839485352     A.U. after   13 cycles
 SCF Done:  E(RB3LYP) =  -495.838663630     A.U. after   13 cycles
 SCF Done:  E(RB3LYP) =  -495.839736103     A.U. after   12 cycles
 SCF Done:  E(RB3LYP) =  -495.839952749     A.U. after   12 cycles
 SCF Done:  E(RB3LYP) =  -495.838863738     A.U. after   13 cycles
 SCF Done:  E(RB3LYP) =  -495.840122797     A.U. after   12 cycles
 SCF Done:  E(RB3LYP) =  -495.840153107     A.U. after   12 cycles
 SCF Done:  E(RB3LYP) =  -495.840205841     A.U. after   11 cycles
 SCF Done:  E(RB3LYP) =  -495.840209988     A.U. after    8 cycles
 SCF Done:  E(RB3LYP) =  -495.840221597     A.U. after   10 cycles
 SCF Done:  E(RB3LYP) =  -495.840240109     A.U. after   11 cycles
 SCF Done:  E(RB3LYP) =  -495.840273973     A.U. after   11 cycles
 SCF Done:  E(RB3LYP) =  -495.840288761     A.U. after   10 cycles
 SCF Done:  E(RB3LYP) =  -495.840293303     A.U. after   10 cycles
 SCF Done:  E(RB3LYP) =  -495.840294152     A.U. after    8 cycles
 SCF Done:  E(RB3LYP) =  -495.840294284     A.U. after    7 cycles
 SCF Done:  E(RB3LYP) =  -495.840294345     A.U. after    6 cycles
 Optimization completed.
    -- Stationary point found.

                         Standard orientation:
 ---------------------------------------------------------------------
 Center     Atomic      Atomic             Coordinates (Angstroms)
 Number     Number       Type             X           Y           Z
 ---------------------------------------------------------------------
      1          1           0        3.588057   -1.323736   -1.329759
      2          6           0        3.021476   -1.466985   -0.405861
      3          1           0        3.745822   -1.621462    0.401295
      4          1           0        2.402210   -2.364420   -0.500466
      5          6           0        2.231022   -0.193393   -0.121888
      6          8           0        2.755702    0.910063   -0.195837
      7          7           0        0.917208   -0.406278    0.211802
      8          1           0        0.652513   -1.359295    0.425708
      9          6           0       -0.052412    0.604818    0.662848
     10          1           0        0.069931    0.779059    1.739548
     11          6           0        0.065979    1.944767   -0.074121
     12          1           0        0.078942    1.813742   -1.162717
     13          1           0       -0.782739    2.582719    0.196076
     14          1           0        0.996006    2.445253    0.189660
     15          6           0       -1.435858   -0.072471    0.527860
     16          8           0       -1.872219   -0.768606    1.439465
     17          7           0       -2.069576    0.082600   -0.666631
     18          1           0       -1.637758    0.662000   -1.370881
     19          6           0       -3.345968   -0.542701   -0.965641
     20          1           0       -3.655284   -1.094947   -0.077500
     21          1           0       -4.106591    0.209062   -1.206389
     22          1           0       -3.257831   -1.238098   -1.808968
 ---------------------------------------------------------------------

 The electronic state is 1-A.
 Alpha  occ. eigenvalues --  -19.11667 -19.10788 -14.36994 -14.36362 -10.29025
 Alpha  occ. eigenvalues --  -10.28879 -10.23986 -10.22404 -10.19185 -10.18506
 Alpha  occ. eigenvalues --   -1.03765  -1.02683  -0.92923  -0.92046  -0.78326
 Alpha  occ. eigenvalues --   -0.72931  -0.71015  -0.65630  -0.59120  -0.56968
 Alpha  occ. eigenvalues --   -0.53625  -0.50580  -0.47116  -0.45512  -0.45183
 Alpha  occ. eigenvalues --   -0.44378  -0.42519  -0.41433  -0.40423  -0.39934
 Alpha  occ. eigenvalues --   -0.38877  -0.38290  -0.38097  -0.36660  -0.35034
 Alpha  occ. eigenvalues --   -0.26565  -0.25672  -0.25191  -0.24012
 Alpha virt. eigenvalues --    0.01749   0.02839   0.07063   0.08047   0.11342
 Alpha virt. eigenvalues --    0.12880   0.13530   0.14870   0.15789   0.15935
 Alpha virt. eigenvalues --    0.16360   0.17319   0.18097   0.18834   0.19562

 Mulliken atomic charges:
              1
     1  H    0.186029
     2  C   -0.538055
     3  H    0.185092
     4  H    0.146893
     5  C    0.596189
     6  O   -0.507938
     7  N   -0.618898
     8  H    0.337180
     9  C    0.015643
    10  H    0.171347
    11  C   -0.474272
    12  H    0.142323
    13  H    0.149864
    14  H    0.206281
    15  C    0.551428
    16  O   -0.516956
    17  N   -0.578418
    18  H    0.333889
    19  C   -0.313436
    20  H    0.205840
    21  H    0.160812
    22  H    0.159164
 Sum of Mulliken atomic charges =   0.00000

 Dipole moment (field-independent basis, Debye):
    X=             -1.5976    Y=             -1.0101    Z=             -2.4903  Tot=              3.1264
 Quadrupole moment (field-independent basis, Debye-Ang):
   XX=            -63.3349   YY=            -58.6570   ZZ=            -60.9284
   XY=             -9.6152   XZ=              8.0215   YZ=              2.3010

 Normal termination of Gaussian 09 at Fri Feb 10 21:02:08 2017.
