 Gaussian 09, Revision A.02,
 Gaussian 09:  EM64L-G09RevA.02 11-Jun-2009

 ----------------------------------------------------------------------
 # b3lyp/6-31G* Opt=(ModRedundant, maxcycles=1000, calcfc) geom=nocrowd
 ----------------------------------------------------------------------

 ------------------
 Phi Psi fixed scan
 ------------------
 Symbolic Z-matrix:
 Charge =  0 Multiplicity = 1

 SCF Done:  E(RB3LYP) =  -495.828081286     A.U. after   15 cycles

  Exact polarizability:   0.000   0.000   0.000   0.000   0.000   0.000
 Approx polarizability: 118.893  -5.702 129.027   5.614   3.422  87.334

 SCF Done:  E(RB3LYP) =  -495.832573486     A.U. after   12 cycles
 SCF Done:  E(RB3LYP) =  -495.838401418     A.U. after   13 cycles
 SCF Done:  E(RB3LYP) =  -495.840241532     A.U. after   13 cycles
 SCF Done:  E(RB3LYP) =  -495.840935163     A.U. after   13 cycles
 SCF Done:  E(RB3LYP) =  -495.797548624     A.U. after   14 cycles
 SCF Done:  E(RB3LYP) =  -495.841266081     A.U. after   14 cycles
 SCF Done:  E(RB3LYP) =  -495.841599971     A.U. after   12 cycles
 SCF Done:  E(RB3LYP) =  -495.836851487     A.U. after   14 cycles
 SCF Done:  E(RB3LYP) =  -495.841881408     A.U. after   13 cycles
 SCF Done:  E(RB3LYP) =  -495.842123447     A.U. after   10 cycles
 SCF Done:  E(RB3LYP) =  -495.842132843     A.U. after    9 cycles
 SCF Done:  E(RB3LYP) =  -495.842153190     A.U. after   11 cycles
 SCF Done:  E(RB3LYP) =  -495.842172719     A.U. after   10 cycles
 SCF Done:  E(RB3LYP) =  -495.842174651     A.U. after   10 cycles
 SCF Done:  E(RB3LYP) =  -495.842175185     A.U. after    9 cycles
 SCF Done:  E(RB3LYP) =  -495.842175641     A.U. after    7 cycles
 SCF Done:  E(RB3LYP) =  -495.842176275     A.U. after    9 cycles
 SCF Done:  E(RB3LYP) =  -495.842176679     A.U. after    9 cycles
 SCF Done:  E(RB3LYP) =  -495.842176771     A.U. after    8 cycles
 Optimization completed.
    -- Stationary point found.

                         Standard orientation:
 ---------------------------------------------------------------------
 Center     Atomic      Atomic             Coordinates (Angstroms)
 Number     Number       Type             X           Y           Z
 ---------------------------------------------------------------------
      1          1           0       -3.829492   -1.709132    0.206230
      2          6           0       -2.867851   -1.490624    0.674542
      3          1           0       -2.269346   -2.406426    0.723620
      4          1           0       -3.061496   -1.151132    1.699355
      5          6           0       -2.186544   -0.374264   -0.107567
      6          8           0       -2.819095    0.486738   -0.699714
      7          7           0       -0.806198   -0.440085   -0.118738
      8          1           0       -0.413705   -1.064972    0.576275
      9          6           0        0.049413    0.729663   -0.421586
     10          1           0        0.052437    0.865812   -1.511897
     11          6           0       -0.406625    2.032450    0.240814
     12          1           0       -0.414349    1.927245    1.330472
     13          1           0        0.296996    2.830393   -0.008161
     14          1           0       -1.405071    2.298835   -0.105384
     15          6           0        1.490867    0.392687    0.024256
     16          8           0        2.186936    1.177143    0.651279
     17          7           0        1.915394   -0.858004   -0.342291
     18          1           0        1.326451   -1.388864   -0.970225
     19          6           0        3.275939   -1.315279   -0.110589
     20          1           0        3.711885   -0.679618    0.660994
     21          1           0        3.276113   -2.355673    0.230388
     22          1           0        3.891275   -1.238693   -1.016191
 ---------------------------------------------------------------------

 The electronic state is 1-A.
 Alpha  occ. eigenvalues --  -19.12096 -19.11553 -14.37118 -14.36534 -10.29351
 Alpha  occ. eigenvalues --  -10.29205 -10.23920 -10.22589 -10.19641 -10.16726
 Alpha  occ. eigenvalues --   -1.04165  -1.03330  -0.93629  -0.91696  -0.77842
 Alpha  occ. eigenvalues --   -0.72882  -0.71697  -0.64118  -0.58928  -0.57597
 Alpha  occ. eigenvalues --   -0.53747  -0.48214  -0.48159  -0.46957  -0.45470
 Alpha  occ. eigenvalues --   -0.44694  -0.42506  -0.41499  -0.40195  -0.39958
 Alpha  occ. eigenvalues --   -0.39350  -0.38142  -0.36593  -0.36297  -0.34611
 Alpha  occ. eigenvalues --   -0.26886  -0.26286  -0.25665  -0.24723
 Alpha virt. eigenvalues --    0.00906   0.02499   0.06933   0.08827   0.11854
 Alpha virt. eigenvalues --    0.12625   0.12852   0.14755   0.15187   0.15383
 Alpha virt. eigenvalues --    0.16630   0.17148   0.17803   0.18666   0.20461

 Mulliken atomic charges:
              1
     1  H    0.190005
     2  C   -0.545317
     3  H    0.152034
     4  H    0.182514
     5  C    0.596283
     6  O   -0.493006
     7  N   -0.627078
     8  H    0.325150
     9  C   -0.020654
    10  H    0.175410
    11  C   -0.448621
    12  H    0.145294
    13  H    0.164363
    14  H    0.186669
    15  C    0.564920
    16  O   -0.504006
    17  N   -0.591625
    18  H    0.334087
    19  C   -0.309228
    20  H    0.204118
    21  H    0.155923
    22  H    0.162766
 Sum of Mulliken atomic charges =   0.00000

 Dipole moment (field-independent basis, Debye):
    X=              1.2949    Y=             -4.3073    Z=              0.1146  Tot=              4.4992
 Quadrupole moment (field-independent basis, Debye-Ang):
   XX=            -66.7848   YY=            -58.1846   ZZ=            -59.5324
   XY=             -2.0960   XZ=             -8.5346   YZ=             -1.2758

 Normal termination of Gaussian 09 at Fri Feb 10 20:59:43 2017.
