 Gaussian 09, Revision A.02,
 Gaussian 09:  EM64L-G09RevA.02 11-Jun-2009

 ----------------------------------------------------------------------
 # b3lyp/6-31G* Opt=(ModRedundant, maxcycles=1000, calcfc) geom=nocrowd
 ----------------------------------------------------------------------

 ------------------
 Phi Psi fixed scan
 ------------------
 Symbolic Z-matrix:
 Charge =  0 Multiplicity = 1

 SCF Done:  E(RB3LYP) =  -495.824708517     A.U. after   15 cycles

  Exact polarizability:   0.000   0.000   0.000   0.000   0.000   0.000
 Approx polarizability: 120.020  -4.485 132.285   3.950   0.743  82.970

 SCF Done:  E(RB3LYP) =  -495.829800971     A.U. after   12 cycles
 SCF Done:  E(RB3LYP) =  -495.837009770     A.U. after   13 cycles
 SCF Done:  E(RB3LYP) =  -495.835363704     A.U. after   13 cycles
 SCF Done:  E(RB3LYP) =  -495.839014323     A.U. after   12 cycles
 SCF Done:  E(RB3LYP) =  -495.839762692     A.U. after   12 cycles
 SCF Done:  E(RB3LYP) =  -495.840721250     A.U. after   12 cycles
 SCF Done:  E(RB3LYP) =  -495.841305897     A.U. after   13 cycles
 SCF Done:  E(RB3LYP) =  -495.748438935     A.U. after   17 cycles
 SCF Done:  E(RB3LYP) =  -495.841406644     A.U. after   15 cycles
 SCF Done:  E(RB3LYP) =  -495.841668856     A.U. after   10 cycles
 SCF Done:  E(RB3LYP) =  -495.841711104     A.U. after   11 cycles
 SCF Done:  E(RB3LYP) =  -495.841718677     A.U. after   10 cycles
 SCF Done:  E(RB3LYP) =  -495.841720953     A.U. after   10 cycles
 SCF Done:  E(RB3LYP) =  -495.841721597     A.U. after    9 cycles
 SCF Done:  E(RB3LYP) =  -495.841722063     A.U. after    8 cycles
 SCF Done:  E(RB3LYP) =  -495.841722638     A.U. after    8 cycles
 SCF Done:  E(RB3LYP) =  -495.841723492     A.U. after    8 cycles
 SCF Done:  E(RB3LYP) =  -495.841724042     A.U. after    8 cycles
 SCF Done:  E(RB3LYP) =  -495.841724072     A.U. after    7 cycles
 Optimization completed.
    -- Stationary point found.

                         Standard orientation:
 ---------------------------------------------------------------------
 Center     Atomic      Atomic             Coordinates (Angstroms)
 Number     Number       Type             X           Y           Z
 ---------------------------------------------------------------------
      1          1           0       -3.854079   -1.667862    0.165417
      2          6           0       -2.870196   -1.502308    0.608371
      3          1           0       -2.291379   -2.431164    0.570760
      4          1           0       -3.015527   -1.230385    1.661107
      5          6           0       -2.192152   -0.350711   -0.123459
      6          8           0       -2.825041    0.552406   -0.647236
      7          7           0       -0.810774   -0.437689   -0.177258
      8          1           0       -0.424552   -1.080567    0.506232
      9          6           0        0.045383    0.749483   -0.396942
     10          1           0        0.018826    0.981317   -1.470517
     11          6           0       -0.387510    1.995163    0.385498
     12          1           0       -0.389753    1.790902    1.462017
     13          1           0        0.326580    2.800444    0.201819
     14          1           0       -1.385831    2.304662    0.076844
     15          6           0        1.504825    0.396856   -0.032309
     16          8           0        2.282496    1.229832    0.408483
     17          7           0        1.856546   -0.916884   -0.221083
     18          1           0        1.250905   -1.477898   -0.806561
     19          6           0        3.235524   -1.352452   -0.052969
     20          1           0        3.671862   -0.795761    0.777323
     21          1           0        3.255620   -2.422119    0.173312
     22          1           0        3.842041   -1.163659   -0.948480
 ---------------------------------------------------------------------

 The electronic state is 1-A.
 Alpha  occ. eigenvalues --  -19.12110 -19.11751 -14.37146 -14.36526 -10.29381
 Alpha  occ. eigenvalues --  -10.29324 -10.23959 -10.22609 -10.19732 -10.16877
 Alpha  occ. eigenvalues --   -1.04233  -1.03491  -0.93756  -0.91668  -0.77853
 Alpha  occ. eigenvalues --   -0.72925  -0.71680  -0.64183  -0.58982  -0.57498
 Alpha  occ. eigenvalues --   -0.53853  -0.48160  -0.48041  -0.47008  -0.45433
 Alpha  occ. eigenvalues --   -0.44655  -0.42612  -0.41579  -0.40333  -0.40136
 Alpha  occ. eigenvalues --   -0.39534  -0.38236  -0.36592  -0.36191  -0.34648
 Alpha  occ. eigenvalues --   -0.26889  -0.26823  -0.25608  -0.24804
 Alpha virt. eigenvalues --    0.00894   0.02216   0.06753   0.09248   0.12114
 Alpha virt. eigenvalues --    0.12534   0.12992   0.14432   0.14788   0.15202
 Alpha virt. eigenvalues --    0.16835   0.17252   0.17771   0.18630   0.20363

 Mulliken atomic charges:
              1
     1  H    0.190730
     2  C   -0.546117
     3  H    0.153396
     4  H    0.181710
     5  C    0.595246
     6  O   -0.489897
     7  N   -0.630170
     8  H    0.323275
     9  C   -0.028374
    10  H    0.183496
    11  C   -0.453067
    12  H    0.139703
    13  H    0.172921
    14  H    0.187527
    15  C    0.576214
    16  O   -0.505452
    17  N   -0.599234
    18  H    0.334767
    19  C   -0.303891
    20  H    0.198633
    21  H    0.154139
    22  H    0.164443
 Sum of Mulliken atomic charges =   0.00000

 Dipole moment (field-independent basis, Debye):
    X=              1.0564    Y=             -4.4576    Z=              0.3937  Tot=              4.5980
 Quadrupole moment (field-independent basis, Debye-Ang):
   XX=            -67.6326   YY=            -58.2430   ZZ=            -59.2064
   XY=             -2.2582   XZ=             -7.1873   YZ=             -0.7496

 Normal termination of Gaussian 09 at Fri Feb 10 20:57:04 2017.
