 Gaussian 09, Revision A.02,
 Gaussian 09:  EM64L-G09RevA.02 11-Jun-2009

 ----------------------------------------------------------------------
 # b3lyp/6-31G* Opt=(ModRedundant, maxcycles=1000, calcfc) geom=nocrowd
 ----------------------------------------------------------------------

 ------------------
 Phi Psi fixed scan
 ------------------
 Symbolic Z-matrix:
 Charge =  0 Multiplicity = 1

 SCF Done:  E(RB3LYP) =  -495.820992360     A.U. after   16 cycles

  Exact polarizability:   0.000   0.000   0.000   0.000   0.000   0.000
 Approx polarizability: 121.537  -3.323 132.610  -2.166  -4.907  81.323

 SCF Done:  E(RB3LYP) =  -495.827622490     A.U. after   12 cycles
 SCF Done:  E(RB3LYP) =  -495.835920606     A.U. after   13 cycles
 SCF Done:  E(RB3LYP) =  -495.820564616     A.U. after   14 cycles
 SCF Done:  E(RB3LYP) =  -495.832802657     A.U. after   12 cycles
 SCF Done:  E(RB3LYP) =  -495.835931803     A.U. after   14 cycles
 SCF Done:  E(RB3LYP) =  -495.837023246     A.U. after   12 cycles
 SCF Done:  E(RB3LYP) =  -495.838302599     A.U. after   13 cycles
 SCF Done:  E(RB3LYP) =  -495.838966942     A.U. after   12 cycles
 SCF Done:  E(RB3LYP) =  -495.819181191     A.U. after   13 cycles
 SCF Done:  E(RB3LYP) =  -495.839954253     A.U. after   11 cycles
 SCF Done:  E(RB3LYP) =  -495.839965725     A.U. after   11 cycles
 SCF Done:  E(RB3LYP) =  -495.839973650     A.U. after    9 cycles
 SCF Done:  E(RB3LYP) =  -495.839985826     A.U. after   10 cycles
 SCF Done:  E(RB3LYP) =  -495.840001021     A.U. after   11 cycles
 SCF Done:  E(RB3LYP) =  -495.840015372     A.U. after   10 cycles
 SCF Done:  E(RB3LYP) =  -495.840021424     A.U. after   11 cycles
 SCF Done:  E(RB3LYP) =  -495.840022216     A.U. after   10 cycles
 SCF Done:  E(RB3LYP) =  -495.840022312     A.U. after    9 cycles
 SCF Done:  E(RB3LYP) =  -495.840022295     A.U. after    7 cycles
 Optimization completed.
    -- Stationary point found.

                         Standard orientation:
 ---------------------------------------------------------------------
 Center     Atomic      Atomic             Coordinates (Angstroms)
 Number     Number       Type             X           Y           Z
 ---------------------------------------------------------------------
      1          1           0       -3.737331   -1.616590    0.652197
      2          6           0       -2.958587   -1.583477   -0.113075
      3          1           0       -3.453613   -1.636565   -1.089829
      4          1           0       -2.306986   -2.456457   -0.003871
      5          6           0       -2.223459   -0.250972    0.003169
      6          8           0       -2.819179    0.782705    0.257159
      7          7           0       -0.856149   -0.347133   -0.194743
      8          1           0       -0.581831   -1.189122   -0.688372
      9          6           0        0.067192    0.777435   -0.418086
     10          1           0       -0.000078    1.119166   -1.461061
     11          6           0       -0.190173    1.978893    0.505971
     12          1           0       -0.181009    1.664556    1.555463
     13          1           0        0.615941    2.699345    0.348121
     14          1           0       -1.154452    2.437181    0.296525
     15          6           0        1.536375    0.340489   -0.227767
     16          8           0        2.442741    1.127188   -0.463328
     17          7           0        1.758689   -0.971428    0.106394
     18          1           0        1.008823   -1.435712    0.603088
     19          6           0        3.115877   -1.428859    0.375694
     20          1           0        3.778564   -1.010315   -0.383014
     21          1           0        3.478305   -1.105251    1.360113
     22          1           0        3.144028   -2.520509    0.323001
 ---------------------------------------------------------------------

 The electronic state is 1-A.
 Alpha  occ. eigenvalues --  -19.11851 -19.11693 -14.36988 -14.36900 -10.29724
 Alpha  occ. eigenvalues --  -10.28987 -10.24086 -10.22375 -10.19907 -10.17187
 Alpha  occ. eigenvalues --   -1.04002  -1.03527  -0.93820  -0.91754  -0.78153
 Alpha  occ. eigenvalues --   -0.73066  -0.71361  -0.64489  -0.59048  -0.56499
 Alpha  occ. eigenvalues --   -0.54086  -0.50807  -0.47527  -0.46067  -0.45452
 Alpha  occ. eigenvalues --   -0.44638  -0.42616  -0.41419  -0.40681  -0.39738
 Alpha  occ. eigenvalues --   -0.39395  -0.37503  -0.37076  -0.35932  -0.34988
 Alpha  occ. eigenvalues --   -0.27672  -0.26193  -0.25884  -0.24305
 Alpha virt. eigenvalues --    0.01360   0.01939   0.05646   0.09887   0.12333
 Alpha virt. eigenvalues --    0.13089   0.13196   0.14061   0.15069   0.15320
 Alpha virt. eigenvalues --    0.17121   0.17776   0.17880   0.18602   0.19904

 Mulliken atomic charges:
              1
     1  H    0.191946
     2  C   -0.543433
     3  H    0.184564
     4  H    0.145446
     5  C    0.594238
     6  O   -0.485945
     7  N   -0.640031
     8  H    0.322972
     9  C   -0.016165
    10  H    0.174690
    11  C   -0.453777
    12  H    0.145224
    13  H    0.173947
    14  H    0.194288
    15  C    0.587334
    16  O   -0.512772
    17  N   -0.601953
    18  H    0.330079
    19  C   -0.303817
    20  H    0.195842
    21  H    0.165096
    22  H    0.152229
 Sum of Mulliken atomic charges =   0.00000

 Dipole moment (field-independent basis, Debye):
    X=              0.1677    Y=             -4.7919    Z=              0.0021  Tot=              4.7949
 Quadrupole moment (field-independent basis, Debye-Ang):
   XX=            -69.2757   YY=            -58.0799   ZZ=            -58.5648
   XY=             -0.5166   XZ=              5.0782   YZ=             -0.1897

 Normal termination of Gaussian 09 at Fri Feb 10 20:48:06 2017.
