 Gaussian 09, Revision A.02,
 Gaussian 09:  EM64L-G09RevA.02 11-Jun-2009

 ----------------------------------------------------------------------
 # b3lyp/6-31G* Opt=(ModRedundant, maxcycles=1000, calcfc) geom=nocrowd
 ----------------------------------------------------------------------

 ------------------
 Phi Psi fixed scan
 ------------------
 Symbolic Z-matrix:
 Charge =  0 Multiplicity = 1

 SCF Done:  E(RB3LYP) =  -495.830581274     A.U. after   15 cycles

  Exact polarizability:   0.000   0.000   0.000   0.000   0.000   0.000
 Approx polarizability: 119.797  -1.406 130.485   3.980   1.892  86.357

 SCF Done:  E(RB3LYP) =  -495.836915855     A.U. after   12 cycles
 SCF Done:  E(RB3LYP) =  -495.843637491     A.U. after   13 cycles
 SCF Done:  E(RB3LYP) =  -495.844684227     A.U. after   12 cycles
 SCF Done:  E(RB3LYP) =  -495.844600309     A.U. after   13 cycles
 SCF Done:  E(RB3LYP) =  -495.844967139     A.U. after   12 cycles
 SCF Done:  E(RB3LYP) =  -495.845070132     A.U. after   11 cycles
 SCF Done:  E(RB3LYP) =  -495.740394038     A.U. after   15 cycles
 SCF Done:  E(RB3LYP) =  -495.845103819     A.U. after   15 cycles
 SCF Done:  E(RB3LYP) =  -495.845153968     A.U. after   10 cycles
 SCF Done:  E(RB3LYP) =  -495.845260255     A.U. after   10 cycles
 SCF Done:  E(RB3LYP) =  -495.845317760     A.U. after   11 cycles
 SCF Done:  E(RB3LYP) =  -495.845347185     A.U. after   11 cycles
 SCF Done:  E(RB3LYP) =  -495.845358951     A.U. after   10 cycles
 SCF Done:  E(RB3LYP) =  -495.845359585     A.U. after   10 cycles
 SCF Done:  E(RB3LYP) =  -495.845369007     A.U. after   10 cycles
 SCF Done:  E(RB3LYP) =  -495.845370076     A.U. after    9 cycles
 SCF Done:  E(RB3LYP) =  -495.845370263     A.U. after    7 cycles
 SCF Done:  E(RB3LYP) =  -495.845370396     A.U. after    7 cycles
 SCF Done:  E(RB3LYP) =  -495.845370494     A.U. after    7 cycles
 Optimization completed.
    -- Stationary point found.

                         Standard orientation:
 ---------------------------------------------------------------------
 Center     Atomic      Atomic             Coordinates (Angstroms)
 Number     Number       Type             X           Y           Z
 ---------------------------------------------------------------------
      1          1           0       -3.576675   -1.041330    1.510995
      2          6           0       -3.163465   -1.265981    0.522604
      3          1           0       -4.006985   -1.367563   -0.166967
      4          1           0       -2.624291   -2.216929    0.572335
      5          6           0       -2.306085   -0.086593    0.074474
      6          8           0       -2.788029    1.035322   -0.047304
      7          7           0       -0.999238   -0.401017   -0.164678
      8          1           0       -0.719626   -1.374645   -0.167340
      9          6           0        0.069863    0.497530   -0.601745
     10          1           0        0.017620    0.628213   -1.694639
     11          6           0        0.008197    1.882432    0.053862
     12          1           0        0.130523    1.812587    1.140831
     13          1           0        0.789333    2.532280   -0.359470
     14          1           0       -0.961297    2.337849   -0.142794
     15          6           0        1.369643   -0.301109   -0.330678
     16          8           0        1.416230   -1.494827   -0.624342
     17          7           0        2.396535    0.358122    0.261783
     18          1           0        2.279912    1.332654    0.492742
     19          6           0        3.670524   -0.278500    0.553381
     20          1           0        3.581026   -1.331258    0.283972
     21          1           0        4.482742    0.174429   -0.027291
     22          1           0        3.908973   -0.196654    1.619663
 ---------------------------------------------------------------------

 The electronic state is 1-A.
 Alpha  occ. eigenvalues --  -19.12127 -19.09993 -14.37606 -14.35351 -10.29623
 Alpha  occ. eigenvalues --  -10.28157 -10.24259 -10.22730 -10.18491 -10.18491
 Alpha  occ. eigenvalues --   -1.04322  -1.01893  -0.93284  -0.91619  -0.78250
 Alpha  occ. eigenvalues --   -0.72661  -0.71021  -0.65741  -0.59865  -0.56352
 Alpha  occ. eigenvalues --   -0.53746  -0.50046  -0.47273  -0.45782  -0.45407
 Alpha  occ. eigenvalues --   -0.44064  -0.42628  -0.41428  -0.40146  -0.39583
 Alpha  occ. eigenvalues --   -0.39174  -0.38424  -0.37524  -0.37002  -0.34349
 Alpha  occ. eigenvalues --   -0.26569  -0.26458  -0.24526  -0.23673
 Alpha virt. eigenvalues --    0.01477   0.03815   0.07252   0.09867   0.11213
 Alpha virt. eigenvalues --    0.13397   0.13924   0.14666   0.14966   0.15773
 Alpha virt. eigenvalues --    0.15922   0.18082   0.18273   0.18783   0.20083

 Mulliken atomic charges:
              1
     1  H    0.181935
     2  C   -0.534028
     3  H    0.182499
     4  H    0.148150
     5  C    0.600451
     6  O   -0.518878
     7  N   -0.622354
     8  H    0.348160
     9  C    0.016724
    10  H    0.172468
    11  C   -0.497042
    12  H    0.151612
    13  H    0.134377
    14  H    0.221758
    15  C    0.581276
    16  O   -0.531984
    17  N   -0.591897
    18  H    0.338251
    19  C   -0.314983
    20  H    0.208186
    21  H    0.162956
    22  H    0.162362
 Sum of Mulliken atomic charges =   0.00000

 Dipole moment (field-independent basis, Debye):
    X=              3.2339    Y=              0.4412    Z=              1.2491  Tot=              3.4947
 Quadrupole moment (field-independent basis, Debye-Ang):
   XX=            -57.9742   YY=            -62.0629   ZZ=            -59.3342
   XY=             12.6293   XZ=              2.0551   YZ=             -1.7295

 Normal termination of Gaussian 09 at Fri Feb 10 21:04:20 2017.
