 Gaussian 09, Revision A.02,
 Gaussian 09:  EM64L-G09RevA.02 11-Jun-2009

 ----------------------------------------------------------------------
 # b3lyp/6-31G* Opt=(ModRedundant, maxcycles=1000, calcfc) geom=nocrowd
 ----------------------------------------------------------------------

 ------------------
 Phi Psi fixed scan
 ------------------
 Symbolic Z-matrix:
 Charge =  0 Multiplicity = 1

 SCF Done:  E(RB3LYP) =  -495.838006760     A.U. after   14 cycles

  Exact polarizability:   0.000   0.000   0.000   0.000   0.000   0.000
 Approx polarizability: 120.533  -2.339 121.267  -6.450 -13.710  92.638

 SCF Done:  E(RB3LYP) =  -495.842608442     A.U. after   12 cycles
 SCF Done:  E(RB3LYP) =  -495.847119835     A.U. after   13 cycles
 SCF Done:  E(RB3LYP) =  -495.848203936     A.U. after   13 cycles
 SCF Done:  E(RB3LYP) =  -495.844125300     A.U. after   13 cycles
 SCF Done:  E(RB3LYP) =  -495.848563667     A.U. after   12 cycles
 SCF Done:  E(RB3LYP) =  -495.849199738     A.U. after   12 cycles
 SCF Done:  E(RB3LYP) =  -495.849248643     A.U. after   12 cycles
 SCF Done:  E(RB3LYP) =  -495.849151911     A.U. after   12 cycles
 SCF Done:  E(RB3LYP) =  -495.849259535     A.U. after   12 cycles
 SCF Done:  E(RB3LYP) =  -495.849276328     A.U. after   11 cycles
 SCF Done:  E(RB3LYP) =  -495.849278039     A.U. after    8 cycles
 SCF Done:  E(RB3LYP) =  -495.849280249     A.U. after    9 cycles
 SCF Done:  E(RB3LYP) =  -495.849284256     A.U. after   10 cycles
 SCF Done:  E(RB3LYP) =  -495.849287620     A.U. after   10 cycles
 SCF Done:  E(RB3LYP) =  -495.849290425     A.U. after   10 cycles
 SCF Done:  E(RB3LYP) =  -495.849290579     A.U. after    9 cycles
 Optimization completed.
    -- Stationary point found.

                         Standard orientation:
 ---------------------------------------------------------------------
 Center     Atomic      Atomic             Coordinates (Angstroms)
 Number     Number       Type             X           Y           Z
 ---------------------------------------------------------------------
      1          1           0       -4.175397   -1.108613   -0.536963
      2          6           0       -3.273871   -1.227052    0.068649
      3          1           0       -2.829980   -2.208215   -0.126197
      4          1           0       -3.573921   -1.184186    1.122294
      5          6           0       -2.330011   -0.068751   -0.227729
      6          8           0       -2.740943    1.070934   -0.416000
      7          7           0       -1.004344   -0.410594   -0.293931
      8          1           0       -0.729721   -1.313850    0.081641
      9          6           0        0.081838    0.560964   -0.233410
     10          1           0        0.158925    1.076562   -1.199519
     11          6           0       -0.079589    1.613109    0.884942
     12          1           0       -0.110221    1.118414    1.861501
     13          1           0        0.766645    2.309445    0.876587
     14          1           0       -1.004649    2.170212    0.734560
     15          6           0        1.360449   -0.248733    0.043132
     16          8           0        1.325514   -1.294219    0.687849
     17          7           0        2.502712    0.282744   -0.467001
     18          1           0        2.437549    1.142099   -0.994106
     19          6           0        3.816887   -0.291611   -0.230750
     20          1           0        3.671619   -1.227012    0.310665
     21          1           0        4.326135   -0.498843   -1.178335
     22          1           0        4.443650    0.377664    0.370597
 ---------------------------------------------------------------------

 The electronic state is 1-A.
 Alpha  occ. eigenvalues --  -19.12593 -19.10170 -14.37705 -14.34912 -10.29738
 Alpha  occ. eigenvalues --  -10.27975 -10.23924 -10.22834 -10.18437 -10.18060
 Alpha  occ. eigenvalues --   -1.04614  -1.02014  -0.93418  -0.91447  -0.77946
 Alpha  occ. eigenvalues --   -0.72699  -0.71210  -0.64797  -0.59863  -0.56546
 Alpha  occ. eigenvalues --   -0.53618  -0.48585  -0.47429  -0.46318  -0.45189
 Alpha  occ. eigenvalues --   -0.44276  -0.43037  -0.41054  -0.40455  -0.40114
 Alpha  occ. eigenvalues --   -0.38811  -0.38407  -0.36768  -0.36527  -0.34155
 Alpha  occ. eigenvalues --   -0.26795  -0.26640  -0.24896  -0.23738
 Alpha virt. eigenvalues --    0.01588   0.03365   0.06336   0.09872   0.11419
 Alpha virt. eigenvalues --    0.13584   0.14027   0.14601   0.15599   0.15868
 Alpha virt. eigenvalues --    0.16396   0.17253   0.18271   0.19096   0.19844

 Mulliken atomic charges:
              1
     1  H    0.183516
     2  C   -0.539184
     3  H    0.154335
     4  H    0.179534
     5  C    0.592949
     6  O   -0.514825
     7  N   -0.612079
     8  H    0.345764
     9  C   -0.004631
    10  H    0.151620
    11  C   -0.460928
    12  H    0.158783
    13  H    0.134016
    14  H    0.207103
    15  C    0.591593
    16  O   -0.530059
    17  N   -0.588217
    18  H    0.331055
    19  C   -0.313788
    20  H    0.207686
    21  H    0.162781
    22  H    0.162974
 Sum of Mulliken atomic charges =   0.00000

 Dipole moment (field-independent basis, Debye):
    X=              3.4785    Y=              0.1055    Z=             -0.6700  Tot=              3.5440
 Quadrupole moment (field-independent basis, Debye-Ang):
   XX=            -55.3272   YY=            -61.7328   ZZ=            -60.2510
   XY=             11.8437   XZ=             -6.0872   YZ=              1.0837

 Normal termination of Gaussian 09 at Fri Feb 10 20:45:48 2017.
