 Gaussian 09, Revision A.02,
 Gaussian 09:  EM64L-G09RevA.02 11-Jun-2009

 ----------------------------------------------------------------------
 # b3lyp/6-31G* Opt=(ModRedundant, maxcycles=1000, calcfc) geom=nocrowd
 ----------------------------------------------------------------------

 ------------------
 Phi Psi fixed scan
 ------------------
 Symbolic Z-matrix:
 Charge =  0 Multiplicity = 1

 SCF Done:  E(RB3LYP) =  -495.830731145     A.U. after   15 cycles

  Exact polarizability:   0.000   0.000   0.000   0.000   0.000   0.000
 Approx polarizability: 117.675 -11.583 110.757   2.748   4.506 107.079

 SCF Done:  E(RB3LYP) =  -495.835180570     A.U. after   12 cycles
 SCF Done:  E(RB3LYP) =  -495.840040738     A.U. after   13 cycles
 SCF Done:  E(RB3LYP) =  -495.841031597     A.U. after   13 cycles
 SCF Done:  E(RB3LYP) =  -495.835479186     A.U. after   14 cycles
 SCF Done:  E(RB3LYP) =  -495.841168209     A.U. after   14 cycles
 SCF Done:  E(RB3LYP) =  -495.841499769     A.U. after   12 cycles
 SCF Done:  E(RB3LYP) =  -495.841741847     A.U. after   13 cycles
 SCF Done:  E(RB3LYP) =  -495.841659860     A.U. after   13 cycles
 SCF Done:  E(RB3LYP) =  -495.842054559     A.U. after   12 cycles
 SCF Done:  E(RB3LYP) =  -495.842308649     A.U. after    8 cycles
 SCF Done:  E(RB3LYP) =  -495.842316027     A.U. after   10 cycles
 SCF Done:  E(RB3LYP) =  -495.842318013     A.U. after    9 cycles
 SCF Done:  E(RB3LYP) =  -495.842319453     A.U. after    9 cycles
 SCF Done:  E(RB3LYP) =  -495.842321575     A.U. after    9 cycles
 SCF Done:  E(RB3LYP) =  -495.842324698     A.U. after   10 cycles
 SCF Done:  E(RB3LYP) =  -495.842326226     A.U. after   10 cycles
 SCF Done:  E(RB3LYP) =  -495.842326240     A.U. after    7 cycles
 SCF Done:  E(RB3LYP) =  -495.842326218     A.U. after    6 cycles
 SCF Done:  E(RB3LYP) =  -495.842326223     A.U. after    6 cycles
 Optimization completed.
    -- Stationary point found.

                         Standard orientation:
 ---------------------------------------------------------------------
 Center     Atomic      Atomic             Coordinates (Angstroms)
 Number     Number       Type             X           Y           Z
 ---------------------------------------------------------------------
      1          1           0       -3.915214   -1.654419    0.076806
      2          6           0       -2.999619   -1.413521    0.620797
      3          1           0       -2.428488   -2.330657    0.798227
      4          1           0       -3.286523   -0.992691    1.592057
      5          6           0       -2.222593   -0.368366   -0.169603
      6          8           0       -2.778931    0.477590   -0.855166
      7          7           0       -0.850591   -0.477806   -0.077529
      8          1           0       -0.525760   -1.063154    0.683849
      9          6           0        0.058659    0.642187   -0.400793
     10          1           0        0.118227    0.717024   -1.493798
     11          6           0       -0.373313    1.994549    0.176167
     12          1           0       -0.364854    1.951405    1.268357
     13          1           0        0.335604    2.769720   -0.135648
     14          1           0       -1.368498    2.257921   -0.181583
     15          6           0        1.430457    0.248964    0.186998
     16          8           0        1.727854    0.490606    1.350905
     17          7           0        2.234696   -0.447631   -0.666064
     18          1           0        1.905065   -0.612506   -1.606490
     19          6           0        3.543120   -0.951233   -0.285857
     20          1           0        3.712128   -0.665760    0.753191
     21          1           0        3.586367   -2.043479   -0.370913
     22          1           0        4.331560   -0.516399   -0.911065
 ---------------------------------------------------------------------

 The electronic state is 1-A.
 Alpha  occ. eigenvalues --  -19.12031 -19.11087 -14.37331 -14.36079 -10.29289
 Alpha  occ. eigenvalues --  -10.28750 -10.23792 -10.22591 -10.19202 -10.16853
 Alpha  occ. eigenvalues --   -1.04096  -1.02882  -0.93086  -0.91913  -0.77737
 Alpha  occ. eigenvalues --   -0.72803  -0.71498  -0.64205  -0.59123  -0.57248
 Alpha  occ. eigenvalues --   -0.53524  -0.48323  -0.47653  -0.46648  -0.45471
 Alpha  occ. eigenvalues --   -0.44547  -0.42382  -0.41140  -0.40242  -0.39768
 Alpha  occ. eigenvalues --   -0.39419  -0.38027  -0.36660  -0.35990  -0.34472
 Alpha  occ. eigenvalues --   -0.26663  -0.25999  -0.25571  -0.24385
 Alpha virt. eigenvalues --    0.01421   0.02572   0.06856   0.07910   0.11580
 Alpha virt. eigenvalues --    0.13047   0.13557   0.14991   0.15582   0.15904
 Alpha virt. eigenvalues --    0.16755   0.17096   0.18240   0.19175   0.20465

 Mulliken atomic charges:
              1
     1  H    0.187597
     2  C   -0.544118
     3  H    0.153543
     4  H    0.182978
     5  C    0.595086
     6  O   -0.499812
     7  N   -0.610412
     8  H    0.333026
     9  C    0.000583
    10  H    0.146645
    11  C   -0.460541
    12  H    0.167009
    13  H    0.144085
    14  H    0.190148
    15  C    0.558588
    16  O   -0.511366
    17  N   -0.579668
    18  H    0.332453
    19  C   -0.314438
    20  H    0.206335
    21  H    0.160027
    22  H    0.162251
 Sum of Mulliken atomic charges =   0.00000

 Dipole moment (field-independent basis, Debye):
    X=              2.3052    Y=             -2.8638    Z=             -0.9945  Tot=              3.8085
 Quadrupole moment (field-independent basis, Debye-Ang):
   XX=            -61.0090   YY=            -57.8483   ZZ=            -61.6099
   XY=              1.3126   XZ=            -12.0293   YZ=             -1.0200

 Normal termination of Gaussian 09 at Fri Feb 10 21:04:05 2017.
