 Gaussian 09, Revision A.02,
 Gaussian 09:  EM64L-G09RevA.02 11-Jun-2009

 ----------------------------------------------------------------------
 # b3lyp/6-31G* Opt=(ModRedundant, maxcycles=1000, calcfc) geom=nocrowd
 ----------------------------------------------------------------------

 ------------------
 Phi Psi fixed scan
 ------------------
 Symbolic Z-matrix:
 Charge =  0 Multiplicity = 1

 SCF Done:  E(RB3LYP) =  -495.834403957     A.U. after   15 cycles

  Exact polarizability:   0.000   0.000   0.000   0.000   0.000   0.000
 Approx polarizability: 119.531  -9.741 105.737  -5.124  -8.938 110.241

 SCF Done:  E(RB3LYP) =  -495.838393154     A.U. after   12 cycles
 SCF Done:  E(RB3LYP) =  -495.842873723     A.U. after   13 cycles
 SCF Done:  E(RB3LYP) =  -495.844304638     A.U. after   13 cycles
 SCF Done:  E(RB3LYP) =  -495.842678847     A.U. after   13 cycles
 SCF Done:  E(RB3LYP) =  -495.844682439     A.U. after   12 cycles
 SCF Done:  E(RB3LYP) =  -495.845266059     A.U. after   12 cycles
 SCF Done:  E(RB3LYP) =  -495.845396968     A.U. after   13 cycles
 SCF Done:  E(RB3LYP) =  -495.845903708     A.U. after   12 cycles
 SCF Done:  E(RB3LYP) =  -495.845910531     A.U. after   12 cycles
 SCF Done:  E(RB3LYP) =  -495.845998022     A.U. after    7 cycles
 SCF Done:  E(RB3LYP) =  -495.845998447     A.U. after    7 cycles
 SCF Done:  E(RB3LYP) =  -495.845999442     A.U. after    7 cycles
 SCF Done:  E(RB3LYP) =  -495.846001950     A.U. after    9 cycles
 SCF Done:  E(RB3LYP) =  -495.846011718     A.U. after   10 cycles
 SCF Done:  E(RB3LYP) =  -495.846033671     A.U. after   10 cycles
 SCF Done:  E(RB3LYP) =  -495.846035571     A.U. after    9 cycles
 SCF Done:  E(RB3LYP) =  -495.846036010     A.U. after    8 cycles
 SCF Done:  E(RB3LYP) =  -495.846036216     A.U. after    9 cycles
 SCF Done:  E(RB3LYP) =  -495.846036320     A.U. after    7 cycles
 Optimization completed on the basis of negligible forces.
    -- Stationary point found.

                         Standard orientation:
 ---------------------------------------------------------------------
 Center     Atomic      Atomic             Coordinates (Angstroms)
 Number     Number       Type             X           Y           Z
 ---------------------------------------------------------------------
      1          1           0       -4.079446   -1.340649   -0.455370
      2          6           0       -3.163671   -1.358914    0.139249
      3          1           0       -2.672236   -2.330307    0.024716
      4          1           0       -3.444672   -1.236212    1.192216
      5          6           0       -2.281946   -0.191370   -0.283987
      6          8           0       -2.748138    0.876196   -0.659664
      7          7           0       -0.929407   -0.447369   -0.243969
      8          1           0       -0.656021   -1.247697    0.317437
      9          6           0        0.073795    0.626054   -0.212711
     10          1           0        0.152854    1.051138   -1.220763
     11          6           0       -0.237273    1.752518    0.788899
     12          1           0       -0.271015    1.343580    1.803071
     13          1           0        0.550999    2.513564    0.750410
     14          1           0       -1.192741    2.218139    0.546452
     15          6           0        1.389009   -0.049310    0.209023
     16          8           0        1.462020   -0.667806    1.267386
     17          7           0        2.412860    0.045065   -0.681540
     18          1           0        2.259739    0.563208   -1.534690
     19          6           0        3.731262   -0.512661   -0.430415
     20          1           0        3.687359   -1.033740    0.526683
     21          1           0        4.009950   -1.224016   -1.215981
     22          1           0        4.492943    0.274101   -0.377749
 ---------------------------------------------------------------------

 The electronic state is 1-A.
 Alpha  occ. eigenvalues --  -19.12151 -19.10697 -14.37635 -14.35422 -10.29456
 Alpha  occ. eigenvalues --  -10.28340 -10.23789 -10.22717 -10.18783 -10.17473
 Alpha  occ. eigenvalues --   -1.04260  -1.02483  -0.93198  -0.91694  -0.77772
 Alpha  occ. eigenvalues --   -0.72743  -0.71396  -0.64447  -0.59538  -0.56813
 Alpha  occ. eigenvalues --   -0.53527  -0.48403  -0.47315  -0.46467  -0.45409
 Alpha  occ. eigenvalues --   -0.44378  -0.42630  -0.41003  -0.40388  -0.39996
 Alpha  occ. eigenvalues --   -0.39152  -0.38197  -0.36630  -0.36158  -0.34399
 Alpha  occ. eigenvalues --   -0.26588  -0.26254  -0.25412  -0.24069
 Alpha virt. eigenvalues --    0.01697   0.02729   0.06498   0.09057   0.11511
 Alpha virt. eigenvalues --    0.13601   0.13839   0.15073   0.15775   0.15827
 Alpha virt. eigenvalues --    0.16426   0.16928   0.18499   0.19060   0.20222

 Mulliken atomic charges:
              1
     1  H    0.185481
     2  C   -0.542603
     3  H    0.155877
     4  H    0.181184
     5  C    0.592415
     6  O   -0.506037
     7  N   -0.606261
     8  H    0.337968
     9  C    0.006299
    10  H    0.143602
    11  C   -0.465408
    12  H    0.165966
    13  H    0.139960
    14  H    0.197339
    15  C    0.576615
    16  O   -0.528232
    17  N   -0.583737
    18  H    0.331546
    19  C   -0.314858
    20  H    0.207490
    21  H    0.162777
    22  H    0.162616
 Sum of Mulliken atomic charges =   0.00000

 Dipole moment (field-independent basis, Debye):
    X=              3.0088    Y=             -0.9094    Z=             -1.4342  Tot=              3.4550
 Quadrupole moment (field-independent basis, Debye-Ang):
   XX=            -56.8320   YY=            -59.3796   ZZ=            -61.5938
   XY=              8.5698   XZ=            -10.0257   YZ=              1.2755

 Normal termination of Gaussian 09 at Fri Feb 10 20:58:09 2017.
