 Gaussian 09, Revision A.02,
 Gaussian 09:  EM64L-G09RevA.02 11-Jun-2009

 -------------------
 #SP MP2/aug-cc-pVDZ
 -------------------

 -------------------------------
 Single Point calculation at MP2
 -------------------------------
 Symbolic Z-matrix:
 Charge =  0 Multiplicity = 1

                         Standard orientation:
 ---------------------------------------------------------------------
 Center     Atomic      Atomic             Coordinates (Angstroms)
 Number     Number       Type             X           Y           Z
 ---------------------------------------------------------------------
      1          1           0       -2.379700   -1.003400    1.971801
      2          6           0       -2.943999   -0.498000    1.177901
      3          1           0       -3.331798    0.443201    1.584801
      4          1           0       -3.777700   -1.137799    0.885001
      5          6           0       -2.046399   -0.278700   -0.035999
      6          8           0       -2.099500   -0.980200   -1.025399
      7          7           0       -1.231598    0.852099    0.067601
      8          1           0       -1.250897    1.243499    1.005101
      9          6           0        0.111402    0.988997   -0.526899
     10          1           0       -0.037298    0.998697   -1.613999
     11          6           0        0.678904    2.347997   -0.113199
     12          1           0        0.832704    2.418097    0.973001
     13          1           0        1.632504    2.547896   -0.611699
     14          1           0       -0.021796    3.138697   -0.397299
     15          6           0        1.026601   -0.253004   -0.319999
     16          8           0        0.733800   -1.349103   -0.768199
     17          7           0        2.193001   -0.025305    0.365301
     18          1           0        2.381402    0.892695    0.736301
     19          6           0        3.162700   -1.078106    0.614101
     20          1           0        2.823999   -1.964805    0.076701
     21          1           0        4.155700   -0.790007    0.250201
     22          1           0        3.233400   -1.315006    1.683101
 ---------------------------------------------------------------------

 SCF Done:  E(RHF) =  -492.901141047     A.U. after   14 cycles
 E2 =    -0.1604439721D+01 EUMP2 =    -0.49450558076777D+03

 The electronic state is 1-A.
 Alpha  occ. eigenvalues --  -20.52622 -20.52503 -15.59745 -15.59473 -11.35937
 Alpha  occ. eigenvalues --  -11.35520 -11.29953 -11.26853 -11.25798 -11.24326
 Alpha  occ. eigenvalues --   -1.38622  -1.37488  -1.23767  -1.22790  -1.05937
 Alpha  occ. eigenvalues --   -0.99006  -0.95649  -0.88902  -0.79563  -0.78150
 Alpha  occ. eigenvalues --   -0.71545  -0.67151  -0.66071  -0.64374  -0.61904
 Alpha  occ. eigenvalues --   -0.61396  -0.59368  -0.58210  -0.57661  -0.56417
 Alpha  occ. eigenvalues --   -0.55240  -0.54792  -0.53351  -0.50903  -0.49843
 Alpha  occ. eigenvalues --   -0.44409  -0.41832  -0.39090  -0.37903
 Alpha virt. eigenvalues --    0.02238   0.03566   0.03805   0.04594   0.05431
 Alpha virt. eigenvalues --    0.05675   0.06405   0.06762   0.07287   0.07805
 Alpha virt. eigenvalues --    0.08879   0.09238   0.10971   0.11794   0.12676

 Mulliken atomic charges:
              1
     1  H    0.052684
     2  C    0.300520
     3  H   -0.019524
     4  H   -0.061568
     5  C    0.642696
     6  O   -0.780632
     7  N   -0.620423
     8  H    0.004928
     9  C    0.174013
    10  H   -0.102214
    11  C    0.748265
    12  H    0.052277
    13  H   -0.050581
    14  H   -0.140025
    15  C    0.920954
    16  O   -0.810808
    17  N   -0.555716
    18  H   -0.146710
    19  C    0.765008
    20  H   -0.152548
    21  H   -0.130541
    22  H   -0.090056
 Sum of Mulliken atomic charges =   0.00000

 Dipole moment (field-independent basis, Debye):
    X=              2.6605    Y=              4.9510    Z=              4.7237  Tot=              7.3419
 Quadrupole moment (field-independent basis, Debye-Ang):
   XX=            -54.6583   YY=            -63.2587   ZZ=            -62.0004
   XY=             -0.8751   XZ=             -5.1288   YZ=             -4.6858

 Normal termination of Gaussian 09 at Mon Feb 13 20:03:02 2017.
