 Gaussian 09, Revision A.02,
 Gaussian 09:  EM64L-G09RevA.02 11-Jun-2009

 -------------------
 #SP MP2/aug-cc-pVDZ
 -------------------

 -------------------------------
 Single Point calculation at MP2
 -------------------------------
 Symbolic Z-matrix:
 Charge =  0 Multiplicity = 1

                         Standard orientation:
 ---------------------------------------------------------------------
 Center     Atomic      Atomic             Coordinates (Angstroms)
 Number     Number       Type             X           Y           Z
 ---------------------------------------------------------------------
      1          1           0       -3.576609   -1.693793   -0.088001
      2          6           0       -3.082903   -0.881297    0.448999
      3          1           0       -2.881006   -1.224898    1.470599
      4          1           0       -3.752296   -0.016392    0.500299
      5          6           0       -1.763001   -0.568907   -0.233901
      6          8           0       -1.088207   -1.422712   -0.796301
      7          7           0       -1.371490    0.749290   -0.201401
      8          1           0       -1.828786    1.336994    0.484799
      9          6           0        0.019212    1.088479   -0.493701
     10          1           0        0.168811    0.993278   -1.576601
     11          6           0        0.299723    2.530877   -0.065401
     12          1           0        0.211124    2.621778    1.022699
     13          1           0        1.316426    2.820169   -0.347501
     14          1           0       -0.401771    3.222283   -0.545101
     15          6           0        0.984905    0.133672    0.245199
     16          8           0        0.880103   -0.054727    1.450299
     17          7           0        2.017301   -0.343736   -0.509801
     18          1           0        1.855701   -0.394535   -1.506901
     19          6           0        2.950894   -1.309143    0.052299
     20          1           0        3.181596   -1.009545    1.075699
     21          1           0        2.528786   -2.322140    0.076899
     22          1           0        3.869194   -1.314650   -0.541401
 ---------------------------------------------------------------------

 SCF Done:  E(RHF) =  -492.926131862     A.U. after   15 cycles
 E2 =    -0.1601806676D+01 EUMP2 =    -0.49452793853759D+03

 The electronic state is 1-A.
 Alpha  occ. eigenvalues --  -20.53488 -20.52715 -15.59626 -15.58861 -11.36308
 Alpha  occ. eigenvalues --  -11.35349 -11.29365 -11.26056 -11.24606 -11.24465
 Alpha  occ. eigenvalues --   -1.39179  -1.37677  -1.23891  -1.22588  -1.05642
 Alpha  occ. eigenvalues --   -0.99287  -0.95346  -0.87262  -0.80032  -0.77539
 Alpha  occ. eigenvalues --   -0.71507  -0.68267  -0.67109  -0.63255  -0.62095
 Alpha  occ. eigenvalues --   -0.61308  -0.59413  -0.58241  -0.57292  -0.55441
 Alpha  occ. eigenvalues --   -0.54123  -0.53950  -0.52809  -0.51877  -0.49549
 Alpha  occ. eigenvalues --   -0.43375  -0.42622  -0.39963  -0.38805
 Alpha virt. eigenvalues --    0.03077   0.03746   0.04403   0.04703   0.05716
 Alpha virt. eigenvalues --    0.06240   0.06326   0.07050   0.07281   0.07725
 Alpha virt. eigenvalues --    0.09124   0.09234   0.10874   0.12056   0.13229

 Mulliken atomic charges:
              1
     1  H   -0.005094
     2  C    0.321683
     3  H    0.082002
     4  H   -0.073693
     5  C    0.630752
     6  O   -0.862948
     7  N   -0.472133
     8  H    0.007771
     9  C    0.119404
    10  H   -0.320471
    11  C    0.684500
    12  H   -0.000731
    13  H   -0.079248
    14  H   -0.038566
    15  C    1.170076
    16  O   -0.929990
    17  N   -0.542615
    18  H   -0.070611
    19  C    0.731486
    20  H   -0.112954
    21  H   -0.055377
    22  H   -0.183244
 Sum of Mulliken atomic charges =   0.00000

 Dipole moment (field-independent basis, Debye):
    X=             -0.6992    Y=              2.5848    Z=             -1.4312  Tot=              3.0362
 Quadrupole moment (field-independent basis, Debye-Ang):
   XX=            -49.8124   YY=            -60.7286   ZZ=            -64.9201
   XY=             -3.7684   XZ=             -7.7142   YZ=             -1.4602

 Normal termination of Gaussian 09 at Mon Feb 13 18:04:04 2017.
