 Gaussian 09, Revision A.02,
 Gaussian 09:  EM64L-G09RevA.02 11-Jun-2009

 -------------------
 #SP MP2/aug-cc-pVDZ
 -------------------

 -------------------------------
 Single Point calculation at MP2
 -------------------------------
 Symbolic Z-matrix:
 Charge =  0 Multiplicity = 1

                         Standard orientation:
 ---------------------------------------------------------------------
 Center     Atomic      Atomic             Coordinates (Angstroms)
 Number     Number       Type             X           Y           Z
 ---------------------------------------------------------------------
      1          1           0        3.310799   -1.610088   -0.666603
      2          6           0        3.207195   -0.573288   -0.336503
      3          1           0        3.453892    0.096513   -1.166603
      4          1           0        3.933094   -0.412385    0.467997
      5          6           0        1.804094   -0.373794    0.222697
      6          8           0        1.284897   -1.184496    0.979897
      7          7           0        1.183589    0.787004   -0.157503
      8          1           0        1.667987    1.395605   -0.802603
      9          6           0       -0.144013    1.218898    0.285397
     10          1           0       -0.085814    1.523098    1.337197
     11          6           0       -0.589318    2.423696   -0.552703
     12          1           0       -0.684116    2.151796   -1.610303
     13          1           0       -1.561719    2.770792   -0.195803
     14          1           0        0.125979    3.250099   -0.462303
     15          6           0       -1.270208    0.160694    0.282297
     16          8           0       -2.233709    0.339190    1.016397
     17          7           0       -1.197804   -0.837206   -0.643103
     18          1           0       -0.281503   -1.046602   -1.010303
     19          6           0       -2.163500   -1.925410   -0.630303
     20          1           0       -3.128002   -1.521314   -0.320903
     21          1           0       -2.250898   -2.351110   -1.634403
     22          1           0       -1.875197   -2.717309    0.073197
 ---------------------------------------------------------------------

 SCF Done:  E(RHF) =  -492.920454825     A.U. after   14 cycles
 E2 =    -0.1603123641D+01 EUMP2 =    -0.49452357846609D+03

 The electronic state is 1-A.
 Alpha  occ. eigenvalues --  -20.54204 -20.52374 -15.61221 -15.58411 -11.37548
 Alpha  occ. eigenvalues --  -11.35388 -11.29655 -11.25935 -11.25792 -11.24794
 Alpha  occ. eigenvalues --   -1.39762  -1.37720  -1.25239  -1.22106  -1.06302
 Alpha  occ. eigenvalues --   -1.00177  -0.95091  -0.88091  -0.81553  -0.77759
 Alpha  occ. eigenvalues --   -0.71253  -0.69428  -0.67756  -0.62625  -0.62566
 Alpha  occ. eigenvalues --   -0.62009  -0.59674  -0.58845  -0.58186  -0.55749
 Alpha  occ. eigenvalues --   -0.54828  -0.54151  -0.53753  -0.52043  -0.49685
 Alpha  occ. eigenvalues --   -0.43640  -0.43044  -0.40319  -0.38221
 Alpha virt. eigenvalues --    0.02232   0.03756   0.04039   0.04632   0.05763
 Alpha virt. eigenvalues --    0.05956   0.06285   0.06767   0.07117   0.08254
 Alpha virt. eigenvalues --    0.08541   0.09564   0.11524   0.11673   0.12062

 Mulliken atomic charges:
              1
     1  H    0.022707
     2  C    0.401835
     3  H   -0.154068
     4  H    0.061817
     5  C    0.398671
     6  O   -0.826525
     7  N   -0.381659
     8  H   -0.051347
     9  C    0.349478
    10  H   -0.144881
    11  C    0.563280
    12  H    0.002787
    13  H   -0.060320
    14  H   -0.077142
    15  C    1.064745
    16  O   -0.931317
    17  N   -0.527772
    18  H   -0.067305
    19  C    0.725424
    20  H   -0.126265
    21  H   -0.168413
    22  H   -0.073733
 Sum of Mulliken atomic charges =   0.00000

 Dipole moment (field-independent basis, Debye):
    X=              4.1256    Y=              1.6869    Z=             -4.5646  Tot=              6.3798
 Quadrupole moment (field-independent basis, Debye-Ang):
   XX=            -60.5587   YY=            -57.2491   ZZ=            -64.9581
   XY=              5.5227   XZ=              1.3165   YZ=              2.8019

 Normal termination of Gaussian 09 at Mon Feb 13 20:04:54 2017.
