 Gaussian 09, Revision A.02,
 Gaussian 09:  EM64L-G09RevA.02 11-Jun-2009

 -------------------
 #SP MP2/aug-cc-pVDZ
 -------------------

 -------------------------------
 Single Point calculation at MP2
 -------------------------------
 Symbolic Z-matrix:
 Charge =  0 Multiplicity = 1

                         Standard orientation:
 ---------------------------------------------------------------------
 Center     Atomic      Atomic             Coordinates (Angstroms)
 Number     Number       Type             X           Y           Z
 ---------------------------------------------------------------------
      1          1           0        3.527193   -1.381379   -1.141405
      2          6           0        3.330186   -0.430281   -0.641805
      3          1           0        3.482281    0.389320   -1.352305
      4          1           0        4.059286   -0.324976    0.169895
      5          6           0        1.925187   -0.477691   -0.046705
      6          8           0        1.471494   -1.488394    0.462395
      7          7           0        1.232378    0.706605   -0.135605
      8          1           0        1.736273    1.501708   -0.504805
      9          6           0       -0.038524    1.029196    0.526395
     10          1           0        0.135076    1.093297    1.608695
     11          6           0       -0.526833    2.391593    0.026895
     12          1           0       -0.670233    2.407292   -1.059905
     13          1           0       -1.475735    2.655386    0.500995
     14          1           0        0.203161    3.171198    0.277395
     15          6           0       -1.106316   -0.097911    0.436295
     16          8           0       -1.312911   -0.847313    1.374595
     17          7           0       -1.938416   -0.036917   -0.655205
     18          1           0       -1.590820    0.439585   -1.477005
     19          6           0       -2.938409   -1.073024   -0.872505
     20          1           0       -3.396608   -1.311927    0.088195
     21          1           0       -3.703012   -0.698129   -1.558805
     22          1           0       -2.505003   -1.994821   -1.282605
 ---------------------------------------------------------------------

 SCF Done:  E(RHF) =  -492.907615011     A.U. after   14 cycles
 E2 =    -0.1603018510D+01 EUMP2 =    -0.49451063352072D+03

 The electronic state is 1-A.
 Alpha  occ. eigenvalues --  -20.52819 -20.52333 -15.60290 -15.58914 -11.36264
 Alpha  occ. eigenvalues --  -11.35313 -11.29809 -11.26166 -11.25503 -11.24892
 Alpha  occ. eigenvalues --   -1.38635  -1.37553  -1.24356  -1.22223  -1.06118
 Alpha  occ. eigenvalues --   -0.99400  -0.94967  -0.88652  -0.80747  -0.77498
 Alpha  occ. eigenvalues --   -0.69782  -0.69201  -0.67010  -0.63545  -0.61945
 Alpha  occ. eigenvalues --   -0.61244  -0.59217  -0.58072  -0.57843  -0.55804
 Alpha  occ. eigenvalues --   -0.55198  -0.54523  -0.53727  -0.51300  -0.50142
 Alpha  occ. eigenvalues --   -0.42939  -0.41370  -0.39407  -0.38574
 Alpha virt. eigenvalues --    0.02249   0.03512   0.03908   0.04572   0.05536
 Alpha virt. eigenvalues --    0.05950   0.06018   0.06666   0.07191   0.07916
 Alpha virt. eigenvalues --    0.08591   0.09162   0.11595   0.11841   0.12207

 Mulliken atomic charges:
              1
     1  H    0.004098
     2  C    0.402160
     3  H   -0.123868
     4  H    0.061466
     5  C    0.519118
     6  O   -0.797330
     7  N   -0.533718
     8  H   -0.082635
     9  C    0.466608
    10  H   -0.195880
    11  C    0.678879
    12  H   -0.026764
    13  H   -0.060050
    14  H   -0.104677
    15  C    0.959221
    16  O   -0.833992
    17  N   -0.637846
    18  H   -0.069917
    19  C    0.719274
    20  H   -0.109616
    21  H   -0.183168
    22  H   -0.051363
 Sum of Mulliken atomic charges =   0.00000

 Dipole moment (field-independent basis, Debye):
    X=              1.2500    Y=              5.3173    Z=             -4.4591  Tot=              7.0512
 Quadrupole moment (field-independent basis, Debye-Ang):
   XX=            -52.1420   YY=            -63.0582   ZZ=            -62.9405
   XY=              3.5689   XZ=              2.6316   YZ=              5.1149

 Normal termination of Gaussian 09 at Mon Feb 13 20:06:41 2017.
