 Gaussian 09, Revision A.02,
 Gaussian 09:  EM64L-G09RevA.02 11-Jun-2009

 -------------------
 #SP MP2/aug-cc-pVDZ
 -------------------

 -------------------------------
 Single Point calculation at MP2
 -------------------------------
 Symbolic Z-matrix:
 Charge =  0 Multiplicity = 1

                         Standard orientation:
 ---------------------------------------------------------------------
 Center     Atomic      Atomic             Coordinates (Angstroms)
 Number     Number       Type             X           Y           Z
 ---------------------------------------------------------------------
      1          1           0       -3.525588   -1.753203   -0.031508
      2          6           0       -3.036892   -0.936301    0.503892
      3          1           0       -2.834390   -1.278600    1.525492
      4          1           0       -3.713096   -0.076904    0.553392
      5          6           0       -1.717893   -0.619495   -0.180508
      6          8           0       -1.013989   -1.485892   -0.688608
      7          7           0       -1.367199    0.706507   -0.213708
      8          1           0       -1.869902    1.326704    0.408792
      9          6           0        0.005599    1.104913   -0.534408
     10          1           0        0.150599    0.969614   -1.613608
     11          6           0        0.209592    2.576214   -0.173508
     12          1           0        0.146692    2.703513    0.912092
     13          1           0        1.199691    2.912218   -0.496008
     14          1           0       -0.542811    3.204910   -0.662308
     15          6           0        1.032103    0.235817    0.231192
     16          8           0        1.101803    0.282618    1.453292
     17          7           0        1.893606   -0.475079   -0.552808
     18          1           0        1.530407   -0.733880   -1.461408
     19          6           0        2.820910   -1.415174    0.061092
     20          1           0        3.264108   -0.943172    0.939292
     21          1           0        2.317314   -2.336477    0.381792
     22          1           0        3.609111   -1.664371   -0.654408
 ---------------------------------------------------------------------

 SCF Done:  E(RHF) =  -492.925733922     A.U. after   15 cycles
 E2 =    -0.1602132036D+01 EUMP2 =    -0.49452786595715D+03

 The electronic state is 1-A.
 Alpha  occ. eigenvalues --  -20.53803 -20.52853 -15.60083 -15.58481 -11.36743
 Alpha  occ. eigenvalues --  -11.35278 -11.29459 -11.25787 -11.24965 -11.24259
 Alpha  occ. eigenvalues --   -1.39367  -1.37806  -1.24211  -1.22368  -1.05753
 Alpha  occ. eigenvalues --   -0.99503  -0.95235  -0.87171  -0.80398  -0.77189
 Alpha  occ. eigenvalues --   -0.71487  -0.68651  -0.67245  -0.63401  -0.62016
 Alpha  occ. eigenvalues --   -0.61454  -0.59503  -0.58415  -0.57420  -0.55174
 Alpha  occ. eigenvalues --   -0.54054  -0.53824  -0.52717  -0.51732  -0.50055
 Alpha  occ. eigenvalues --   -0.43703  -0.43103  -0.40113  -0.38421
 Alpha virt. eigenvalues --    0.03020   0.03873   0.04316   0.04793   0.05654
 Alpha virt. eigenvalues --    0.06305   0.06398   0.06983   0.07282   0.07889
 Alpha virt. eigenvalues --    0.09079   0.09356   0.11017   0.11998   0.13314

 Mulliken atomic charges:
              1
     1  H    0.002314
     2  C    0.360191
     3  H    0.075464
     4  H   -0.091287
     5  C    0.582587
     6  O   -0.869113
     7  N   -0.490502
     8  H    0.001482
     9  C    0.194651
    10  H   -0.333864
    11  C    0.657726
    12  H    0.009835
    13  H   -0.072427
    14  H   -0.039073
    15  C    1.120092
    16  O   -0.899707
    17  N   -0.572538
    18  H   -0.024421
    19  C    0.746888
    20  H   -0.118904
    21  H   -0.055153
    22  H   -0.184239
 Sum of Mulliken atomic charges =   0.00000

 Dipole moment (field-independent basis, Debye):
    X=             -1.6368    Y=              1.9099    Z=             -1.5461  Tot=              2.9525
 Quadrupole moment (field-independent basis, Debye-Ang):
   XX=            -51.5622   YY=            -60.2944   ZZ=            -65.1236
   XY=             -4.4565   XZ=             -7.3993   YZ=             -2.2183

 Normal termination of Gaussian 09 at Mon Feb 13 18:26:13 2017.
