 Gaussian 09, Revision A.02,
 Gaussian 09:  EM64L-G09RevA.02 11-Jun-2009

 -------------------
 #SP MP2/aug-cc-pVDZ
 -------------------

 -------------------------------
 Single Point calculation at MP2
 -------------------------------
 Symbolic Z-matrix:
 Charge =  0 Multiplicity = 1

                         Standard orientation:
 ---------------------------------------------------------------------
 Center     Atomic      Atomic             Coordinates (Angstroms)
 Number     Number       Type             X           Y           Z
 ---------------------------------------------------------------------
      1          1           0       -3.987291   -0.675714   -0.361788
      2          6           0       -3.287286   -0.416729    0.438012
      3          1           0       -3.349402   -1.207128    1.192612
      4          1           0       -3.597466    0.530878    0.888812
      5          6           0       -1.879085   -0.405458   -0.140088
      6          8           0       -1.435806   -1.399667   -0.719488
      7          7           0       -1.200861    0.763528    0.010312
      8          1           0       -1.668646    1.461537    0.572012
      9          6           0        0.172747    1.149399   -0.378088
     10          1           0        0.177349    1.265699   -1.472288
     11          6           0        0.459176    2.520593    0.242812
     12          1           0        0.427475    2.464894    1.337612
     13          1           0        1.457182    2.844572   -0.050388
     14          1           0       -0.275009    3.260308   -0.096388
     15          6           0        1.378327    0.201374   -0.104988
     16          8           0        2.505537    0.685950   -0.178488
     17          7           0        1.146700   -1.094321    0.206512
     18          1           0        0.241892   -1.479602   -0.063688
     19          6           0        2.273181   -2.003345    0.359112
     20          1           0        3.005390   -1.568860    1.043612
     21          1           0        1.907562   -2.947537    0.770312
     22          1           0        2.779877   -2.198755   -0.594988
 ---------------------------------------------------------------------

 SCF Done:  E(RHF) =  -492.918613473     A.U. after   14 cycles
 E2 =    -0.1604234615D+01 EUMP2 =    -0.49452284808835D+03

 The electronic state is 1-A.
 Alpha  occ. eigenvalues --  -20.54740 -20.52209 -15.61771 -15.57403 -11.38388
 Alpha  occ. eigenvalues --  -11.35361 -11.30384 -11.26099 -11.25522 -11.24138
 Alpha  occ. eigenvalues --   -1.40202  -1.37608  -1.25575  -1.21697  -1.06439
 Alpha  occ. eigenvalues --   -1.00201  -0.95032  -0.87760  -0.81974  -0.77245
 Alpha  occ. eigenvalues --   -0.71825  -0.69779  -0.67655  -0.63301  -0.62144
 Alpha  occ. eigenvalues --   -0.61846  -0.59756  -0.58982  -0.58154  -0.55407
 Alpha  occ. eigenvalues --   -0.54292  -0.53801  -0.53422  -0.52224  -0.49661
 Alpha  occ. eigenvalues --   -0.44396  -0.43514  -0.40054  -0.37974
 Alpha virt. eigenvalues --    0.02406   0.03999   0.04365   0.04577   0.05785
 Alpha virt. eigenvalues --    0.06138   0.06450   0.06569   0.07263   0.07941
 Alpha virt. eigenvalues --    0.09276   0.09943   0.11455   0.11677   0.12835

 Mulliken atomic charges:
              1
     1  H    0.055073
     2  C    0.378359
     3  H    0.043555
     4  H   -0.188407
     5  C    0.503768
     6  O   -0.922578
     7  N   -0.485486
     8  H   -0.000966
     9  C    0.256145
    10  H    0.016331
    11  C    0.649270
    12  H   -0.017437
    13  H   -0.108308
    14  H   -0.059580
    15  C    0.743633
    16  O   -0.856046
    17  N   -0.355516
    18  H   -0.035754
    19  C    0.736756
    20  H   -0.117940
    21  H   -0.197049
    22  H   -0.037824
 Sum of Mulliken atomic charges =   0.00000

 Dipole moment (field-independent basis, Debye):
    X=             -4.3931    Y=              1.4366    Z=              1.8102  Tot=              4.9639
 Quadrupole moment (field-independent basis, Debye-Ang):
   XX=            -63.5240   YY=            -59.1044   ZZ=            -61.6980
   XY=             -8.8714   XZ=             -2.5985   YZ=             -2.0185

 Normal termination of Gaussian 09 at Mon Feb 13 18:35:17 2017.
