 Gaussian 09, Revision A.02,
 Gaussian 09:  EM64L-G09RevA.02 11-Jun-2009

 -------------------
 #SP MP2/aug-cc-pVDZ
 -------------------

 -------------------------------
 Single Point calculation at MP2
 -------------------------------
 Symbolic Z-matrix:
 Charge =  0 Multiplicity = 1

                         Standard orientation:
 ---------------------------------------------------------------------
 Center     Atomic      Atomic             Coordinates (Angstroms)
 Number     Number       Type             X           Y           Z
 ---------------------------------------------------------------------
      1          1           0       -3.705595   -1.245714    0.810609
      2          6           0       -2.873493   -0.615615    1.127909
      3          1           0       -2.246895   -1.186516    1.824509
      4          1           0       -3.260792    0.261386    1.660009
      5          6           0       -2.050393   -0.233117   -0.094291
      6          8           0       -2.154494   -0.800217   -1.162491
      7          7           0       -1.241491    0.900682    0.090209
      8          1           0       -1.247690    1.192682    1.064909
      9          6           0        0.122710    1.015179   -0.450391
     10          1           0        0.011910    1.064279   -1.542291
     11          6           0        0.716612    2.343978    0.024809
     12          1           0        0.918112    2.340178    1.104009
     13          1           0        1.647013    2.582576   -0.501491
     14          1           0        0.008514    3.151079   -0.184291
     15          6           0        0.985007   -0.263222   -0.229691
     16          8           0        0.540305   -1.385722   -0.410991
     17          7           0        2.262808   -0.045925    0.216409
     18          1           0        2.599909    0.898775    0.315009
     19          6           0        3.215006   -1.130926    0.387509
     20          1           0        2.660004   -2.066725    0.313209
     21          1           0        3.991306   -1.115728   -0.387891
     22          1           0        3.695806   -1.069727    1.370109
 ---------------------------------------------------------------------

 SCF Done:  E(RHF) =  -492.902357120     A.U. after   14 cycles
 E2 =    -0.1604307754D+01 EUMP2 =    -0.49450666487475D+03

 The electronic state is 1-A.
 Alpha  occ. eigenvalues --  -20.52793 -20.52402 -15.59934 -15.59030 -11.36214
 Alpha  occ. eigenvalues --  -11.35292 -11.30009 -11.26988 -11.25760 -11.23996
 Alpha  occ. eigenvalues --   -1.38879  -1.37307  -1.23684  -1.22817  -1.05735
 Alpha  occ. eigenvalues --   -0.98835  -0.95761  -0.88802  -0.79405  -0.77998
 Alpha  occ. eigenvalues --   -0.71693  -0.66943  -0.65901  -0.64410  -0.62210
 Alpha  occ. eigenvalues --   -0.61308  -0.59356  -0.58068  -0.57393  -0.56456
 Alpha  occ. eigenvalues --   -0.55125  -0.54919  -0.53489  -0.50835  -0.49347
 Alpha  occ. eigenvalues --   -0.44678  -0.41603  -0.39369  -0.38031
 Alpha virt. eigenvalues --    0.02346   0.03567   0.03862   0.04630   0.05503
 Alpha virt. eigenvalues --    0.05882   0.06193   0.06738   0.07296   0.08117
 Alpha virt. eigenvalues --    0.08741   0.09362   0.11264   0.11790   0.12163

 Mulliken atomic charges:
              1
     1  H   -0.065789
     2  C    0.297929
     3  H    0.065320
     4  H   -0.016624
     5  C    0.735560
     6  O   -0.819645
     7  N   -0.631858
     8  H    0.029973
     9  C    0.039190
    10  H   -0.086308
    11  C    0.783887
    12  H    0.015187
    13  H   -0.010441
    14  H   -0.131335
    15  C    0.910424
    16  O   -0.813906
    17  N   -0.532682
    18  H   -0.155131
    19  C    0.758548
    20  H   -0.149485
    21  H   -0.090620
    22  H   -0.132194
 Sum of Mulliken atomic charges =   0.00000

 Dipole moment (field-independent basis, Debye):
    X=              3.4451    Y=              4.4543    Z=              4.0474  Tot=              6.9348
 Quadrupole moment (field-independent basis, Debye-Ang):
   XX=            -54.0980   YY=            -62.8195   ZZ=            -62.4134
   XY=             -0.1976   XZ=             -7.4210   YZ=             -3.6452

 Normal termination of Gaussian 09 at Mon Feb 13 18:54:09 2017.
