 Gaussian 09, Revision A.02,
 Gaussian 09:  EM64L-G09RevA.02 11-Jun-2009

 -------------------------------------------
 # HF/6-31G* Opt=(ModRedundant) geom=nocrowd
 -------------------------------------------

 ------------------
 Phi Psi fixed scan
 ------------------
 Symbolic Z-matrix:
 Charge =  0 Multiplicity = 1

 SCF Done:  E(RHF) =  -492.819804866     A.U. after   15 cycles
 SCF Done:  E(RHF) =  -492.842572834     A.U. after   17 cycles
 SCF Done:  E(RHF) =  -492.848839587     A.U. after   13 cycles
 SCF Done:  E(RHF) =  -492.850038432     A.U. after   16 cycles
 SCF Done:  E(RHF) =  -492.850324877     A.U. after   13 cycles
 SCF Done:  E(RHF) =  -492.850614829     A.U. after   13 cycles
 SCF Done:  E(RHF) =  -492.850775586     A.U. after   13 cycles
 SCF Done:  E(RHF) =  -492.850910171     A.U. after   13 cycles
 SCF Done:  E(RHF) =  -492.851022564     A.U. after   13 cycles
 SCF Done:  E(RHF) =  -492.851068105     A.U. after   11 cycles
 SCF Done:  E(RHF) =  -492.851420352     A.U. after   12 cycles
 SCF Done:  E(RHF) =  -492.851466366     A.U. after   12 cycles
 SCF Done:  E(RHF) =  -492.851491982     A.U. after   11 cycles
 SCF Done:  E(RHF) =  -492.851503307     A.U. after   11 cycles
 SCF Done:  E(RHF) =  -492.851520145     A.U. after   11 cycles
 SCF Done:  E(RHF) =  -492.851529818     A.U. after   11 cycles
 SCF Done:  E(RHF) =  -492.851537912     A.U. after   11 cycles
 SCF Done:  E(RHF) =  -492.851540593     A.U. after   10 cycles
 SCF Done:  E(RHF) =  -492.851540934     A.U. after    9 cycles
 SCF Done:  E(RHF) =  -492.851540955     A.U. after    8 cycles
 Optimization completed.
    -- Stationary point found.

                         Standard orientation:
 ---------------------------------------------------------------------
 Center     Atomic      Atomic             Coordinates (Angstroms)
 Number     Number       Type             X           Y           Z
 ---------------------------------------------------------------------
      1          1           0       -3.624508   -1.613998   -0.252953
      2          6           0       -3.164000   -0.773310   -0.750501
      3          1           0       -3.862954    0.057593   -0.749176
      4          1           0       -2.948916   -1.032455   -1.781202
      5          6           0       -1.916515   -0.376342    0.010000
      6          8           0       -1.746260   -0.691427    1.158093
      7          7           0       -1.010553    0.334929   -0.704875
      8          1           0       -1.245404    0.536843   -1.649890
      9          6           0        0.091457    1.137221   -0.167090
     10          1           0        0.173270    1.986073   -0.831928
     11          6           0       -0.097041    1.683570    1.247541
     12          1           0       -0.115351    0.918965    2.005867
     13          1           0        0.720399    2.366201    1.454735
     14          1           0       -1.025444    2.240102    1.307730
     15          6           0        1.403682    0.379822   -0.385348
     16          8           0        2.182315    0.720564   -1.234483
     17          7           0        1.610437   -0.665821    0.441520
     18          1           0        0.840623   -0.980967    0.990162
     19          6           0        2.734909   -1.557688    0.260786
     20          1           0        3.638442   -0.980117    0.132431
     21          1           0        2.834446   -2.175893    1.143168
     22          1           0        2.612805   -2.198840   -0.606669
 ---------------------------------------------------------------------

 The electronic state is 1-A.
 Alpha  occ. eigenvalues --  -20.53466 -20.52040 -15.59765 -15.57603 -11.36111
 Alpha  occ. eigenvalues --  -11.33772 -11.28345 -11.25121 -11.24173 -11.22336
 Alpha  occ. eigenvalues --   -1.40259  -1.38671  -1.24897  -1.22336  -1.06037
 Alpha  occ. eigenvalues --   -0.99984  -0.95202  -0.89246  -0.79803  -0.77287
 Alpha  occ. eigenvalues --   -0.72199  -0.70181  -0.66050  -0.63673  -0.62713
 Alpha  occ. eigenvalues --   -0.61799  -0.59977  -0.58808  -0.57461  -0.56290
 Alpha  occ. eigenvalues --   -0.55055  -0.54322  -0.52677  -0.51763  -0.51097
 Alpha  occ. eigenvalues --   -0.43810  -0.42503  -0.38546  -0.38306
 Alpha virt. eigenvalues --    0.18390   0.20708   0.20890   0.25060   0.25929
 Alpha virt. eigenvalues --    0.27343   0.29029   0.29841   0.31088   0.32013
 Alpha virt. eigenvalues --    0.32544   0.33659   0.34281   0.35265   0.38178

 Mulliken atomic charges:
              1
     1  H    0.217265
     2  C   -0.586647
     3  H    0.199698
     4  H    0.181560
     5  C    0.755771
     6  O   -0.619962
     7  N   -0.814337
     8  H    0.391569
     9  C   -0.059339
    10  H    0.216724
    11  C   -0.489511
    12  H    0.211570
    13  H    0.176419
    14  H    0.173015
    15  C    0.772499
    16  O   -0.615087
    17  N   -0.790638
    18  H    0.410569
    19  C   -0.274385
    20  H    0.201800
    21  H    0.170682
    22  H    0.170763
 Sum of Mulliken atomic charges =   0.00000

 Dipole moment (field-independent basis, Debye):
    X=             -2.6358    Y=             -0.2571    Z=             -0.7915  Tot=              2.7641
 Quadrupole moment (field-independent basis, Debye-Ang):
   XX=            -61.2928   YY=            -57.3984   ZZ=            -63.7656
   XY=             -6.5730   XZ=             12.9686   YZ=              2.4432

 Normal termination of Gaussian 09 at Thu Feb  9 22:56:51 2017.
