 Gaussian 09, Revision A.02,
 Gaussian 09:  EM64L-G09RevA.02 11-Jun-2009

 -------------------------------------------
 # HF/6-31G* Opt=(ModRedundant) geom=nocrowd
 -------------------------------------------

 ------------------
 Phi Psi fixed scan
 ------------------
 Symbolic Z-matrix:
 Charge =  0 Multiplicity = 1

 SCF Done:  E(RHF) =  -492.815483242     A.U. after   15 cycles
 SCF Done:  E(RHF) =  -492.837353576     A.U. after   15 cycles
 SCF Done:  E(RHF) =  -492.841978630     A.U. after   13 cycles
 SCF Done:  E(RHF) =  -492.842626572     A.U. after   13 cycles
 SCF Done:  E(RHF) =  -492.842552940     A.U. after   13 cycles
 SCF Done:  E(RHF) =  -492.842820578     A.U. after   12 cycles
 SCF Done:  E(RHF) =  -492.842856111     A.U. after   11 cycles
 SCF Done:  E(RHF) =  -492.842909427     A.U. after   12 cycles
 SCF Done:  E(RHF) =  -492.842965246     A.U. after   13 cycles
 SCF Done:  E(RHF) =  -492.842988862     A.U. after   11 cycles
 SCF Done:  E(RHF) =  -492.843380360     A.U. after   12 cycles
 SCF Done:  E(RHF) =  -492.843364769     A.U. after   12 cycles
 SCF Done:  E(RHF) =  -492.843418074     A.U. after   12 cycles
 SCF Done:  E(RHF) =  -492.843426567     A.U. after   10 cycles
 SCF Done:  E(RHF) =  -492.843438991     A.U. after   10 cycles
 SCF Done:  E(RHF) =  -492.843448983     A.U. after   11 cycles
 SCF Done:  E(RHF) =  -492.843451512     A.U. after   11 cycles
 SCF Done:  E(RHF) =  -492.843451928     A.U. after    9 cycles
 SCF Done:  E(RHF) =  -492.843452171     A.U. after    9 cycles
 SCF Done:  E(RHF) =  -492.843452252     A.U. after    8 cycles
 Optimization completed.
    -- Stationary point found.

                         Standard orientation:
 ---------------------------------------------------------------------
 Center     Atomic      Atomic             Coordinates (Angstroms)
 Number     Number       Type             X           Y           Z
 ---------------------------------------------------------------------
      1          1           0       -3.844021   -1.508923    0.346916
      2          6           0       -2.816720   -1.668095    0.054564
      3          1           0       -2.785373   -2.145998   -0.918764
      4          1           0       -2.348146   -2.332330    0.774528
      5          6           0       -2.097368   -0.332089    0.060998
      6          8           0       -2.546372    0.618367    0.631631
      7          7           0       -0.924003   -0.342546   -0.632622
      8          1           0       -0.654127   -1.222617   -1.010610
      9          6           0        0.106504    0.687972   -0.714814
     10          1           0        0.421665    0.708564   -1.755205
     11          6           0       -0.330896    2.097262   -0.333373
     12          1           0       -0.560246    2.167869    0.716070
     13          1           0        0.485497    2.775538   -0.562703
     14          1           0       -1.200035    2.395357   -0.903180
     15          6           0        1.294947    0.232488    0.143827
     16          8           0        1.357708    0.449817    1.320017
     17          7           0        2.225940   -0.503529   -0.513289
     18          1           0        2.236310   -0.475297   -1.506560
     19          6           0        3.421584   -0.967342    0.160347
     20          1           0        3.150190   -1.431072    1.096800
     21          1           0        3.914283   -1.698944   -0.466625
     22          1           0        4.111456   -0.156269    0.368232
 ---------------------------------------------------------------------

 The electronic state is 1-A.
 Alpha  occ. eigenvalues --  -20.52719 -20.51897 -15.59389 -15.58973 -11.34859
 Alpha  occ. eigenvalues --  -11.34569 -11.28666 -11.26284 -11.23061 -11.20960
 Alpha  occ. eigenvalues --   -1.39733  -1.38720  -1.24541  -1.23244  -1.05537
 Alpha  occ. eigenvalues --   -0.98849  -0.96438  -0.88033  -0.79943  -0.77243
 Alpha  occ. eigenvalues --   -0.72381  -0.69775  -0.65956  -0.64303  -0.62749
 Alpha  occ. eigenvalues --   -0.61817  -0.60103  -0.58814  -0.56433  -0.55910
 Alpha  occ. eigenvalues --   -0.54356  -0.53190  -0.52012  -0.51285  -0.51170
 Alpha  occ. eigenvalues --   -0.44206  -0.40869  -0.39698  -0.37828
 Alpha virt. eigenvalues --    0.18235   0.19834   0.21783   0.23541   0.26067
 Alpha virt. eigenvalues --    0.27867   0.28711   0.30609   0.31134   0.31973
 Alpha virt. eigenvalues --    0.32690   0.33779   0.34138   0.35182   0.37017

 Mulliken atomic charges:
              1
     1  H    0.216404
     2  C   -0.592025
     3  H    0.172545
     4  H    0.198868
     5  C    0.759743
     6  O   -0.589630
     7  N   -0.813839
     8  H    0.379607
     9  C   -0.023783
    10  H    0.170003
    11  C   -0.475453
    12  H    0.234645
    13  H    0.152682
    14  H    0.184872
    15  C    0.762562
    16  O   -0.596469
    17  N   -0.798648
    18  H    0.379146
    19  C   -0.276153
    20  H    0.207822
    21  H    0.167782
    22  H    0.179317
 Sum of Mulliken atomic charges =   0.00000

 Dipole moment (field-independent basis, Debye):
    X=              2.7098    Y=             -3.4349    Z=             -5.0503  Tot=              6.6818
 Quadrupole moment (field-independent basis, Debye-Ang):
   XX=            -59.2589   YY=            -57.2681   ZZ=            -62.4331
   XY=              3.8205   XZ=             -2.3240   YZ=             -2.0071

 Normal termination of Gaussian 09 at Thu Feb  9 22:11:50 2017.
