 Gaussian 09, Revision A.02,
 Gaussian 09:  EM64L-G09RevA.02 11-Jun-2009

 -------------------------------------------
 # HF/6-31G* Opt=(ModRedundant) geom=nocrowd
 -------------------------------------------

 ------------------
 Phi Psi fixed scan
 ------------------
 Symbolic Z-matrix:
 Charge =  0 Multiplicity = 1

 SCF Done:  E(RHF) =  -492.818564690     A.U. after   15 cycles
 SCF Done:  E(RHF) =  -492.839220525     A.U. after   15 cycles
 SCF Done:  E(RHF) =  -492.843211583     A.U. after   13 cycles
 SCF Done:  E(RHF) =  -492.843934229     A.U. after   13 cycles
 SCF Done:  E(RHF) =  -492.843741045     A.U. after   12 cycles
 SCF Done:  E(RHF) =  -492.844231360     A.U. after   12 cycles
 SCF Done:  E(RHF) =  -492.844284506     A.U. after   12 cycles
 SCF Done:  E(RHF) =  -492.844363874     A.U. after   13 cycles
 SCF Done:  E(RHF) =  -492.844406814     A.U. after   11 cycles
 SCF Done:  E(RHF) =  -492.844434438     A.U. after   11 cycles
 SCF Done:  E(RHF) =  -492.844602288     A.U. after   12 cycles
 SCF Done:  E(RHF) =  -492.844666895     A.U. after   12 cycles
 SCF Done:  E(RHF) =  -492.844710889     A.U. after   11 cycles
 SCF Done:  E(RHF) =  -492.844746502     A.U. after   11 cycles
 SCF Done:  E(RHF) =  -492.844750356     A.U. after   12 cycles
 SCF Done:  E(RHF) =  -492.844777938     A.U. after   11 cycles
 SCF Done:  E(RHF) =  -492.844780078     A.U. after   10 cycles
 SCF Done:  E(RHF) =  -492.844781862     A.U. after   10 cycles
 SCF Done:  E(RHF) =  -492.844782815     A.U. after   10 cycles
 SCF Done:  E(RHF) =  -492.844783326     A.U. after    9 cycles
 Optimization completed.
    -- Stationary point found.

                         Standard orientation:
 ---------------------------------------------------------------------
 Center     Atomic      Atomic             Coordinates (Angstroms)
 Number     Number       Type             X           Y           Z
 ---------------------------------------------------------------------
      1          1           0       -4.019436   -1.260860    0.155594
      2          6           0       -3.004031   -1.474978   -0.143214
      3          1           0       -2.996741   -1.862128   -1.156579
      4          1           0       -2.598712   -2.237350    0.515150
      5          6           0       -2.178770   -0.209960   -0.006827
      6          8           0       -2.556350    0.716900    0.648946
      7          7           0       -1.005109   -0.247549   -0.699388
      8          1           0       -0.802048   -1.113880   -1.145361
      9          6           0        0.128054    0.658729   -0.624249
     10          1           0        0.452655    0.820915   -1.649106
     11          6           0       -0.151179    2.028374   -0.005260
     12          1           0       -0.400920    1.944481    1.039550
     13          1           0        0.745499    2.633040   -0.110003
     14          1           0       -0.964377    2.523711   -0.516352
     15          6           0        1.263354   -0.027681    0.146709
     16          8           0        1.114240   -0.422075    1.269205
     17          7           0        2.418513   -0.187397   -0.537617
     18          1           0        2.521398    0.265899   -1.415462
     19          6           0        3.605395   -0.716132    0.101866
     20          1           0        3.352283   -1.611510    0.649853
     21          1           0        4.332506   -0.961812   -0.660826
     22          1           0        4.044000   -0.004588    0.793206
 ---------------------------------------------------------------------

 The electronic state is 1-A.
 Alpha  occ. eigenvalues --  -20.52484 -20.51637 -15.59424 -15.58568 -11.34569
 Alpha  occ. eigenvalues --  -11.34491 -11.28617 -11.26295 -11.22713 -11.21563
 Alpha  occ. eigenvalues --   -1.39588  -1.38437  -1.24160  -1.23419  -1.05604
 Alpha  occ. eigenvalues --   -0.98775  -0.96294  -0.88225  -0.80015  -0.77018
 Alpha  occ. eigenvalues --   -0.72420  -0.69611  -0.65949  -0.63672  -0.62745
 Alpha  occ. eigenvalues --   -0.61832  -0.59847  -0.58559  -0.56355  -0.55889
 Alpha  occ. eigenvalues --   -0.55204  -0.53438  -0.52285  -0.51464  -0.50519
 Alpha  occ. eigenvalues --   -0.43529  -0.40570  -0.39557  -0.37965
 Alpha virt. eigenvalues --    0.18693   0.19969   0.21509   0.23675   0.26034
 Alpha virt. eigenvalues --    0.28222   0.29324   0.30821   0.31114   0.31725
 Alpha virt. eigenvalues --    0.32503   0.33869   0.34061   0.34956   0.37260

 Mulliken atomic charges:
              1
     1  H    0.214230
     2  C   -0.593614
     3  H    0.172057
     4  H    0.202953
     5  C    0.763646
     6  O   -0.595275
     7  N   -0.805086
     8  H    0.379780
     9  C   -0.020342
    10  H    0.172152
    11  C   -0.481382
    12  H    0.229869
    13  H    0.149681
    14  H    0.194518
    15  C    0.751349
    16  O   -0.604725
    17  N   -0.793636
    18  H    0.383758
    19  C   -0.275957
    20  H    0.206966
    21  H    0.168570
    22  H    0.180487
 Sum of Mulliken atomic charges =   0.00000

 Dipole moment (field-independent basis, Debye):
    X=              3.2047    Y=             -1.4980    Z=             -4.9943  Tot=              6.1202
 Quadrupole moment (field-independent basis, Debye-Ang):
   XX=            -56.0515   YY=            -57.9908   ZZ=            -62.8648
   XY=              7.5301   XZ=             -0.9149   YZ=              0.1374

 Normal termination of Gaussian 09 at Thu Feb  9 22:17:41 2017.
