 Gaussian 09, Revision A.02,
 Gaussian 09:  EM64L-G09RevA.02 11-Jun-2009

 -------------------------------------------
 # HF/6-31G* Opt=(ModRedundant) geom=nocrowd
 -------------------------------------------

 ------------------
 Phi Psi fixed scan
 ------------------
 Symbolic Z-matrix:
 Charge =  0 Multiplicity = 1

 SCF Done:  E(RHF) =  -492.821734247     A.U. after   15 cycles
 SCF Done:  E(RHF) =  -492.844091730     A.U. after   14 cycles
 SCF Done:  E(RHF) =  -492.848758043     A.U. after   14 cycles
 SCF Done:  E(RHF) =  -492.850011577     A.U. after   13 cycles
 SCF Done:  E(RHF) =  -492.850367033     A.U. after   13 cycles
 SCF Done:  E(RHF) =  -492.850724533     A.U. after   13 cycles
 SCF Done:  E(RHF) =  -492.850860643     A.U. after   13 cycles
 SCF Done:  E(RHF) =  -492.851057349     A.U. after   11 cycles
 SCF Done:  E(RHF) =  -492.851114753     A.U. after   11 cycles
 SCF Done:  E(RHF) =  -492.851143802     A.U. after   11 cycles
 SCF Done:  E(RHF) =  -492.851347530     A.U. after   12 cycles
 SCF Done:  E(RHF) =  -492.851379623     A.U. after   11 cycles
 SCF Done:  E(RHF) =  -492.851430599     A.U. after   11 cycles
 SCF Done:  E(RHF) =  -492.851488709     A.U. after   12 cycles
 SCF Done:  E(RHF) =  -492.851504018     A.U. after   11 cycles
 SCF Done:  E(RHF) =  -492.851510860     A.U. after   11 cycles
 SCF Done:  E(RHF) =  -492.851517051     A.U. after   10 cycles
 SCF Done:  E(RHF) =  -492.851520075     A.U. after   10 cycles
 SCF Done:  E(RHF) =  -492.851520606     A.U. after    9 cycles
 SCF Done:  E(RHF) =  -492.851520816     A.U. after    8 cycles
 Optimization completed.
    -- Stationary point found.

                         Standard orientation:
 ---------------------------------------------------------------------
 Center     Atomic      Atomic             Coordinates (Angstroms)
 Number     Number       Type             X           Y           Z
 ---------------------------------------------------------------------
      1          1           0       -3.747663   -1.467926    0.095137
      2          6           0       -3.197157   -0.850179   -0.598749
      3          1           0       -3.827370   -0.020835   -0.905273
      4          1           0       -2.948050   -1.427875   -1.482316
      5          6           0       -1.962471   -0.312668    0.095592
      6          8           0       -1.853424   -0.320063    1.290840
      7          7           0       -0.994393    0.145577   -0.741246
      8          1           0       -1.194266    0.078477   -1.713317
      9          6           0        0.119392    1.034832   -0.418332
     10          1           0        0.231349    1.686643   -1.274998
     11          6           0       -0.082520    1.931690    0.807330
     12          1           0       -0.109516    1.368256    1.726839
     13          1           0        0.738503    2.636748    0.841669
     14          1           0       -1.011178    2.483370    0.719018
     15          6           0        1.467969    0.317366   -0.325658
     16          8           0        2.477064    0.915340   -0.591224
     17          7           0        1.449555   -0.967457    0.072727
     18          1           0        0.595392   -1.334251    0.424754
     19          6           0        2.676059   -1.685126    0.344595
     20          1           0        3.369649   -1.538712   -0.470176
     21          1           0        3.149350   -1.348507    1.261139
     22          1           0        2.450901   -2.739930    0.431554
 ---------------------------------------------------------------------

 The electronic state is 1-A.
 Alpha  occ. eigenvalues --  -20.53528 -20.51719 -15.59741 -15.57949 -11.36153
 Alpha  occ. eigenvalues --  -11.33827 -11.28461 -11.25321 -11.24292 -11.21921
 Alpha  occ. eigenvalues --   -1.40358  -1.38585  -1.25153  -1.22376  -1.05948
 Alpha  occ. eigenvalues --   -0.99922  -0.95607  -0.88758  -0.79760  -0.77677
 Alpha  occ. eigenvalues --   -0.72572  -0.70194  -0.66234  -0.63023  -0.62445
 Alpha  occ. eigenvalues --   -0.62197  -0.60213  -0.59389  -0.57447  -0.56065
 Alpha  occ. eigenvalues --   -0.54821  -0.54592  -0.52704  -0.52154  -0.49665
 Alpha  occ. eigenvalues --   -0.43982  -0.42498  -0.39303  -0.37777
 Alpha virt. eigenvalues --    0.18731   0.19927   0.20792   0.24641   0.26006
 Alpha virt. eigenvalues --    0.27677   0.28906   0.29726   0.31004   0.32278
 Alpha virt. eigenvalues --    0.32659   0.33798   0.34285   0.35003   0.37135

 Mulliken atomic charges:
              1
     1  H    0.217943
     2  C   -0.589397
     3  H    0.199510
     4  H    0.179866
     5  C    0.745918
     6  O   -0.606207
     7  N   -0.826533
     8  H    0.387420
     9  C   -0.031952
    10  H    0.212452
    11  C   -0.498804
    12  H    0.213546
    13  H    0.194570
    14  H    0.172723
    15  C    0.758376
    16  O   -0.622907
    17  N   -0.786522
    18  H    0.407099
    19  C   -0.274138
    20  H    0.202143
    21  H    0.176818
    22  H    0.168075
 Sum of Mulliken atomic charges =   0.00000

 Dipole moment (field-independent basis, Debye):
    X=             -2.9482    Y=             -1.7259    Z=             -2.3337  Tot=              4.1372
 Quadrupole moment (field-independent basis, Debye-Ang):
   XX=            -64.9670   YY=            -57.2747   ZZ=            -61.6148
   XY=             -6.4990   XZ=             10.8832   YZ=              0.8457

 Normal termination of Gaussian 09 at Thu Feb  9 23:06:25 2017.
