 Gaussian 09, Revision A.02,
 Gaussian 09:  EM64L-G09RevA.02 11-Jun-2009

 -------------------------------------------
 # HF/6-31G* Opt=(ModRedundant) geom=nocrowd
 -------------------------------------------

 ------------------
 Phi Psi fixed scan
 ------------------
 Symbolic Z-matrix:
 Charge =  0 Multiplicity = 1

 SCF Done:  E(RHF) =  -492.814531150     A.U. after   15 cycles
 SCF Done:  E(RHF) =  -492.840007297     A.U. after   16 cycles
 SCF Done:  E(RHF) =  -492.846712108     A.U. after   13 cycles
 SCF Done:  E(RHF) =  -492.848235640     A.U. after   13 cycles
 SCF Done:  E(RHF) =  -492.848390207     A.U. after   11 cycles
 SCF Done:  E(RHF) =  -492.848437211     A.U. after   12 cycles
 SCF Done:  E(RHF) =  -492.848502287     A.U. after   11 cycles
 SCF Done:  E(RHF) =  -492.848512103     A.U. after   11 cycles
 SCF Done:  E(RHF) =  -492.848519170     A.U. after   10 cycles
 SCF Done:  E(RHF) =  -492.848526613     A.U. after   10 cycles
 SCF Done:  E(RHF) =  -492.848930089     A.U. after   10 cycles
 SCF Done:  E(RHF) =  -492.848935750     A.U. after   10 cycles
 SCF Done:  E(RHF) =  -492.848937405     A.U. after    9 cycles
 SCF Done:  E(RHF) =  -492.848937514     A.U. after    8 cycles
 SCF Done:  E(RHF) =  -492.848937568     A.U. after    8 cycles
 SCF Done:  E(RHF) =  -492.848937610     A.U. after    8 cycles
 SCF Done:  E(RHF) =  -492.848937661     A.U. after    8 cycles
 SCF Done:  E(RHF) =  -492.848937757     A.U. after    8 cycles
 SCF Done:  E(RHF) =  -492.848937869     A.U. after    9 cycles
 SCF Done:  E(RHF) =  -492.848937914     A.U. after    8 cycles
 Optimization completed.
    -- Stationary point found.

                         Standard orientation:
 ---------------------------------------------------------------------
 Center     Atomic      Atomic             Coordinates (Angstroms)
 Number     Number       Type             X           Y           Z
 ---------------------------------------------------------------------
      1          1           0       -3.910128   -0.880826    0.946270
      2          6           0       -3.080286   -1.207113    0.336986
      3          1           0       -3.432264   -1.457413   -0.657464
      4          1           0       -2.652186   -2.101817    0.779134
      5          6           0       -2.035854   -0.108183    0.307938
      6          8           0       -2.047100    0.792016    1.102357
      7          7           0       -1.110027   -0.257411   -0.671663
      8          1           0       -1.119246   -1.116419   -1.174435
      9          6           0        0.073053    0.553277   -0.932607
     10          1           0        0.183473    0.562686   -2.011133
     11          6           0       -0.019629    2.008322   -0.481765
     12          1           0       -0.091393    2.122575    0.588395
     13          1           0        0.850899    2.541878   -0.850143
     14          1           0       -0.901744    2.466548   -0.909565
     15          6           0        1.289969   -0.256368   -0.461035
     16          8           0        1.499488   -1.330188   -0.964919
     17          7           0        2.073442    0.263156    0.498415
     18          1           0        1.782306    1.088666    0.965676
     19          6           0        3.187948   -0.482804    1.044918
     20          1           0        3.796740   -0.872710    0.242321
     21          1           0        3.786553    0.182962    1.652089
     22          1           0        2.852778   -1.313760    1.655480
 ---------------------------------------------------------------------

 The electronic state is 1-A.
 Alpha  occ. eigenvalues --  -20.52265 -20.52155 -15.59070 -15.58648 -11.35024
 Alpha  occ. eigenvalues --  -11.34531 -11.28521 -11.26001 -11.23049 -11.22494
 Alpha  occ. eigenvalues --   -1.39519  -1.38756  -1.24002  -1.23522  -1.05867
 Alpha  occ. eigenvalues --   -0.99171  -0.95768  -0.89563  -0.80238  -0.76840
 Alpha  occ. eigenvalues --   -0.72454  -0.69926  -0.65664  -0.64589  -0.62195
 Alpha  occ. eigenvalues --   -0.61914  -0.59553  -0.58884  -0.56631  -0.55943
 Alpha  occ. eigenvalues --   -0.55505  -0.54716  -0.52967  -0.51758  -0.50782
 Alpha  occ. eigenvalues --   -0.43225  -0.41298  -0.39395  -0.38081
 Alpha virt. eigenvalues --    0.19243   0.20993   0.21794   0.23478   0.25725
 Alpha virt. eigenvalues --    0.27042   0.29263   0.30398   0.31345   0.31563
 Alpha virt. eigenvalues --    0.32828   0.33490   0.34087   0.35034   0.37626

 Mulliken atomic charges:
              1
     1  H    0.214019
     2  C   -0.589429
     3  H    0.181739
     4  H    0.197721
     5  C    0.749474
     6  O   -0.610825
     7  N   -0.806824
     8  H    0.399785
     9  C   -0.024071
    10  H    0.209328
    11  C   -0.510252
    12  H    0.205926
    13  H    0.164965
    14  H    0.196100
    15  C    0.772188
    16  O   -0.633536
    17  N   -0.799781
    18  H    0.401784
    19  C   -0.272809
    20  H    0.202975
    21  H    0.169919
    22  H    0.181605
 Sum of Mulliken atomic charges =   0.00000

 Dipole moment (field-independent basis, Debye):
    X=              0.6746    Y=              0.5217    Z=             -0.2190  Tot=              0.8804
 Quadrupole moment (field-independent basis, Debye-Ang):
   XX=            -56.9194   YY=            -61.9679   ZZ=            -61.4675
   XY=             10.6705   XZ=              9.7886   YZ=             -4.3914

 Normal termination of Gaussian 09 at Thu Feb  9 22:47:42 2017.
