 Gaussian 09, Revision A.02,
 Gaussian 09:  EM64L-G09RevA.02 11-Jun-2009

 -------------------------------------------
 # HF/6-31G* Opt=(ModRedundant) geom=nocrowd
 -------------------------------------------

 ------------------
 Phi Psi fixed scan
 ------------------
 Symbolic Z-matrix:
 Charge =  0 Multiplicity = 1

 SCF Done:  E(RHF) =  -492.815050465     A.U. after   15 cycles
 SCF Done:  E(RHF) =  -492.838572898     A.U. after   16 cycles
 SCF Done:  E(RHF) =  -492.845061529     A.U. after   13 cycles
 SCF Done:  E(RHF) =  -492.847901760     A.U. after   14 cycles
 SCF Done:  E(RHF) =  -492.848269576     A.U. after   12 cycles
 SCF Done:  E(RHF) =  -492.848510142     A.U. after   13 cycles
 SCF Done:  E(RHF) =  -492.848667618     A.U. after   12 cycles
 SCF Done:  E(RHF) =  -492.848655917     A.U. after   12 cycles
 SCF Done:  E(RHF) =  -492.848737637     A.U. after   12 cycles
 SCF Done:  E(RHF) =  -492.848750820     A.U. after   10 cycles
 SCF Done:  E(RHF) =  -492.849016802     A.U. after   14 cycles
 SCF Done:  E(RHF) =  -492.849186588     A.U. after   12 cycles
 SCF Done:  E(RHF) =  -492.849153881     A.U. after   12 cycles
 SCF Done:  E(RHF) =  -492.849200051     A.U. after   12 cycles
 SCF Done:  E(RHF) =  -492.849240608     A.U. after   11 cycles
 SCF Done:  E(RHF) =  -492.849248175     A.U. after   11 cycles
 SCF Done:  E(RHF) =  -492.849250790     A.U. after   10 cycles
 SCF Done:  E(RHF) =  -492.849251964     A.U. after    9 cycles
 SCF Done:  E(RHF) =  -492.849252682     A.U. after   10 cycles
 SCF Done:  E(RHF) =  -492.849253043     A.U. after    9 cycles
 Optimization completed.
    -- Stationary point found.

                         Standard orientation:
 ---------------------------------------------------------------------
 Center     Atomic      Atomic             Coordinates (Angstroms)
 Number     Number       Type             X           Y           Z
 ---------------------------------------------------------------------
      1          1           0       -4.010117   -0.840494    0.823690
      2          6           0       -3.146856   -1.170238    0.264768
      3          1           0       -3.446541   -1.458805   -0.736455
      4          1           0       -2.722563   -2.041741    0.754409
      5          6           0       -2.121873   -0.053303    0.244279
      6          8           0       -2.200920    0.887556    0.985019
      7          7           0       -1.140433   -0.231433   -0.678507
      8          1           0       -1.075285   -1.143209   -1.073352
      9          6           0        0.087668    0.529455   -0.832024
     10          1           0        0.275954    0.569441   -1.902327
     11          6           0        0.024292    1.976787   -0.345189
     12          1           0       -0.014691    2.057822    0.730467
     13          1           0        0.889340    2.513625   -0.722900
     14          1           0       -0.859088    2.459020   -0.738547
     15          6           0        1.248675   -0.328912   -0.301776
     16          8           0        1.212251   -1.524276   -0.441066
     17          7           0        2.311166    0.303838    0.227707
     18          1           0        2.236157    1.264558    0.462608
     19          6           0        3.444690   -0.439841    0.738662
     20          1           0        3.783995   -1.147428   -0.003618
     21          1           0        4.244566    0.255264    0.956259
     22          1           0        3.192916   -0.984816    1.641412
 ---------------------------------------------------------------------

 The electronic state is 1-A.
 Alpha  occ. eigenvalues --  -20.52689 -20.51860 -15.59251 -15.57983 -11.34846
 Alpha  occ. eigenvalues --  -11.34610 -11.28654 -11.26169 -11.22622 -11.22617
 Alpha  occ. eigenvalues --   -1.39831  -1.38528  -1.23931  -1.23450  -1.05792
 Alpha  occ. eigenvalues --   -0.98911  -0.95801  -0.89492  -0.80396  -0.76162
 Alpha  occ. eigenvalues --   -0.72707  -0.69649  -0.65614  -0.64625  -0.62345
 Alpha  occ. eigenvalues --   -0.61761  -0.59679  -0.58710  -0.56460  -0.55943
 Alpha  occ. eigenvalues --   -0.55697  -0.54629  -0.53146  -0.51537  -0.50399
 Alpha  occ. eigenvalues --   -0.43008  -0.41077  -0.39757  -0.38156
 Alpha virt. eigenvalues --    0.19151   0.20883   0.21857   0.24179   0.25831
 Alpha virt. eigenvalues --    0.27467   0.29202   0.30472   0.31429   0.32232
 Alpha virt. eigenvalues --    0.33117   0.33247   0.33894   0.34491   0.36712

 Mulliken atomic charges:
              1
     1  H    0.211998
     2  C   -0.590729
     3  H    0.182750
     4  H    0.198841
     5  C    0.746805
     6  O   -0.608078
     7  N   -0.794738
     8  H    0.401622
     9  C   -0.034339
    10  H    0.208443
    11  C   -0.512752
    12  H    0.207879
    13  H    0.151600
    14  H    0.207473
    15  C    0.780021
    16  O   -0.634017
    17  N   -0.805380
    18  H    0.400404
    19  C   -0.272890
    20  H    0.202465
    21  H    0.169432
    22  H    0.183190
 Sum of Mulliken atomic charges =   0.00000

 Dipole moment (field-independent basis, Debye):
    X=              1.9648    Y=              0.7857    Z=             -1.1179  Tot=              2.3932
 Quadrupole moment (field-independent basis, Debye-Ang):
   XX=            -54.5949   YY=            -63.0789   ZZ=            -60.9923
   XY=             11.3468   XZ=              7.0114   YZ=             -2.8802

 Normal termination of Gaussian 09 at Thu Feb  9 22:40:33 2017.
