 Gaussian 09, Revision A.02,
 Gaussian 09:  EM64L-G09RevA.02 11-Jun-2009

 -------------------------------------------
 # HF/6-31G* Opt=(ModRedundant) geom=nocrowd
 -------------------------------------------

 ------------------
 Phi Psi fixed scan
 ------------------
 Symbolic Z-matrix:
 Charge =  0 Multiplicity = 1

 SCF Done:  E(RHF) =  -492.816534440     A.U. after   15 cycles
 SCF Done:  E(RHF) =  -492.840852699     A.U. after   16 cycles
 SCF Done:  E(RHF) =  -492.847619264     A.U. after   14 cycles
 SCF Done:  E(RHF) =  -492.848746820     A.U. after   15 cycles
 SCF Done:  E(RHF) =  -492.848996903     A.U. after   13 cycles
 SCF Done:  E(RHF) =  -492.849156882     A.U. after   13 cycles
 SCF Done:  E(RHF) =  -492.849304883     A.U. after   14 cycles
 SCF Done:  E(RHF) =  -492.849419585     A.U. after   13 cycles
 SCF Done:  E(RHF) =  -492.849522753     A.U. after   13 cycles
 SCF Done:  E(RHF) =  -492.849585998     A.U. after   12 cycles
 SCF Done:  E(RHF) =  -492.850097059     A.U. after   12 cycles
 SCF Done:  E(RHF) =  -492.850101929     A.U. after   12 cycles
 SCF Done:  E(RHF) =  -492.850104656     A.U. after   11 cycles
 SCF Done:  E(RHF) =  -492.850106016     A.U. after    9 cycles
 SCF Done:  E(RHF) =  -492.850106180     A.U. after    8 cycles
 SCF Done:  E(RHF) =  -492.850106331     A.U. after    9 cycles
 SCF Done:  E(RHF) =  -492.850106360     A.U. after    8 cycles
 SCF Done:  E(RHF) =  -492.850106414     A.U. after    8 cycles
 SCF Done:  E(RHF) =  -492.850106460     A.U. after    8 cycles
 SCF Done:  E(RHF) =  -492.850106476     A.U. after    8 cycles
 Optimization completed.
    -- Stationary point found.

                         Standard orientation:
 ---------------------------------------------------------------------
 Center     Atomic      Atomic             Coordinates (Angstroms)
 Number     Number       Type             X           Y           Z
 ---------------------------------------------------------------------
      1          1           0        3.576128   -1.722639   -0.013621
      2          6           0        3.145661   -0.952245    0.609126
      3          1           0        3.882940   -0.167736    0.749689
      4          1           0        2.900195   -1.364225    1.581549
      5          6           0        1.934486   -0.375164   -0.093655
      6          8           0        1.792330   -0.463634   -1.284105
      7          7           0        1.040340    0.233449    0.721945
      8          1           0        1.228523    0.221159    1.698102
      9          6           0       -0.075967    1.090567    0.321939
     10          1           0       -0.152543    1.833894    1.104145
     11          6           0        0.090983    1.843180   -0.996186
     12          1           0        0.129338    1.205681   -1.863298
     13          1           0       -0.740404    2.532435   -1.099709
     14          1           0        1.007950    2.420427   -0.971675
     15          6           0       -1.365781    0.279193    0.480024
     16          8           0       -1.966789    0.292506    1.520457
     17          7           0       -1.762220   -0.429806   -0.597689
     18          1           0       -1.098992   -0.563558   -1.327952
     19          6           0       -2.865854   -1.362577   -0.510358
     20          1           0       -3.710309   -0.878473   -0.042996
     21          1           0       -3.143540   -1.667588   -1.510612
     22          1           0       -2.611625   -2.243564    0.070433
 ---------------------------------------------------------------------

 The electronic state is 1-A.
 Alpha  occ. eigenvalues --  -20.52997 -20.52181 -15.59554 -15.58020 -11.35785
 Alpha  occ. eigenvalues --  -11.33997 -11.28374 -11.25308 -11.23864 -11.22371
 Alpha  occ. eigenvalues --   -1.39896  -1.38856  -1.24641  -1.22690  -1.05977
 Alpha  occ. eigenvalues --   -0.99753  -0.95284  -0.89402  -0.79826  -0.77295
 Alpha  occ. eigenvalues --   -0.72197  -0.70150  -0.65952  -0.64006  -0.62523
 Alpha  occ. eigenvalues --   -0.61819  -0.59824  -0.58797  -0.57228  -0.55958
 Alpha  occ. eigenvalues --   -0.55252  -0.54436  -0.52593  -0.51702  -0.51298
 Alpha  occ. eigenvalues --   -0.43624  -0.42093  -0.38842  -0.38329
 Alpha virt. eigenvalues --    0.18615   0.20901   0.21197   0.24211   0.25967
 Alpha virt. eigenvalues --    0.27097   0.28945   0.30033   0.31013   0.32002
 Alpha virt. eigenvalues --    0.32500   0.33577   0.34320   0.35605   0.38152

 Mulliken atomic charges:
              1
     1  H    0.215703
     2  C   -0.586027
     3  H    0.199742
     4  H    0.179474
     5  C    0.755993
     6  O   -0.619037
     7  N   -0.817149
     8  H    0.394622
     9  C   -0.048724
    10  H    0.214587
    11  C   -0.488398
    12  H    0.206925
    13  H    0.173342
    14  H    0.176863
    15  C    0.771894
    16  O   -0.617422
    17  N   -0.786466
    18  H    0.403930
    19  C   -0.276652
    20  H    0.203181
    21  H    0.170861
    22  H    0.172759
 Sum of Mulliken atomic charges =   0.00000

 Dipole moment (field-independent basis, Debye):
    X=              1.8350    Y=             -0.0670    Z=              0.3092  Tot=              1.8621
 Quadrupole moment (field-independent basis, Debye-Ang):
   XX=            -59.6257   YY=            -56.7727   ZZ=            -65.4077
   XY=              3.1288   XZ=             14.2638   YZ=             -0.8467

 Normal termination of Gaussian 09 at Thu Feb  9 22:54:08 2017.
