 Gaussian 09, Revision A.02,
 Gaussian 09:  EM64L-G09RevA.02 11-Jun-2009

 -------------------------------------------
 # HF/6-31G* Opt=(ModRedundant) geom=nocrowd
 -------------------------------------------

 ------------------
 Phi Psi fixed scan
 ------------------
 Symbolic Z-matrix:
 Charge =  0 Multiplicity = 1

 SCF Done:  E(RHF) =  -492.814217208     A.U. after   15 cycles
 SCF Done:  E(RHF) =  -492.836445081     A.U. after   14 cycles
 SCF Done:  E(RHF) =  -492.842140191     A.U. after   14 cycles
 SCF Done:  E(RHF) =  -492.844429383     A.U. after   16 cycles
 SCF Done:  E(RHF) =  -492.845858906     A.U. after   14 cycles
 SCF Done:  E(RHF) =  -492.846180301     A.U. after   14 cycles
 SCF Done:  E(RHF) =  -492.846905740     A.U. after   12 cycles
 SCF Done:  E(RHF) =  -492.846999379     A.U. after   11 cycles
 SCF Done:  E(RHF) =  -492.847043894     A.U. after   11 cycles
 SCF Done:  E(RHF) =  -492.847114241     A.U. after   11 cycles
 SCF Done:  E(RHF) =  -492.847548852     A.U. after   13 cycles
 SCF Done:  E(RHF) =  -492.847554848     A.U. after   12 cycles
 SCF Done:  E(RHF) =  -492.847637130     A.U. after   11 cycles
 SCF Done:  E(RHF) =  -492.847670594     A.U. after   11 cycles
 SCF Done:  E(RHF) =  -492.847701488     A.U. after   12 cycles
 SCF Done:  E(RHF) =  -492.847719791     A.U. after   12 cycles
 SCF Done:  E(RHF) =  -492.847721827     A.U. after   10 cycles
 SCF Done:  E(RHF) =  -492.847722914     A.U. after    9 cycles
 SCF Done:  E(RHF) =  -492.847723084     A.U. after    9 cycles
 SCF Done:  E(RHF) =  -492.847723099     A.U. after    8 cycles
 Optimization completed.
    -- Stationary point found.

                         Standard orientation:
 ---------------------------------------------------------------------
 Center     Atomic      Atomic             Coordinates (Angstroms)
 Number     Number       Type             X           Y           Z
 ---------------------------------------------------------------------
      1          1           0       -3.746810   -1.451304    0.630005
      2          6           0       -3.123379   -1.217475   -0.220066
      3          1           0       -3.719662   -0.683831   -0.954481
      4          1           0       -2.770150   -2.136047   -0.676377
      5          6           0       -1.978445   -0.337372    0.240064
      6          8           0       -1.995208    0.226676    1.293353
      7          7           0       -0.928520   -0.274107   -0.638317
      8          1           0       -1.119051   -0.681542   -1.526826
      9          6           0        0.087201    0.784212   -0.680586
     10          1           0        0.298149    0.921993   -1.737344
     11          6           0       -0.340389    2.140962   -0.124773
     12          1           0       -0.465816    2.118584    0.945184
     13          1           0        0.421428    2.866897   -0.371503
     14          1           0       -1.276642    2.447305   -0.578435
     15          6           0        1.435165    0.331963   -0.103117
     16          8           0        2.225413    1.132780    0.313650
     17          7           0        1.723271   -0.983336   -0.234537
     18          1           0        0.951226   -1.601466   -0.327920
     19          6           0        2.953534   -1.518503    0.310260
     20          1           0        3.788455   -0.927765   -0.035759
     21          1           0        2.958019   -1.513081    1.395417
     22          1           0        3.073829   -2.536012   -0.038698
 ---------------------------------------------------------------------

 The electronic state is 1-A.
 Alpha  occ. eigenvalues --  -20.53575 -20.52105 -15.59866 -15.57873 -11.35986
 Alpha  occ. eigenvalues --  -11.33997 -11.28649 -11.25328 -11.24288 -11.20903
 Alpha  occ. eigenvalues --   -1.40422  -1.38925  -1.25215  -1.22287  -1.05617
 Alpha  occ. eigenvalues --   -0.99685  -0.95762  -0.87966  -0.80065  -0.76862
 Alpha  occ. eigenvalues --   -0.72178  -0.70381  -0.66229  -0.63699  -0.62684
 Alpha  occ. eigenvalues --   -0.61739  -0.60575  -0.59220  -0.57399  -0.55095
 Alpha  occ. eigenvalues --   -0.54869  -0.53667  -0.52040  -0.51812  -0.50226
 Alpha  occ. eigenvalues --   -0.44340  -0.42329  -0.38900  -0.38738
 Alpha virt. eigenvalues --    0.18020   0.18934   0.21535   0.24943   0.25919
 Alpha virt. eigenvalues --    0.27571   0.28951   0.29894   0.31347   0.31602
 Alpha virt. eigenvalues --    0.32636   0.33724   0.34585   0.35036   0.36567

 Mulliken atomic charges:
              1
     1  H    0.221040
     2  C   -0.595368
     3  H    0.195726
     4  H    0.178478
     5  C    0.748520
     6  O   -0.577089
     7  N   -0.840747
     8  H    0.381371
     9  C   -0.042739
    10  H    0.203265
    11  C   -0.480970
    12  H    0.222791
    13  H    0.192818
    14  H    0.156073
    15  C    0.776558
    16  O   -0.609971
    17  N   -0.790982
    18  H    0.393458
    19  C   -0.277410
    20  H    0.202775
    21  H    0.177511
    22  H    0.164896
 Sum of Mulliken atomic charges =   0.00000

 Dipole moment (field-independent basis, Debye):
    X=             -2.0657    Y=             -3.9071    Z=             -4.2323  Tot=              6.1192
 Quadrupole moment (field-independent basis, Debye-Ang):
   XX=            -62.7093   YY=            -57.9635   ZZ=            -61.6829
   XY=             -3.4502   XZ=              5.5443   YZ=             -2.0895

 Normal termination of Gaussian 09 at Thu Feb  9 22:00:16 2017.
