 Gaussian 09, Revision A.02,
 Gaussian 09:  EM64L-G09RevA.02 11-Jun-2009

 -------------------------------------------
 # HF/6-31G* Opt=(ModRedundant) geom=nocrowd
 -------------------------------------------

 ------------------
 Phi Psi fixed scan
 ------------------
 Symbolic Z-matrix:
 Charge =  0 Multiplicity = 1

 SCF Done:  E(RHF) =  -492.820898595     A.U. after   15 cycles
 SCF Done:  E(RHF) =  -492.840400356     A.U. after   15 cycles
 SCF Done:  E(RHF) =  -492.844772610     A.U. after   13 cycles
 SCF Done:  E(RHF) =  -492.845900372     A.U. after   13 cycles
 SCF Done:  E(RHF) =  -492.845758828     A.U. after   13 cycles
 SCF Done:  E(RHF) =  -492.846467380     A.U. after   12 cycles
 SCF Done:  E(RHF) =  -492.846601706     A.U. after   12 cycles
 SCF Done:  E(RHF) =  -492.846670297     A.U. after   13 cycles
 SCF Done:  E(RHF) =  -492.846761186     A.U. after   12 cycles
 SCF Done:  E(RHF) =  -492.846791929     A.U. after   11 cycles
 SCF Done:  E(RHF) =  -492.846918334     A.U. after   12 cycles
 SCF Done:  E(RHF) =  -492.846981098     A.U. after   11 cycles
 SCF Done:  E(RHF) =  -492.847069634     A.U. after   12 cycles
 SCF Done:  E(RHF) =  -492.847083882     A.U. after   11 cycles
 SCF Done:  E(RHF) =  -492.847085690     A.U. after   10 cycles
 SCF Done:  E(RHF) =  -492.847086806     A.U. after    9 cycles
 SCF Done:  E(RHF) =  -492.847087706     A.U. after    9 cycles
 SCF Done:  E(RHF) =  -492.847088052     A.U. after   10 cycles
 SCF Done:  E(RHF) =  -492.847088191     A.U. after    7 cycles
 SCF Done:  E(RHF) =  -492.847088213     A.U. after    7 cycles
 Optimization completed.
    -- Stationary point found.

                         Standard orientation:
 ---------------------------------------------------------------------
 Center     Atomic      Atomic             Coordinates (Angstroms)
 Number     Number       Type             X           Y           Z
 ---------------------------------------------------------------------
      1          1           0        4.090373   -1.050836   -0.254845
      2          6           0        3.121347   -1.285659    0.159825
      3          1           0        3.227325   -1.555527    1.205104
      4          1           0        2.706786   -2.137595   -0.370504
      5          6           0        2.206999   -0.090988   -0.025400
      6          8           0        2.486561    0.805476   -0.768507
      7          7           0        1.078673   -0.146099    0.738614
      8          1           0        0.930140   -1.021443    1.188794
      9          6           0       -0.132072    0.638647    0.608955
     10          1           0       -0.443623    0.897631    1.618113
     11          6           0        0.000692    1.947332   -0.178723
     12          1           0        0.217003    1.767875   -1.220107
     13          1           0       -0.934574    2.493116   -0.100299
     14          1           0        0.791490    2.559564    0.229221
     15          6           0       -1.236847   -0.235090   -0.001635
     16          8           0       -0.993718   -1.150365   -0.738246
     17          7           0       -2.493832    0.084135    0.378360
     18          1           0       -2.637407    0.908725    0.914011
     19          6           0       -3.649690   -0.556594   -0.213578
     20          1           0       -3.506964   -1.626986   -0.219464
     21          1           0       -4.521610   -0.320198    0.381804
     22          1           0       -3.818147   -0.227350   -1.233300
 ---------------------------------------------------------------------

 The electronic state is 1-A.
 Alpha  occ. eigenvalues --  -20.52878 -20.51633 -15.59231 -15.58101 -11.34686
 Alpha  occ. eigenvalues --  -11.34411 -11.28616 -11.26281 -11.22431 -11.22234
 Alpha  occ. eigenvalues --   -1.39849  -1.38382  -1.23987  -1.23414  -1.05724
 Alpha  occ. eigenvalues --   -0.98731  -0.96046  -0.88614  -0.80058  -0.76486
 Alpha  occ. eigenvalues --   -0.72634  -0.69488  -0.65949  -0.63324  -0.62862
 Alpha  occ. eigenvalues --   -0.61968  -0.59704  -0.58490  -0.56474  -0.55944
 Alpha  occ. eigenvalues --   -0.55519  -0.53711  -0.53139  -0.51543  -0.50307
 Alpha  occ. eigenvalues --   -0.43011  -0.40627  -0.39570  -0.38363
 Alpha virt. eigenvalues --    0.19107   0.20081   0.21645   0.23407   0.26027
 Alpha virt. eigenvalues --    0.28271   0.29295   0.30193   0.31495   0.31653
 Alpha virt. eigenvalues --    0.32792   0.33318   0.34175   0.34588   0.37547

 Mulliken atomic charges:
              1
     1  H    0.212407
     2  C   -0.596203
     3  H    0.176396
     4  H    0.205074
     5  C    0.757247
     6  O   -0.600656
     7  N   -0.791124
     8  H    0.382338
     9  C   -0.029384
    10  H    0.183592
    11  C   -0.475996
    12  H    0.218461
    13  H    0.144507
    14  H    0.203962
    15  C    0.742936
    16  O   -0.605640
    17  N   -0.793297
    18  H    0.384436
    19  C   -0.273822
    20  H    0.205798
    21  H    0.169180
    22  H    0.179787
 Sum of Mulliken atomic charges =   0.00000

 Dipole moment (field-independent basis, Debye):
    X=             -3.2496    Y=              0.1089    Z=              3.8040  Tot=              5.0042
 Quadrupole moment (field-independent basis, Debye-Ang):
   XX=            -54.2648   YY=            -60.5300   ZZ=            -61.8989
   XY=            -10.0316   XZ=              2.0117   YZ=             -0.5009

 Normal termination of Gaussian 09 at Thu Feb  9 22:24:17 2017.
