 Gaussian 09, Revision A.02,
 Gaussian 09:  EM64L-G09RevA.02 11-Jun-2009

 -------------------------------------------
 # HF/6-31G* Opt=(ModRedundant) geom=nocrowd
 -------------------------------------------

 ------------------
 Phi Psi fixed scan
 ------------------
 Symbolic Z-matrix:
 Charge =  0 Multiplicity = 1

 SCF Done:  E(RHF) =  -492.821003096     A.U. after   15 cycles
 SCF Done:  E(RHF) =  -492.843453875     A.U. after   14 cycles
 SCF Done:  E(RHF) =  -492.848093455     A.U. after   13 cycles
 SCF Done:  E(RHF) =  -492.849528272     A.U. after   13 cycles
 SCF Done:  E(RHF) =  -492.849890914     A.U. after   13 cycles
 SCF Done:  E(RHF) =  -492.850257071     A.U. after   13 cycles
 SCF Done:  E(RHF) =  -492.850474469     A.U. after   13 cycles
 SCF Done:  E(RHF) =  -492.850447832     A.U. after   13 cycles
 SCF Done:  E(RHF) =  -492.850613844     A.U. after   13 cycles
 SCF Done:  E(RHF) =  -492.850637326     A.U. after   10 cycles
 SCF Done:  E(RHF) =  -492.850820306     A.U. after   11 cycles
 SCF Done:  E(RHF) =  -492.850813368     A.U. after   12 cycles
 SCF Done:  E(RHF) =  -492.850966979     A.U. after   12 cycles
 SCF Done:  E(RHF) =  -492.850984101     A.U. after   12 cycles
 SCF Done:  E(RHF) =  -492.850990092     A.U. after   10 cycles
 SCF Done:  E(RHF) =  -492.850997144     A.U. after   11 cycles
 SCF Done:  E(RHF) =  -492.850997754     A.U. after    9 cycles
 SCF Done:  E(RHF) =  -492.850997931     A.U. after    8 cycles
 SCF Done:  E(RHF) =  -492.850997968     A.U. after    8 cycles
 SCF Done:  E(RHF) =  -492.850997976     A.U. after    6 cycles
 Optimization completed.
    -- Stationary point found.

                         Standard orientation:
 ---------------------------------------------------------------------
 Center     Atomic      Atomic             Coordinates (Angstroms)
 Number     Number       Type             X           Y           Z
 ---------------------------------------------------------------------
      1          1           0       -3.737288   -1.480684    0.258171
      2          6           0       -3.171131   -0.967864   -0.505153
      3          1           0       -3.802346   -0.208949   -0.957563
      4          1           0       -2.883320   -1.670973   -1.279406
      5          6           0       -1.970093   -0.303800    0.138274
      6          8           0       -1.907492   -0.117903    1.320262
      7          7           0       -0.979550    0.035944   -0.733462
      8          1           0       -1.161480   -0.164686   -1.690660
      9          6           0        0.119050    0.974607   -0.513523
     10          1           0        0.250167    1.493153   -1.455703
     11          6           0       -0.130769    2.044783    0.553782
     12          1           0       -0.181902    1.624911    1.546079
     13          1           0        0.681659    2.757220    0.506655
     14          1           0       -1.062598    2.560842    0.353871
     15          6           0        1.476132    0.305283   -0.277280
     16          8           0        2.477978    0.964475   -0.371873
     17          7           0        1.480372   -1.007290    0.011591
     18          1           0        0.611338   -1.443386    0.211357
     19          6           0        2.703925   -1.690633    0.371219
     20          1           0        3.479563   -1.443199   -0.338310
     21          1           0        3.046072   -1.413642    1.362725
     22          1           0        2.527820   -2.758017    0.344851
 ---------------------------------------------------------------------

 The electronic state is 1-A.
 Alpha  occ. eigenvalues --  -20.53477 -20.51595 -15.59808 -15.58128 -11.36109
 Alpha  occ. eigenvalues --  -11.33894 -11.28514 -11.25427 -11.24305 -11.21538
 Alpha  occ. eigenvalues --   -1.40348  -1.38572  -1.25221  -1.22457  -1.05822
 Alpha  occ. eigenvalues --   -0.99821  -0.95777  -0.88540  -0.79862  -0.77682
 Alpha  occ. eigenvalues --   -0.72612  -0.70232  -0.66301  -0.62936  -0.62564
 Alpha  occ. eigenvalues --   -0.62207  -0.60318  -0.59378  -0.57416  -0.55701
 Alpha  occ. eigenvalues --   -0.54972  -0.54479  -0.52455  -0.52104  -0.49513
 Alpha  occ. eigenvalues --   -0.44035  -0.42404  -0.39175  -0.38020
 Alpha virt. eigenvalues --    0.18948   0.19464   0.20843   0.24407   0.26001
 Alpha virt. eigenvalues --    0.27839   0.28772   0.29738   0.31178   0.32031
 Alpha virt. eigenvalues --    0.32850   0.33892   0.34376   0.35168   0.36564

 Mulliken atomic charges:
              1
     1  H    0.218472
     2  C   -0.591473
     3  H    0.199665
     4  H    0.177573
     5  C    0.742184
     6  O   -0.593528
     7  N   -0.840488
     8  H    0.386551
     9  C   -0.020159
    10  H    0.209389
    11  C   -0.496897
    12  H    0.214427
    13  H    0.199452
    14  H    0.169107
    15  C    0.761164
    16  O   -0.625195
    17  N   -0.789404
    18  H    0.404152
    19  C   -0.273947
    20  H    0.203058
    21  H    0.179194
    22  H    0.166704
 Sum of Mulliken atomic charges =   0.00000

 Dipole moment (field-independent basis, Debye):
    X=             -2.8070    Y=             -2.5407    Z=             -2.9358  Tot=              4.7910
 Quadrupole moment (field-independent basis, Debye-Ang):
   XX=            -65.4505   YY=            -57.0693   ZZ=            -61.4663
   XY=             -5.6879   XZ=              9.6367   YZ=              0.0259

 Normal termination of Gaussian 09 at Thu Feb  9 23:09:53 2017.
