 Gaussian 09, Revision A.02,
 Gaussian 09:  EM64L-G09RevA.02 11-Jun-2009

 -------------------------------------------
 # HF/6-31G* Opt=(ModRedundant) geom=nocrowd
 -------------------------------------------

 ------------------
 Phi Psi fixed scan
 ------------------
 Symbolic Z-matrix:
 Charge =  0 Multiplicity = 1

 SCF Done:  E(RHF) =  -492.822378489     A.U. after   15 cycles
 SCF Done:  E(RHF) =  -492.844495451     A.U. after   16 cycles
 SCF Done:  E(RHF) =  -492.849236245     A.U. after   14 cycles
 SCF Done:  E(RHF) =  -492.850551685     A.U. after   13 cycles
 SCF Done:  E(RHF) =  -492.850947428     A.U. after   13 cycles
 SCF Done:  E(RHF) =  -492.851258732     A.U. after   13 cycles
 SCF Done:  E(RHF) =  -492.851455936     A.U. after   13 cycles
 SCF Done:  E(RHF) =  -492.851629242     A.U. after   12 cycles
 SCF Done:  E(RHF) =  -492.851678837     A.U. after   12 cycles
 SCF Done:  E(RHF) =  -492.851703401     A.U. after   11 cycles
 SCF Done:  E(RHF) =  -492.851904391     A.U. after   11 cycles
 SCF Done:  E(RHF) =  -492.851895514     A.U. after   11 cycles
 SCF Done:  E(RHF) =  -492.851995687     A.U. after   12 cycles
 SCF Done:  E(RHF) =  -492.851938852     A.U. after   13 cycles
 SCF Done:  E(RHF) =  -492.852020120     A.U. after   11 cycles
 SCF Done:  E(RHF) =  -492.852020272     A.U. after   10 cycles
 SCF Done:  E(RHF) =  -492.852021315     A.U. after   10 cycles
 SCF Done:  E(RHF) =  -492.852021766     A.U. after    9 cycles
 SCF Done:  E(RHF) =  -492.852021814     A.U. after    7 cycles
 SCF Done:  E(RHF) =  -492.852021833     A.U. after    6 cycles
 Optimization completed.
    -- Stationary point found.

                         Standard orientation:
 ---------------------------------------------------------------------
 Center     Atomic      Atomic             Coordinates (Angstroms)
 Number     Number       Type             X           Y           Z
 ---------------------------------------------------------------------
      1          1           0       -3.729613   -1.485774   -0.069482
      2          6           0       -3.206448   -0.760515   -0.674841
      3          1           0       -3.849062    0.102505   -0.820389
      4          1           0       -2.989181   -1.186910   -1.648063
      5          6           0       -1.948038   -0.331819    0.050436
      6          8           0       -1.799668   -0.518209    1.228543
      7          7           0       -1.003013    0.244392   -0.734365
      8          1           0       -1.228754    0.327833   -1.699459
      9          6           0        0.113436    1.086489   -0.305734
     10          1           0        0.212399    1.848472   -1.066918
     11          6           0       -0.066348    1.803970    1.035084
     12          1           0       -0.081582    1.123342    1.871364
     13          1           0        0.757531    2.498265    1.153663
     14          1           0       -0.992564    2.366936    1.037861
     15          6           0        1.451098    0.345174   -0.351979
     16          8           0        2.429824    0.883310   -0.797215
     17          7           0        1.452791   -0.900820    0.155795
     18          1           0        0.630507   -1.225376    0.613036
     19          6           0        2.675749   -1.660787    0.291099
     20          1           0        3.229697   -1.632701   -0.636214
     21          1           0        3.310530   -1.269780    1.079327
     22          1           0        2.423710   -2.687691    0.520252
 ---------------------------------------------------------------------

 The electronic state is 1-A.
 Alpha  occ. eigenvalues --  -20.53585 -20.51774 -15.59733 -15.57677 -11.36191
 Alpha  occ. eigenvalues --  -11.33703 -11.28399 -11.25214 -11.24288 -11.22212
 Alpha  occ. eigenvalues --   -1.40372  -1.38518  -1.25081  -1.22245  -1.06034
 Alpha  occ. eigenvalues --   -1.00010  -0.95443  -0.88943  -0.79742  -0.77571
 Alpha  occ. eigenvalues --   -0.72450  -0.70183  -0.66131  -0.63188  -0.62541
 Alpha  occ. eigenvalues --   -0.61972  -0.60068  -0.59284  -0.57488  -0.56356
 Alpha  occ. eigenvalues --   -0.54882  -0.54510  -0.52835  -0.52117  -0.49981
 Alpha  occ. eigenvalues --   -0.43920  -0.42581  -0.39162  -0.37626
 Alpha virt. eigenvalues --    0.18470   0.20329   0.20823   0.24972   0.25994
 Alpha virt. eigenvalues --    0.27503   0.28983   0.29729   0.30925   0.32157
 Alpha virt. eigenvalues --    0.32731   0.33819   0.34412   0.34973   0.37922

 Mulliken atomic charges:
              1
     1  H    0.217815
     2  C   -0.587466
     3  H    0.199377
     4  H    0.181470
     5  C    0.750400
     6  O   -0.615621
     7  N   -0.814431
     8  H    0.388268
     9  C   -0.048435
    10  H    0.215241
    11  C   -0.498396
    12  H    0.213226
    13  H    0.188100
    14  H    0.174131
    15  C    0.763459
    16  O   -0.620224
    17  N   -0.790960
    18  H    0.411843
    19  C   -0.271018
    20  H    0.198321
    21  H    0.176225
    22  H    0.168675
 Sum of Mulliken atomic charges =   0.00000

 Dipole moment (field-independent basis, Debye):
    X=             -3.0231    Y=             -1.0068    Z=             -1.7309  Tot=              3.6261
 Quadrupole moment (field-independent basis, Debye-Ang):
   XX=            -64.0413   YY=            -57.5465   ZZ=            -61.8324
   XY=             -7.2648   XZ=             11.7598   YZ=              1.6743

 Normal termination of Gaussian 09 at Thu Feb  9 23:03:39 2017.
