 Gaussian 09, Revision A.02,
 Gaussian 09:  EM64L-G09RevA.02 11-Jun-2009

 -------------------------------------------
 # HF/6-31G* Opt=(ModRedundant) geom=nocrowd
 -------------------------------------------

 ------------------
 Phi Psi fixed scan
 ------------------
 Symbolic Z-matrix:
 Charge =  0 Multiplicity = 1

 SCF Done:  E(RHF) =  -492.817014082     A.U. after   15 cycles
 SCF Done:  E(RHF) =  -492.838280792     A.U. after   15 cycles
 SCF Done:  E(RHF) =  -492.842489274     A.U. after   13 cycles
 SCF Done:  E(RHF) =  -492.843128540     A.U. after   13 cycles
 SCF Done:  E(RHF) =  -492.843015399     A.U. after   12 cycles
 SCF Done:  E(RHF) =  -492.843368803     A.U. after   12 cycles
 SCF Done:  E(RHF) =  -492.843410464     A.U. after   12 cycles
 SCF Done:  E(RHF) =  -492.843478036     A.U. after   12 cycles
 SCF Done:  E(RHF) =  -492.843519298     A.U. after   13 cycles
 SCF Done:  E(RHF) =  -492.843538117     A.U. after   11 cycles
 SCF Done:  E(RHF) =  -492.843803319     A.U. after   12 cycles
 SCF Done:  E(RHF) =  -492.843862387     A.U. after   11 cycles
 SCF Done:  E(RHF) =  -492.843911190     A.U. after   12 cycles
 SCF Done:  E(RHF) =  -492.843919611     A.U. after   12 cycles
 SCF Done:  E(RHF) =  -492.843931157     A.U. after   11 cycles
 SCF Done:  E(RHF) =  -492.843934344     A.U. after   10 cycles
 SCF Done:  E(RHF) =  -492.843934935     A.U. after    9 cycles
 SCF Done:  E(RHF) =  -492.843935180     A.U. after    8 cycles
 SCF Done:  E(RHF) =  -492.843935372     A.U. after    8 cycles
 SCF Done:  E(RHF) =  -492.843935384     A.U. after    7 cycles
 Optimization completed.
    -- Stationary point found.

                         Standard orientation:
 ---------------------------------------------------------------------
 Center     Atomic      Atomic             Coordinates (Angstroms)
 Number     Number       Type             X           Y           Z
 ---------------------------------------------------------------------
      1          1           0       -3.937409   -1.394512    0.236971
      2          6           0       -2.910991   -1.584397   -0.039813
      3          1           0       -2.877542   -2.035851   -1.025642
      4          1           0       -2.482065   -2.285302    0.669955
      5          6           0       -2.141450   -0.278409    0.020469
      6          8           0       -2.561798    0.669118    0.617436
      7          7           0       -0.961910   -0.309217   -0.662187
      8          1           0       -0.723514   -1.185999   -1.068371
      9          6           0        0.119000    0.666934   -0.672404
     10          1           0        0.441580    0.743322   -1.707751
     11          6           0       -0.246317    2.069783   -0.194991
     12          1           0       -0.488984    2.076431    0.854259
     13          1           0        0.610204    2.715882   -0.365757
     14          1           0       -1.088705    2.457663   -0.750307
     15          6           0        1.278494    0.110164    0.165163
     16          8           0        1.219550    0.040671    1.360300
     17          7           0        2.337189   -0.349452   -0.542009
     18          1           0        2.399698   -0.125387   -1.507726
     19          6           0        3.528200   -0.837482    0.122081
     20          1           0        3.248772   -1.532010    0.900194
     21          1           0        4.147588   -1.348825   -0.603027
     22          1           0        4.099800   -0.032604    0.571656
 ---------------------------------------------------------------------

 The electronic state is 1-A.
 Alpha  occ. eigenvalues --  -20.52501 -20.51745 -15.59447 -15.58791 -11.34707
 Alpha  occ. eigenvalues --  -11.34496 -11.28633 -11.26298 -11.22889 -11.21222
 Alpha  occ. eigenvalues --   -1.39601  -1.38557  -1.24323  -1.23361  -1.05549
 Alpha  occ. eigenvalues --   -0.98807  -0.96386  -0.88112  -0.79983  -0.77171
 Alpha  occ. eigenvalues --   -0.72364  -0.69698  -0.65951  -0.63976  -0.62718
 Alpha  occ. eigenvalues --   -0.61812  -0.59967  -0.58673  -0.56370  -0.55911
 Alpha  occ. eigenvalues --   -0.54826  -0.53305  -0.52017  -0.51368  -0.50823
 Alpha  occ. eigenvalues --   -0.43868  -0.40691  -0.39594  -0.37850
 Alpha virt. eigenvalues --    0.18457   0.19931   0.21606   0.23624   0.26032
 Alpha virt. eigenvalues --    0.28201   0.28955   0.30710   0.31196   0.32117
 Alpha virt. eigenvalues --    0.32383   0.33848   0.34092   0.35163   0.37190

 Mulliken atomic charges:
              1
     1  H    0.215321
     2  C   -0.592486
     3  H    0.171726
     4  H    0.200983
     5  C    0.762616
     6  O   -0.591934
     7  N   -0.811012
     8  H    0.379608
     9  C   -0.019846
    10  H    0.170072
    11  C   -0.480418
    12  H    0.233622
    13  H    0.150828
    14  H    0.189367
    15  C    0.757882
    16  O   -0.602283
    17  N   -0.796161
    18  H    0.382277
    19  C   -0.276033
    20  H    0.207360
    21  H    0.168131
    22  H    0.180382
 Sum of Mulliken atomic charges =   0.00000

 Dipole moment (field-independent basis, Debye):
    X=              3.0179    Y=             -2.5613    Z=             -5.1384  Tot=              6.4862
 Quadrupole moment (field-independent basis, Debye-Ang):
   XX=            -57.5251   YY=            -57.2919   ZZ=            -62.9161
   XY=              5.6904   XZ=             -1.9470   YZ=             -0.9722

 Normal termination of Gaussian 09 at Thu Feb  9 22:14:41 2017.
