 Gaussian 09, Revision A.02,
 Gaussian 09:  EM64L-G09RevA.02 11-Jun-2009

 -------------------------------------------
 # HF/6-31G* Opt=(ModRedundant) geom=nocrowd
 -------------------------------------------

 ------------------
 Phi Psi fixed scan
 ------------------
 Symbolic Z-matrix:
 Charge =  0 Multiplicity = 1

 SCF Done:  E(RHF) =  -492.819402712     A.U. after   15 cycles
 SCF Done:  E(RHF) =  -492.841901659     A.U. after   17 cycles
 SCF Done:  E(RHF) =  -492.846851068     A.U. after   14 cycles
 SCF Done:  E(RHF) =  -492.848700651     A.U. after   13 cycles
 SCF Done:  E(RHF) =  -492.849400341     A.U. after   13 cycles
 SCF Done:  E(RHF) =  -492.849518185     A.U. after   13 cycles
 SCF Done:  E(RHF) =  -492.849916603     A.U. after   12 cycles
 SCF Done:  E(RHF) =  -492.849891963     A.U. after   13 cycles
 SCF Done:  E(RHF) =  -492.850006349     A.U. after   11 cycles
 SCF Done:  E(RHF) =  -492.850038568     A.U. after   11 cycles
 SCF Done:  E(RHF) =  -492.850308847     A.U. after   12 cycles
 SCF Done:  E(RHF) =  -492.850346153     A.U. after   11 cycles
 SCF Done:  E(RHF) =  -492.850338872     A.U. after   11 cycles
 SCF Done:  E(RHF) =  -492.850363476     A.U. after   11 cycles
 SCF Done:  E(RHF) =  -492.850398403     A.U. after   12 cycles
 SCF Done:  E(RHF) =  -492.850413860     A.U. after   11 cycles
 SCF Done:  E(RHF) =  -492.850424484     A.U. after   11 cycles
 SCF Done:  E(RHF) =  -492.850427501     A.U. after   10 cycles
 SCF Done:  E(RHF) =  -492.850427751     A.U. after    9 cycles
 SCF Done:  E(RHF) =  -492.850427805     A.U. after    8 cycles
 Optimization completed.
    -- Stationary point found.

                         Standard orientation:
 ---------------------------------------------------------------------
 Center     Atomic      Atomic             Coordinates (Angstroms)
 Number     Number       Type             X           Y           Z
 ---------------------------------------------------------------------
      1          1           0       -3.729891   -1.485119    0.401053
      2          6           0       -3.150517   -1.064135   -0.407192
      3          1           0       -3.778093   -0.374677   -0.964011
      4          1           0       -2.838418   -1.854327   -1.081716
      5          6           0       -1.970834   -0.311599    0.175816
      6          8           0       -1.937763    0.020994    1.324908
      7          7           0       -0.961195   -0.072643   -0.712013
      8          1           0       -1.144487   -0.354620   -1.648506
      9          6           0        0.110689    0.914580   -0.580200
     10          1           0        0.266169    1.301126   -1.581788
     11          6           0       -0.203366    2.115693    0.315364
     12          1           0       -0.286388    1.836225    1.353589
     13          1           0        0.595232    2.835115    0.202448
     14          1           0       -1.136777    2.573753    0.008653
     15          6           0        1.472178    0.311588   -0.216159
     16          8           0        2.433508    1.030487   -0.141848
     17          7           0        1.537154   -1.022306   -0.060598
     18          1           0        0.682990   -1.521835    0.013919
     19          6           0        2.763974   -1.665460    0.357252
     20          1           0        3.585506   -1.307100   -0.245228
     21          1           0        2.991327   -1.465985    1.399023
     22          1           0        2.662415   -2.733759    0.217079
 ---------------------------------------------------------------------

 The electronic state is 1-A.
 Alpha  occ. eigenvalues --  -20.53503 -20.51580 -15.59862 -15.58098 -11.36081
 Alpha  occ. eigenvalues --  -11.33919 -11.28577 -11.25427 -11.24325 -11.21224
 Alpha  occ. eigenvalues --   -1.40378  -1.38583  -1.25265  -1.22421  -1.05720
 Alpha  occ. eigenvalues --   -0.99759  -0.95838  -0.88326  -0.79969  -0.77484
 Alpha  occ. eigenvalues --   -0.72534  -0.70300  -0.66311  -0.63082  -0.62648
 Alpha  occ. eigenvalues --   -0.62050  -0.60392  -0.59340  -0.57420  -0.55318
 Alpha  occ. eigenvalues --   -0.55022  -0.54376  -0.52221  -0.52023  -0.49572
 Alpha  occ. eigenvalues --   -0.44092  -0.42372  -0.39008  -0.38258
 Alpha virt. eigenvalues --    0.18819   0.19142   0.21100   0.24418   0.25990
 Alpha virt. eigenvalues --    0.27942   0.28753   0.29790   0.31358   0.31775
 Alpha virt. eigenvalues --    0.32928   0.33975   0.34509   0.35198   0.36290

 Mulliken atomic charges:
              1
     1  H    0.219413
     2  C   -0.592729
     3  H    0.198954
     4  H    0.176625
     5  C    0.743051
     6  O   -0.585342
     7  N   -0.847127
     8  H    0.385220
     9  C   -0.020407
    10  H    0.207077
    11  C   -0.494062
    12  H    0.216516
    13  H    0.201589
    14  H    0.164111
    15  C    0.768433
    16  O   -0.623896
    17  N   -0.794008
    18  H    0.401876
    19  C   -0.273825
    20  H    0.202936
    21  H    0.180037
    22  H    0.165560
 Sum of Mulliken atomic charges =   0.00000

 Dipole moment (field-independent basis, Debye):
    X=             -2.6485    Y=             -3.1307    Z=             -3.4660  Tot=              5.3693
 Quadrupole moment (field-independent basis, Debye-Ang):
   XX=            -65.0499   YY=            -57.2546   ZZ=            -61.3459
   XY=             -5.0724   XZ=              8.1541   YZ=             -0.7078

 Normal termination of Gaussian 09 at Thu Feb  9 21:55:01 2017.
