 Gaussian 09, Revision A.02,
 Gaussian 09:  EM64L-G09RevA.02 11-Jun-2009

 -------------------------------------------
 # HF/6-31G* Opt=(ModRedundant) geom=nocrowd
 -------------------------------------------

 ------------------
 Phi Psi fixed scan
 ------------------
 Symbolic Z-matrix:
 Charge =  0 Multiplicity = 1

 SCF Done:  E(RHF) =  -492.814893248     A.U. after   15 cycles
 SCF Done:  E(RHF) =  -492.840136676     A.U. after   16 cycles
 SCF Done:  E(RHF) =  -492.846982984     A.U. after   15 cycles
 SCF Done:  E(RHF) =  -492.848184136     A.U. after   13 cycles
 SCF Done:  E(RHF) =  -492.848387142     A.U. after   12 cycles
 SCF Done:  E(RHF) =  -492.848415491     A.U. after   12 cycles
 SCF Done:  E(RHF) =  -492.848457741     A.U. after   12 cycles
 SCF Done:  E(RHF) =  -492.848480898     A.U. after   11 cycles
 SCF Done:  E(RHF) =  -492.848494063     A.U. after   12 cycles
 SCF Done:  E(RHF) =  -492.848531936     A.U. after   12 cycles
 SCF Done:  E(RHF) =  -492.848923611     A.U. after   13 cycles
 SCF Done:  E(RHF) =  -492.848995204     A.U. after   11 cycles
 SCF Done:  E(RHF) =  -492.848994672     A.U. after   11 cycles
 SCF Done:  E(RHF) =  -492.849002448     A.U. after   11 cycles
 SCF Done:  E(RHF) =  -492.849003885     A.U. after   10 cycles
 SCF Done:  E(RHF) =  -492.849005141     A.U. after   10 cycles
 SCF Done:  E(RHF) =  -492.849007808     A.U. after   10 cycles
 SCF Done:  E(RHF) =  -492.849009945     A.U. after   11 cycles
 SCF Done:  E(RHF) =  -492.849010315     A.U. after   10 cycles
 SCF Done:  E(RHF) =  -492.849010341     A.U. after    8 cycles
 Optimization completed.
    -- Stationary point found.

                         Standard orientation:
 ---------------------------------------------------------------------
 Center     Atomic      Atomic             Coordinates (Angstroms)
 Number     Number       Type             X           Y           Z
 ---------------------------------------------------------------------
      1          1           0       -3.562473   -1.372781    1.112499
      2          6           0       -3.116851   -1.188779    0.145953
      3          1           0       -3.869174   -0.756958   -0.506814
      4          1           0       -2.789924   -2.126611   -0.289091
      5          6           0       -1.978456   -0.202317    0.314135
      6          8           0       -1.916269    0.530279    1.264140
      7          7           0       -1.075772   -0.214769   -0.695915
      8          1           0       -1.163516   -0.929439   -1.381840
      9          6           0        0.070648    0.667925   -0.891232
     10          1           0        0.153830    0.791740   -1.963601
     11          6           0       -0.060111    2.064678   -0.290011
     12          1           0       -0.129230    2.072219    0.785446
     13          1           0        0.795695    2.654459   -0.601412
     14          1           0       -0.955758    2.539891   -0.670960
     15          6           0        1.327676   -0.135520   -0.533716
     16          8           0        1.720027   -0.980272   -1.295501
     17          7           0        1.931271    0.133493    0.638674
     18          1           0        1.457837    0.712275    1.292586
     19          6           0        3.035548   -0.672611    1.115328
     20          1           0        3.765801   -0.788359    0.328300
     21          1           0        3.496867   -0.168909    1.954335
     22          1           0        2.710763   -1.658902    1.429372
 ---------------------------------------------------------------------

 The electronic state is 1-A.
 Alpha  occ. eigenvalues --  -20.52447 -20.52178 -15.59133 -15.58625 -11.35362
 Alpha  occ. eigenvalues --  -11.34274 -11.28447 -11.25689 -11.23423 -11.22438
 Alpha  occ. eigenvalues --   -1.39543  -1.38867  -1.24292  -1.23177  -1.05912
 Alpha  occ. eigenvalues --   -0.99420  -0.95566  -0.89531  -0.79987  -0.77225
 Alpha  occ. eigenvalues --   -0.72320  -0.70082  -0.65783  -0.64323  -0.62231
 Alpha  occ. eigenvalues --   -0.61919  -0.59655  -0.58865  -0.56906  -0.55660
 Alpha  occ. eigenvalues --   -0.55580  -0.54640  -0.52740  -0.51802  -0.51064
 Alpha  occ. eigenvalues --   -0.43378  -0.41569  -0.39160  -0.38165
 Alpha virt. eigenvalues --    0.18929   0.21072   0.21685   0.23267   0.25862
 Alpha virt. eigenvalues --    0.26998   0.29335   0.30256   0.30803   0.31766
 Alpha virt. eigenvalues --    0.32662   0.33522   0.34479   0.35558   0.38010

 Mulliken atomic charges:
              1
     1  H    0.213874
     2  C   -0.585024
     3  H    0.199222
     4  H    0.178135
     5  C    0.752122
     6  O   -0.614358
     7  N   -0.814206
     8  H    0.397276
     9  C   -0.031423
    10  H    0.211621
    11  C   -0.499284
    12  H    0.205382
    13  H    0.170346
    14  H    0.186070
    15  C    0.770482
    16  O   -0.626732
    17  N   -0.791689
    18  H    0.401267
    19  C   -0.274817
    20  H    0.203974
    21  H    0.170340
    22  H    0.177421
 Sum of Mulliken atomic charges =   0.00000

 Dipole moment (field-independent basis, Debye):
    X=             -0.5482    Y=              0.2439    Z=             -0.0820  Tot=              0.6055
 Quadrupole moment (field-independent basis, Debye-Ang):
   XX=            -58.0989   YY=            -60.0616   ZZ=            -62.9094
   XY=              7.8956   XZ=             12.4406   YZ=             -4.2713

 Normal termination of Gaussian 09 at Thu Feb  9 22:51:07 2017.
