 Gaussian 09, Revision A.02,
 Gaussian 09:  EM64L-G09RevA.02 11-Jun-2009

 -------------------------------------------
 # HF/6-31G* Opt=(ModRedundant) geom=nocrowd
 -------------------------------------------

 ------------------
 Phi Psi fixed scan
 ------------------
 Symbolic Z-matrix:
 Charge =  0 Multiplicity = 1

 SCF Done:  E(RHF) =  -492.822134393     A.U. after   15 cycles
 SCF Done:  E(RHF) =  -492.844184418     A.U. after   16 cycles
 SCF Done:  E(RHF) =  -492.849462506     A.U. after   14 cycles
 SCF Done:  E(RHF) =  -492.850757601     A.U. after   13 cycles
 SCF Done:  E(RHF) =  -492.851102925     A.U. after   13 cycles
 SCF Done:  E(RHF) =  -492.851407885     A.U. after   13 cycles
 SCF Done:  E(RHF) =  -492.851553782     A.U. after   13 cycles
 SCF Done:  E(RHF) =  -492.851733082     A.U. after   12 cycles
 SCF Done:  E(RHF) =  -492.851788420     A.U. after   12 cycles
 SCF Done:  E(RHF) =  -492.851810875     A.U. after   11 cycles
 SCF Done:  E(RHF) =  -492.844666529     A.U. after   14 cycles
 SCF Done:  E(RHF) =  -492.852014242     A.U. after   14 cycles
 SCF Done:  E(RHF) =  -492.852057544     A.U. after   12 cycles
 SCF Done:  E(RHF) =  -492.852091203     A.U. after   12 cycles
 SCF Done:  E(RHF) =  -492.852097363     A.U. after   10 cycles
 SCF Done:  E(RHF) =  -492.852101323     A.U. after   10 cycles
 SCF Done:  E(RHF) =  -492.852102639     A.U. after   10 cycles
 SCF Done:  E(RHF) =  -492.852103637     A.U. after   10 cycles
 SCF Done:  E(RHF) =  -492.852103725     A.U. after    8 cycles
 SCF Done:  E(RHF) =  -492.852103743     A.U. after    8 cycles
 Optimization completed.
    -- Stationary point found.

                         Standard orientation:
 ---------------------------------------------------------------------
 Center     Atomic      Atomic             Coordinates (Angstroms)
 Number     Number       Type             X           Y           Z
 ---------------------------------------------------------------------
      1          1           0       -3.684488   -1.534618   -0.194799
      2          6           0       -3.188960   -0.737738   -0.729282
      3          1           0       -3.853473    0.119894   -0.772323
      4          1           0       -2.980547   -1.054512   -1.745251
      5          6           0       -1.927851   -0.356133    0.016560
      6          8           0       -1.761479   -0.645395    1.171913
      7          7           0       -1.000898    0.303684   -0.721595
      8          1           0       -1.241472    0.483168   -1.669892
      9          6           0        0.104679    1.122177   -0.217574
     10          1           0        0.195833    1.942626   -0.915858
     11          6           0       -0.085741    1.724861    1.175468
     12          1           0       -0.102408    0.982900    1.956852
     13          1           0        0.733309    2.412594    1.356400
     14          1           0       -1.013689    2.283874    1.216882
     15          6           0        1.432715    0.374236   -0.355745
     16          8           0        2.339216    0.832606   -0.998645
     17          7           0        1.507958   -0.793635    0.308245
     18          1           0        0.694289   -1.131486    0.772102
     19          6           0        2.684611   -1.631346    0.243678
     20          1           0        3.569807   -1.051225    0.464985
     21          1           0        2.588350   -2.420551    0.977217
     22          1           0        2.806459   -2.077041   -0.737637
 ---------------------------------------------------------------------

 The electronic state is 1-A.
 Alpha  occ. eigenvalues --  -20.53636 -20.51812 -15.59793 -15.57513 -11.36229
 Alpha  occ. eigenvalues --  -11.33629 -11.28350 -11.25154 -11.24298 -11.22290
 Alpha  occ. eigenvalues --   -1.40402  -1.38481  -1.25021  -1.22193  -1.06052
 Alpha  occ. eigenvalues --   -1.00057  -0.95307  -0.89087  -0.79788  -0.77455
 Alpha  occ. eigenvalues --   -0.72293  -0.70190  -0.66087  -0.63364  -0.62688
 Alpha  occ. eigenvalues --   -0.61877  -0.60024  -0.58974  -0.57533  -0.56428
 Alpha  occ. eigenvalues --   -0.55007  -0.54388  -0.52783  -0.52010  -0.50467
 Alpha  occ. eigenvalues --   -0.43876  -0.42635  -0.38685  -0.37910
 Alpha virt. eigenvalues --    0.18343   0.20537   0.20840   0.25164   0.25946
 Alpha virt. eigenvalues --    0.27500   0.28836   0.29730   0.31037   0.32000
 Alpha virt. eigenvalues --    0.32737   0.33775   0.34451   0.35036   0.38091

 Mulliken atomic charges:
              1
     1  H    0.217836
     2  C   -0.586869
     3  H    0.199608
     4  H    0.182035
     5  C    0.753024
     6  O   -0.618581
     7  N   -0.812443
     8  H    0.389320
     9  C   -0.058124
    10  H    0.216998
    11  C   -0.494811
    12  H    0.214313
    13  H    0.181470
    14  H    0.172706
    15  C    0.769892
    16  O   -0.618010
    17  N   -0.795811
    18  H    0.415637
    19  C   -0.268403
    20  H    0.195546
    21  H    0.169506
    22  H    0.175162
 Sum of Mulliken atomic charges =   0.00000

 Dipole moment (field-independent basis, Debye):
    X=             -2.9923    Y=             -0.5921    Z=             -1.2622  Tot=              3.3012
 Quadrupole moment (field-independent basis, Debye-Ang):
   XX=            -62.9057   YY=            -57.5032   ZZ=            -62.5901
   XY=             -7.3111   XZ=             12.4594   YZ=              2.2565

 Normal termination of Gaussian 09 at Thu Feb  9 23:00:22 2017.
