 Gaussian 09, Revision A.02,
 Gaussian 09:  EM64L-G09RevA.02 11-Jun-2009

 -------------------------------------------
 # HF/6-31G* Opt=(ModRedundant) geom=nocrowd
 -------------------------------------------

 ------------------
 Phi Psi fixed scan
 ------------------
 Symbolic Z-matrix:
 Charge =  0 Multiplicity = 1

 SCF Done:  E(RHF) =  -492.813188833     A.U. after   15 cycles
 SCF Done:  E(RHF) =  -492.835269715     A.U. after   14 cycles
 SCF Done:  E(RHF) =  -492.840469669     A.U. after   13 cycles
 SCF Done:  E(RHF) =  -492.842021502     A.U. after   13 cycles
 SCF Done:  E(RHF) =  -492.842789052     A.U. after   13 cycles
 SCF Done:  E(RHF) =  -492.843167007     A.U. after   16 cycles
 SCF Done:  E(RHF) =  -492.844126905     A.U. after   13 cycles
 SCF Done:  E(RHF) =  -492.844392606     A.U. after   13 cycles
 SCF Done:  E(RHF) =  -492.844445928     A.U. after   13 cycles
 SCF Done:  E(RHF) =  -492.844622762     A.U. after   12 cycles
 SCF Done:  E(RHF) =  -492.845136894     A.U. after   12 cycles
 SCF Done:  E(RHF) =  -492.845185748     A.U. after   14 cycles
 SCF Done:  E(RHF) =  -492.845278112     A.U. after   13 cycles
 SCF Done:  E(RHF) =  -492.845368759     A.U. after   11 cycles
 SCF Done:  E(RHF) =  -492.845400415     A.U. after   12 cycles
 SCF Done:  E(RHF) =  -492.845406128     A.U. after   11 cycles
 SCF Done:  E(RHF) =  -492.845410252     A.U. after   10 cycles
 SCF Done:  E(RHF) =  -492.845413202     A.U. after   10 cycles
 SCF Done:  E(RHF) =  -492.845414057     A.U. after   10 cycles
 SCF Done:  E(RHF) =  -492.845414142     A.U. after    8 cycles
 Optimization completed.
    -- Stationary point found.

                         Standard orientation:
 ---------------------------------------------------------------------
 Center     Atomic      Atomic             Coordinates (Angstroms)
 Number     Number       Type             X           Y           Z
 ---------------------------------------------------------------------
      1          1           0       -3.754307   -1.436469    0.718566
      2          6           0       -3.104121   -1.293935   -0.131622
      3          1           0       -3.681705   -0.865619   -0.945736
      4          1           0       -2.718543   -2.253217   -0.459979
      5          6           0       -1.990525   -0.342553    0.258896
      6          8           0       -2.048605    0.332790    1.242337
      7          7           0       -0.917385   -0.354233   -0.594785
      8          1           0       -1.090645   -0.843497   -1.444852
      9          6           0        0.080157    0.716299   -0.726759
     10          1           0        0.312964    0.746459   -1.787178
     11          6           0       -0.379804    2.112464   -0.318089
     12          1           0       -0.517103    2.197447    0.746613
     13          1           0        0.371352    2.826277   -0.628801
     14          1           0       -1.314360    2.353034   -0.812999
     15          6           0        1.409814    0.334403   -0.060401
     16          8           0        2.068430    1.136982    0.537237
     17          7           0        1.848645   -0.923591   -0.323471
     18          1           0        1.149808   -1.597430   -0.537728
     19          6           0        3.058119   -1.413365    0.306380
     20          1           0        3.861331   -0.712850    0.134461
     21          1           0        2.941747   -1.543114    1.377652
     22          1           0        3.320198   -2.364319   -0.139252
 ---------------------------------------------------------------------

 The electronic state is 1-A.
 Alpha  occ. eigenvalues --  -20.53467 -20.52469 -15.59813 -15.57924 -11.35865
 Alpha  occ. eigenvalues --  -11.34064 -11.28633 -11.25353 -11.24187 -11.20839
 Alpha  occ. eigenvalues --   -1.40324  -1.39168  -1.25102  -1.22333  -1.05587
 Alpha  occ. eigenvalues --   -0.99610  -0.95739  -0.87842  -0.80060  -0.76698
 Alpha  occ. eigenvalues --   -0.71977  -0.70374  -0.66108  -0.64032  -0.62691
 Alpha  occ. eigenvalues --   -0.61669  -0.60628  -0.59149  -0.57308  -0.55157
 Alpha  occ. eigenvalues --   -0.54816  -0.53104  -0.52142  -0.51649  -0.50658
 Alpha  occ. eigenvalues --   -0.44451  -0.42225  -0.38955  -0.38857
 Alpha virt. eigenvalues --    0.17805   0.18967   0.21411   0.24908   0.25918
 Alpha virt. eigenvalues --    0.27177   0.28999   0.29990   0.31353   0.31640
 Alpha virt. eigenvalues --    0.32452   0.33567   0.34540   0.35190   0.36870

 Mulliken atomic charges:
              1
     1  H    0.221383
     2  C   -0.596254
     3  H    0.193870
     4  H    0.179511
     5  C    0.751127
     6  O   -0.575347
     7  N   -0.833865
     8  H    0.378444
     9  C   -0.054626
    10  H    0.199755
    11  C   -0.474221
    12  H    0.228301
    13  H    0.183270
    14  H    0.154939
    15  C    0.780347
    16  O   -0.600445
    17  N   -0.785243
    18  H    0.383827
    19  C   -0.279691
    20  H    0.203749
    21  H    0.175942
    22  H    0.165227
 Sum of Mulliken atomic charges =   0.00000

 Dipole moment (field-independent basis, Debye):
    X=             -1.5544    Y=             -4.2451    Z=             -4.5301  Tot=              6.4000
 Quadrupole moment (field-independent basis, Debye-Ang):
   XX=            -61.4648   YY=            -58.0696   ZZ=            -62.0259
   XY=             -2.3346   XZ=              4.5337   YZ=             -2.4766

 Normal termination of Gaussian 09 at Thu Feb  9 22:03:03 2017.
