 Gaussian 09, Revision A.02,
 Gaussian 09:  EM64L-G09RevA.02 11-Jun-2009

 -------------------------------------------
 # HF/6-31G* Opt=(ModRedundant) geom=nocrowd
 -------------------------------------------

 ------------------
 Phi Psi fixed scan
 ------------------
 Symbolic Z-matrix:
 Charge =  0 Multiplicity = 1

 SCF Done:  E(RHF) =  -492.816676013     A.U. after   15 cycles
 SCF Done:  E(RHF) =  -492.839168639     A.U. after   17 cycles
 SCF Done:  E(RHF) =  -492.844700819     A.U. after   14 cycles
 SCF Done:  E(RHF) =  -492.846993706     A.U. after   13 cycles
 SCF Done:  E(RHF) =  -492.848119117     A.U. after   13 cycles
 SCF Done:  E(RHF) =  -492.848204746     A.U. after   14 cycles
 SCF Done:  E(RHF) =  -492.848791608     A.U. after   12 cycles
 SCF Done:  E(RHF) =  -492.848862770     A.U. after   12 cycles
 SCF Done:  E(RHF) =  -492.848884804     A.U. after   12 cycles
 SCF Done:  E(RHF) =  -492.848931618     A.U. after   11 cycles
 SCF Done:  E(RHF) =  -492.849234843     A.U. after   12 cycles
 SCF Done:  E(RHF) =  -492.849295036     A.U. after   12 cycles
 SCF Done:  E(RHF) =  -492.849338767     A.U. after   11 cycles
 SCF Done:  E(RHF) =  -492.849372413     A.U. after   11 cycles
 SCF Done:  E(RHF) =  -492.849385952     A.U. after   11 cycles
 SCF Done:  E(RHF) =  -492.849397828     A.U. after   11 cycles
 SCF Done:  E(RHF) =  -492.849406925     A.U. after   11 cycles
 SCF Done:  E(RHF) =  -492.849409006     A.U. after   11 cycles
 SCF Done:  E(RHF) =  -492.849409139     A.U. after    8 cycles
 SCF Done:  E(RHF) =  -492.849409166     A.U. after    8 cycles
 Optimization completed.
    -- Stationary point found.

                         Standard orientation:
 ---------------------------------------------------------------------
 Center     Atomic      Atomic             Coordinates (Angstroms)
 Number     Number       Type             X           Y           Z
 ---------------------------------------------------------------------
      1          1           0       -3.735842   -1.471883    0.523639
      2          6           0       -3.136657   -1.143358   -0.312484
      3          1           0       -3.750795   -0.524826   -0.960361
      4          1           0       -2.805762   -2.004005   -0.883977
      5          6           0       -1.972353   -0.325920    0.210610
      6          8           0       -1.961553    0.125394    1.317804
      7          7           0       -0.943614   -0.177385   -0.679147
      8          1           0       -1.134258   -0.519315   -1.594393
      9          6           0        0.098474    0.851676   -0.632312
     10          1           0        0.281995    1.110410   -1.670878
     11          6           0       -0.278572    2.145771    0.089641
     12          1           0       -0.388079    1.999328    1.152016
     13          1           0        0.501822    2.871715   -0.087655
     14          1           0       -1.213247    2.529999   -0.303488
     15          6           0        1.457418    0.323353   -0.155708
     16          8           0        2.348143    1.092212    0.087615
     17          7           0        1.618924   -1.014623   -0.145262
     18          1           0        0.797907   -1.572485   -0.156922
     19          6           0        2.851171   -1.606252    0.330098
     20          1           0        3.691599   -1.130424   -0.152969
     21          1           0        2.967534   -1.497604    1.403315
     22          1           0        2.850351   -2.659314    0.080117
 ---------------------------------------------------------------------

 The electronic state is 1-A.
 Alpha  occ. eigenvalues --  -20.53562 -20.51761 -15.59879 -15.57972 -11.36047
 Alpha  occ. eigenvalues --  -11.33950 -11.28631 -11.25371 -11.24325 -11.21019
 Alpha  occ. eigenvalues --   -1.40421  -1.38702  -1.25266  -1.22339  -1.05657
 Alpha  occ. eigenvalues --   -0.99723  -0.95814  -0.88134  -0.80037  -0.77173
 Alpha  occ. eigenvalues --   -0.72375  -0.70355  -0.66288  -0.63365  -0.62665
 Alpha  occ. eigenvalues --   -0.61877  -0.60481  -0.59293  -0.57426  -0.55117
 Alpha  occ. eigenvalues --   -0.54942  -0.54138  -0.52074  -0.51933  -0.49832
 Alpha  occ. eigenvalues --   -0.44193  -0.42360  -0.38926  -0.38495
 Alpha virt. eigenvalues --    0.18385   0.19045   0.21379   0.24673   0.25963
 Alpha virt. eigenvalues --    0.27853   0.28822   0.29853   0.31460   0.31569
 Alpha virt. eigenvalues --    0.32833   0.33895   0.34639   0.34998   0.36370

 Mulliken atomic charges:
              1
     1  H    0.220350
     2  C   -0.594079
     3  H    0.197474
     4  H    0.177256
     5  C    0.745819
     6  O   -0.580508
     7  N   -0.846121
     8  H    0.383502
     9  C   -0.029782
    10  H    0.205380
    11  C   -0.488625
    12  H    0.219150
    13  H    0.199519
    14  H    0.159417
    15  C    0.773855
    16  O   -0.618467
    17  N   -0.794904
    18  H    0.398973
    19  C   -0.275122
    20  H    0.202805
    21  H    0.179124
    22  H    0.164980
 Sum of Mulliken atomic charges =   0.00000

 Dipole moment (field-independent basis, Debye):
    X=             -2.4172    Y=             -3.5505    Z=             -3.8934  Tot=              5.7972
 Quadrupole moment (field-independent basis, Debye-Ang):
   XX=            -64.0132   YY=            -57.6350   ZZ=            -61.4173
   XY=             -4.3799   XZ=              6.7472   YZ=             -1.4362

 Normal termination of Gaussian 09 at Thu Feb  9 21:57:37 2017.
