 Gaussian 09, Revision A.02,
 Gaussian 09:  EM64L-G09RevA.02 11-Jun-2009

 -------------------------------------------
 # HF/6-31G* Opt=(ModRedundant) geom=nocrowd
 -------------------------------------------

 ------------------
 Phi Psi fixed scan
 ------------------
 Symbolic Z-matrix:
 Charge =  0 Multiplicity = 1

 SCF Done:  E(RHF) =  -492.821202937     A.U. after   15 cycles
 SCF Done:  E(RHF) =  -492.840023436     A.U. after   15 cycles
 SCF Done:  E(RHF) =  -492.844836190     A.U. after   13 cycles
 SCF Done:  E(RHF) =  -492.846417812     A.U. after   13 cycles
 SCF Done:  E(RHF) =  -492.846514707     A.U. after   13 cycles
 SCF Done:  E(RHF) =  -492.847175919     A.U. after   13 cycles
 SCF Done:  E(RHF) =  -492.847314866     A.U. after   13 cycles
 SCF Done:  E(RHF) =  -492.847424675     A.U. after   13 cycles
 SCF Done:  E(RHF) =  -492.847483391     A.U. after   12 cycles
 SCF Done:  E(RHF) =  -492.847509423     A.U. after   11 cycles
 SCF Done:  E(RHF) =  -492.847755427     A.U. after   12 cycles
 SCF Done:  E(RHF) =  -492.847738171     A.U. after   11 cycles
 SCF Done:  E(RHF) =  -492.847758975     A.U. after   11 cycles
 SCF Done:  E(RHF) =  -492.847775210     A.U. after   11 cycles
 SCF Done:  E(RHF) =  -492.847797182     A.U. after   11 cycles
 SCF Done:  E(RHF) =  -492.847808160     A.U. after   11 cycles
 SCF Done:  E(RHF) =  -492.847812659     A.U. after   11 cycles
 SCF Done:  E(RHF) =  -492.847817734     A.U. after   11 cycles
 SCF Done:  E(RHF) =  -492.847818835     A.U. after    9 cycles
 SCF Done:  E(RHF) =  -492.847818957     A.U. after    8 cycles
 Optimization completed.
    -- Stationary point found.

                         Standard orientation:
 ---------------------------------------------------------------------
 Center     Atomic      Atomic             Coordinates (Angstroms)
 Number     Number       Type             X           Y           Z
 ---------------------------------------------------------------------
      1          1           0        4.083773   -0.995542   -0.396455
      2          6           0        3.143815   -1.240450    0.075350
      3          1           0        3.311964   -1.489887    1.117443
      4          1           0        2.715888   -2.108937   -0.416109
      5          6           0        2.199257   -0.064585   -0.074648
      6          8           0        2.432320    0.837716   -0.827634
      7          7           0        1.102971   -0.143324    0.732152
      8          1           0        0.969884   -1.036260    1.151720
      9          6           0       -0.125220    0.619729    0.647565
     10          1           0       -0.418242    0.850396    1.669448
     11          6           0       -0.025237    1.951682   -0.105962
     12          1           0        0.138455    1.808711   -1.162731
     13          1           0       -0.945258    2.509414    0.036088
     14          1           0        0.790982    2.543059    0.281488
     15          6           0       -1.232876   -0.280188    0.075242
     16          8           0       -0.994370   -1.344124   -0.427629
     17          7           0       -2.492053    0.181391    0.229211
     18          1           0       -2.633283    1.100410    0.577511
     19          6           0       -3.629247   -0.529696   -0.317072
     20          1           0       -3.598629   -1.565304   -0.010403
     21          1           0       -4.535387   -0.076542    0.062256
     22          1           0       -3.643129   -0.493684   -1.400535
 ---------------------------------------------------------------------

 The electronic state is 1-A.
 Alpha  occ. eigenvalues --  -20.53011 -20.51673 -15.59148 -15.57897 -11.34794
 Alpha  occ. eigenvalues --  -11.34386 -11.28650 -11.26277 -11.22467 -11.22362
 Alpha  occ. eigenvalues --   -1.39968  -1.38389  -1.23916  -1.23384  -1.05727
 Alpha  occ. eigenvalues --   -0.98713  -0.95927  -0.88888  -0.80178  -0.76187
 Alpha  occ. eigenvalues --   -0.72735  -0.69451  -0.65900  -0.63625  -0.62691
 Alpha  occ. eigenvalues --   -0.61953  -0.59660  -0.58530  -0.56478  -0.56072
 Alpha  occ. eigenvalues --   -0.55529  -0.53923  -0.53259  -0.51548  -0.50292
 Alpha  occ. eigenvalues --   -0.42874  -0.40765  -0.39629  -0.38393
 Alpha virt. eigenvalues --    0.19157   0.20310   0.21532   0.23642   0.25934
 Alpha virt. eigenvalues --    0.28069   0.29498   0.30172   0.31690   0.31896
 Alpha virt. eigenvalues --    0.32824   0.33188   0.33854   0.34777   0.37226

 Mulliken atomic charges:
              1
     1  H    0.211742
     2  C   -0.595870
     3  H    0.179047
     4  H    0.204401
     5  C    0.751758
     6  O   -0.602425
     7  N   -0.786997
     8  H    0.386890
     9  C   -0.036105
    10  H    0.192049
    11  C   -0.476219
    12  H    0.213632
    13  H    0.139344
    14  H    0.206941
    15  C    0.751440
    16  O   -0.612347
    17  N   -0.797202
    18  H    0.387907
    19  C   -0.270044
    20  H    0.200998
    21  H    0.168363
    22  H    0.182697
 Sum of Mulliken atomic charges =   0.00000

 Dipole moment (field-independent basis, Debye):
    X=             -3.1319    Y=              0.4851    Z=              3.1157  Tot=              4.4443
 Quadrupole moment (field-independent basis, Debye-Ang):
   XX=            -53.8568   YY=            -61.5368   ZZ=            -61.5445
   XY=            -10.6459   XZ=              3.2009   YZ=              0.1632

 Normal termination of Gaussian 09 at Thu Feb  9 22:29:36 2017.
