 Gaussian 09, Revision A.02,
 Gaussian 09:  EM64L-G09RevA.02 11-Jun-2009

 -------------------------------------------
 # HF/6-31G* Opt=(ModRedundant) geom=nocrowd
 -------------------------------------------

 ------------------
 Phi Psi fixed scan
 ------------------
 Symbolic Z-matrix:
 Charge =  0 Multiplicity = 1

 SCF Done:  E(RHF) =  -492.813354567     A.U. after   15 cycles
 SCF Done:  E(RHF) =  -492.835619897     A.U. after   14 cycles
 SCF Done:  E(RHF) =  -492.840498437     A.U. after   13 cycles
 SCF Done:  E(RHF) =  -492.841415824     A.U. after   13 cycles
 SCF Done:  E(RHF) =  -492.841460712     A.U. after   12 cycles
 SCF Done:  E(RHF) =  -492.841594151     A.U. after   13 cycles
 SCF Done:  E(RHF) =  -492.841718000     A.U. after   12 cycles
 SCF Done:  E(RHF) =  -492.841854201     A.U. after   13 cycles
 SCF Done:  E(RHF) =  -492.841933953     A.U. after   13 cycles
 SCF Done:  E(RHF) =  -492.841994031     A.U. after   12 cycles
 SCF Done:  E(RHF) =  -492.842581072     A.U. after   13 cycles
 SCF Done:  E(RHF) =  -492.842697574     A.U. after   13 cycles
 SCF Done:  E(RHF) =  -492.842826446     A.U. after   14 cycles
 SCF Done:  E(RHF) =  -492.843096017     A.U. after   12 cycles
 SCF Done:  E(RHF) =  -492.843121936     A.U. after   11 cycles
 SCF Done:  E(RHF) =  -492.843127879     A.U. after   10 cycles
 SCF Done:  E(RHF) =  -492.843130372     A.U. after    9 cycles
 SCF Done:  E(RHF) =  -492.843134121     A.U. after   10 cycles
 SCF Done:  E(RHF) =  -492.843136598     A.U. after   10 cycles
 SCF Done:  E(RHF) =  -492.843136660     A.U. after    8 cycles
 Optimization completed.
    -- Stationary point found.

                         Standard orientation:
 ---------------------------------------------------------------------
 Center     Atomic      Atomic             Coordinates (Angstroms)
 Number     Number       Type             X           Y           Z
 ---------------------------------------------------------------------
      1          1           0       -3.741020   -1.454096    0.787447
      2          6           0       -3.062891   -1.388756   -0.050236
      3          1           0       -3.624168   -1.094826   -0.932541
      4          1           0       -2.622755   -2.362171   -0.238532
      5          6           0       -2.008215   -0.343285    0.256752
      6          8           0       -2.135869    0.442152    1.147453
      7          7           0       -0.909373   -0.405462   -0.558674
      8          1           0       -1.025601   -1.006577   -1.343535
      9          6           0        0.080394    0.660542   -0.764759
     10          1           0        0.329598    0.607115   -1.820307
     11          6           0       -0.394693    2.079181   -0.471731
     12          1           0       -0.547058    2.242911    0.580954
     13          1           0        0.358178    2.772794   -0.825671
     14          1           0       -1.321651    2.276225   -0.998369
     15          6           0        1.384195    0.332993   -0.020388
     16          8           0        1.877543    1.083738    0.770626
     17          7           0        1.989146   -0.822891   -0.403924
     18          1           0        1.414178   -1.510251   -0.834536
     19          6           0        3.153130   -1.306337    0.311019
     20          1           0        3.885686   -0.516348    0.377129
     21          1           0        2.912167   -1.634390    1.317234
     22          1           0        3.579121   -2.135069   -0.239654
 ---------------------------------------------------------------------

 The electronic state is 1-A.
 Alpha  occ. eigenvalues --  -20.53124 -20.52594 -15.59683 -15.58219 -11.35633
 Alpha  occ. eigenvalues --  -11.34138 -11.28630 -11.25511 -11.23976 -11.20790
 Alpha  occ. eigenvalues --   -1.40045  -1.39251  -1.24926  -1.22526  -1.05561
 Alpha  occ. eigenvalues --   -0.99455  -0.95836  -0.87800  -0.80064  -0.76847
 Alpha  occ. eigenvalues --   -0.71860  -0.70316  -0.65879  -0.64316  -0.62616
 Alpha  occ. eigenvalues --   -0.61663  -0.60566  -0.59127  -0.57112  -0.55290
 Alpha  occ. eigenvalues --   -0.54771  -0.52543  -0.52400  -0.51511  -0.50969
 Alpha  occ. eigenvalues --   -0.44377  -0.41937  -0.39059  -0.38671
 Alpha virt. eigenvalues --    0.17670   0.19521   0.20887   0.24571   0.25923
 Alpha virt. eigenvalues --    0.26662   0.28992   0.30209   0.31408   0.31829
 Alpha virt. eigenvalues --    0.32335   0.33499   0.34672   0.35138   0.37307

 Mulliken atomic charges:
              1
     1  H    0.221256
     2  C   -0.596245
     3  H    0.192096
     4  H    0.179387
     5  C    0.754074
     6  O   -0.576668
     7  N   -0.826353
     8  H    0.375004
     9  C   -0.061159
    10  H    0.193407
    11  C   -0.471037
    12  H    0.235408
    13  H    0.172971
    14  H    0.157305
    15  C    0.788238
    16  O   -0.594057
    17  N   -0.783219
    18  H    0.372217
    19  C   -0.279942
    20  H    0.206480
    21  H    0.175204
    22  H    0.165633
 Sum of Mulliken atomic charges =   0.00000

 Dipole moment (field-independent basis, Debye):
    X=             -0.7682    Y=             -4.5769    Z=             -4.8894  Tot=              6.7412
 Quadrupole moment (field-independent basis, Debye-Ang):
   XX=            -60.5745   YY=            -57.8717   ZZ=            -62.2101
   XY=             -1.1705   XZ=              3.3716   YZ=             -2.3907

 Normal termination of Gaussian 09 at Thu Feb  9 22:06:02 2017.
