 Gaussian 09, Revision A.02,
 Gaussian 09:  EM64L-G09RevA.02 11-Jun-2009

 -------------------------------------------
 # HF/6-31G* Opt=(ModRedundant) geom=nocrowd
 -------------------------------------------

 ------------------
 Phi Psi fixed scan
 ------------------
 Symbolic Z-matrix:
 Charge =  0 Multiplicity = 1

 SCF Done:  E(RHF) =  -492.817895087     A.U. after   15 cycles
 SCF Done:  E(RHF) =  -492.837772393     A.U. after   16 cycles
 SCF Done:  E(RHF) =  -492.843785243     A.U. after   13 cycles
 SCF Done:  E(RHF) =  -492.847028327     A.U. after   13 cycles
 SCF Done:  E(RHF) =  -492.847817238     A.U. after   16 cycles
 SCF Done:  E(RHF) =  -492.847778764     A.U. after   16 cycles
 SCF Done:  E(RHF) =  -492.848273345     A.U. after   16 cycles
 SCF Done:  E(RHF) =  -492.848362488     A.U. after   12 cycles
 SCF Done:  E(RHF) =  -492.848356998     A.U. after   12 cycles
 SCF Done:  E(RHF) =  -492.848392505     A.U. after   10 cycles
 SCF Done:  E(RHF) =  -492.848720754     A.U. after   12 cycles
 SCF Done:  E(RHF) =  -492.848697816     A.U. after   12 cycles
 SCF Done:  E(RHF) =  -492.848825225     A.U. after   11 cycles
 SCF Done:  E(RHF) =  -492.848833009     A.U. after   16 cycles
 SCF Done:  E(RHF) =  -492.848923165     A.U. after   12 cycles
 SCF Done:  E(RHF) =  -492.848926982     A.U. after   10 cycles
 SCF Done:  E(RHF) =  -492.848927988     A.U. after    9 cycles
 SCF Done:  E(RHF) =  -492.848928646     A.U. after    9 cycles
 SCF Done:  E(RHF) =  -492.848929465     A.U. after    9 cycles
 SCF Done:  E(RHF) =  -492.848929567     A.U. after    8 cycles
 Optimization completed.
    -- Stationary point found.

                         Standard orientation:
 ---------------------------------------------------------------------
 Center     Atomic      Atomic             Coordinates (Angstroms)
 Number     Number       Type             X           Y           Z
 ---------------------------------------------------------------------
      1          1           0        4.047211   -0.876468   -0.702378
      2          6           0        3.165037   -1.178878   -0.157804
      3          1           0        3.434098   -1.442014    0.859123
      4          1           0        2.740720   -2.058384   -0.632838
      5          6           0        2.155458   -0.048661   -0.194501
      6          8           0        2.277506    0.881174   -0.942494
      7          7           0        1.136771   -0.200917    0.694468
      8          1           0        1.043588   -1.114614    1.079087
      9          6           0       -0.099882    0.554210    0.763887
     10          1           0       -0.331336    0.648477    1.823070
     11          6           0       -0.030708    1.976391    0.203114
     12          1           0        0.013595    1.998395   -0.875113
     13          1           0       -0.896491    2.536549    0.543309
     14          1           0        0.848687    2.478828    0.577896
     15          6           0       -1.238723   -0.326783    0.220738
     16          8           0       -1.114037   -1.522489    0.176284
     17          7           0       -2.398108    0.286843   -0.087509
     18          1           0       -2.412648    1.273155   -0.190692
     19          6           0       -3.531648   -0.467115   -0.583420
     20          1           0       -3.738601   -1.296046    0.077510
     21          1           0       -4.394144    0.185310   -0.612254
     22          1           0       -3.350268   -0.859139   -1.577839
 ---------------------------------------------------------------------

 The electronic state is 1-A.
 Alpha  occ. eigenvalues --  -20.52922 -20.51797 -15.59176 -15.57813 -11.34909
 Alpha  occ. eigenvalues --  -11.34491 -11.28691 -11.26182 -11.22685 -11.22484
 Alpha  occ. eigenvalues --   -1.39984  -1.38471  -1.23905  -1.23383  -1.05766
 Alpha  occ. eigenvalues --   -0.98820  -0.95792  -0.89392  -0.80352  -0.75987
 Alpha  occ. eigenvalues --   -0.72785  -0.69544  -0.65707  -0.64391  -0.62433
 Alpha  occ. eigenvalues --   -0.61775  -0.59739  -0.58639  -0.56499  -0.55953
 Alpha  occ. eigenvalues --   -0.55654  -0.54504  -0.53186  -0.51509  -0.50303
 Alpha  occ. eigenvalues --   -0.42938  -0.40983  -0.39856  -0.38246
 Alpha virt. eigenvalues --    0.19061   0.20916   0.21577   0.24308   0.25895
 Alpha virt. eigenvalues --    0.27741   0.29170   0.30528   0.31475   0.32349
 Alpha virt. eigenvalues --    0.32579   0.33613   0.33943   0.34831   0.36301

 Mulliken atomic charges:
              1
     1  H    0.211544
     2  C   -0.592207
     3  H    0.182625
     4  H    0.200264
     5  C    0.745453
     6  O   -0.606268
     7  N   -0.789087
     8  H    0.399278
     9  C   -0.038764
    10  H    0.207087
    11  C   -0.503487
    12  H    0.209022
    13  H    0.143742
    14  H    0.210505
    15  C    0.774520
    16  O   -0.629584
    17  N   -0.802704
    18  H    0.397050
    19  C   -0.272418
    20  H    0.201731
    21  H    0.168934
    22  H    0.182766
 Sum of Mulliken atomic charges =   0.00000

 Dipole moment (field-independent basis, Debye):
    X=             -2.4128    Y=              0.7981    Z=              1.6717  Tot=              3.0419
 Quadrupole moment (field-independent basis, Debye-Ang):
   XX=            -54.0610   YY=            -62.7935   ZZ=            -61.1733
   XY=            -11.2255   XZ=              5.9467   YZ=              1.8968

 Normal termination of Gaussian 09 at Thu Feb  9 22:37:09 2017.
