 Gaussian 09, Revision A.02,
 Gaussian 09:  EM64L-G09RevA.02 11-Jun-2009

 -------------------------------------------
 # HF/6-31G* Opt=(ModRedundant) geom=nocrowd
 -------------------------------------------

 ------------------
 Phi Psi fixed scan
 ------------------
 Symbolic Z-matrix:
 Charge =  0 Multiplicity = 1

 SCF Done:  E(RHF) =  -492.820340655     A.U. after   15 cycles
 SCF Done:  E(RHF) =  -492.838679649     A.U. after   15 cycles
 SCF Done:  E(RHF) =  -492.844147770     A.U. after   13 cycles
 SCF Done:  E(RHF) =  -492.846582675     A.U. after   13 cycles
 SCF Done:  E(RHF) =  -492.847133171     A.U. after   13 cycles
 SCF Done:  E(RHF) =  -492.847460001     A.U. after   13 cycles
 SCF Done:  E(RHF) =  -492.847739915     A.U. after   12 cycles
 SCF Done:  E(RHF) =  -492.847803326     A.U. after   13 cycles
 SCF Done:  E(RHF) =  -492.847874245     A.U. after   12 cycles
 SCF Done:  E(RHF) =  -492.847888779     A.U. after   10 cycles
 SCF Done:  E(RHF) =  -492.848160460     A.U. after   11 cycles
 SCF Done:  E(RHF) =  -492.848217397     A.U. after   11 cycles
 SCF Done:  E(RHF) =  -492.848272473     A.U. after   11 cycles
 SCF Done:  E(RHF) =  -492.848224374     A.U. after   12 cycles
 SCF Done:  E(RHF) =  -492.848262968     A.U. after   11 cycles
 SCF Done:  E(RHF) =  -492.848317488     A.U. after   12 cycles
 SCF Done:  E(RHF) =  -492.848319234     A.U. after   10 cycles
 SCF Done:  E(RHF) =  -492.848326617     A.U. after   10 cycles
 SCF Done:  E(RHF) =  -492.848326241     A.U. after   10 cycles
 SCF Done:  E(RHF) =  -492.848330189     A.U. after    9 cycles
 Optimization completed.
    -- Stationary point found.

                         Standard orientation:
 ---------------------------------------------------------------------
 Center     Atomic      Atomic             Coordinates (Angstroms)
 Number     Number       Type             X           Y           Z
 ---------------------------------------------------------------------
      1          1           0        4.070139   -0.936544   -0.552537
      2          6           0        3.160855   -1.205582   -0.035825
      3          1           0        3.385230   -1.451579    0.996281
      4          1           0        2.732116   -2.084807   -0.507217
      5          6           0        2.181288   -0.053137   -0.135386
      6          8           0        2.358761    0.860801   -0.890709
      7          7           0        1.122395   -0.166797    0.714128
      8          1           0        1.005904   -1.073576    1.108376
      9          6           0       -0.113471    0.589779    0.700364
     10          1           0       -0.380138    0.754865    1.742392
     11          6           0       -0.029922    1.969744    0.039313
     12          1           0        0.059588    1.908039   -1.034263
     13          1           0       -0.915631    2.544434    0.291420
     14          1           0        0.827162    2.509488    0.413164
     15          6           0       -1.234146   -0.307903    0.145839
     16          8           0       -1.037945   -1.464444   -0.115856
     17          7           0       -2.460487    0.248011    0.065498
     18          1           0       -2.559904    1.228870    0.175105
     19          6           0       -3.591711   -0.502887   -0.439499
     20          1           0       -3.678181   -1.441005    0.089482
     21          1           0       -4.490448    0.077160   -0.277835
     22          1           0       -3.493080   -0.714780   -1.498070
 ---------------------------------------------------------------------

 The electronic state is 1-A.
 Alpha  occ. eigenvalues --  -20.53032 -20.51733 -15.59118 -15.57782 -11.34884
 Alpha  occ. eigenvalues --  -11.34414 -11.28690 -11.26221 -11.22660 -11.22384
 Alpha  occ. eigenvalues --   -1.40028  -1.38421  -1.23875  -1.23364  -1.05738
 Alpha  occ. eigenvalues --   -0.98741  -0.95834  -0.89186  -0.80286  -0.75995
 Alpha  occ. eigenvalues --   -0.72797  -0.69469  -0.65811  -0.64020  -0.62517
 Alpha  occ. eigenvalues --   -0.61890  -0.59707  -0.58585  -0.56509  -0.56033
 Alpha  occ. eigenvalues --   -0.55575  -0.54241  -0.53227  -0.51527  -0.50283
 Alpha  occ. eigenvalues --   -0.42871  -0.40882  -0.39780  -0.38329
 Alpha virt. eigenvalues --    0.19102   0.20708   0.21348   0.24110   0.25902
 Alpha virt. eigenvalues --    0.27930   0.29327   0.30475   0.31675   0.32203
 Alpha virt. eigenvalues --    0.32359   0.33509   0.33836   0.34981   0.36673

 Mulliken atomic charges:
              1
     1  H    0.211427
     2  C   -0.594174
     3  H    0.181352
     4  H    0.202431
     5  C    0.747019
     6  O   -0.604371
     7  N   -0.785895
     8  H    0.393704
     9  C   -0.040618
    10  H    0.201588
    11  C   -0.486619
    12  H    0.210805
    13  H    0.137361
    14  H    0.210020
    15  C    0.764473
    16  O   -0.622005
    17  N   -0.800500
    18  H    0.392673
    19  C   -0.270323
    20  H    0.200116
    21  H    0.168240
    22  H    0.183297
 Sum of Mulliken atomic charges =   0.00000

 Dipole moment (field-independent basis, Debye):
    X=             -2.8303    Y=              0.7226    Z=              2.3695  Tot=              3.7613
 Quadrupole moment (field-independent basis, Debye-Ang):
   XX=            -53.7802   YY=            -62.2224   ZZ=            -61.3992
   XY=            -11.0357   XZ=              4.6279   YZ=              0.9914

 Normal termination of Gaussian 09 at Thu Feb  9 22:33:58 2017.
