 Gaussian 09, Revision A.02,
 Gaussian 09:  EM64L-G09RevA.02 11-Jun-2009

 -------------------------------------------
 # HF/6-31G* Opt=(ModRedundant) geom=nocrowd
 -------------------------------------------

 ------------------
 Phi Psi fixed scan
 ------------------
 Symbolic Z-matrix:
 Charge =  0 Multiplicity = 1

 SCF Done:  E(RHF) =  -492.819930921     A.U. after   15 cycles
 SCF Done:  E(RHF) =  -492.840011492     A.U. after   14 cycles
 SCF Done:  E(RHF) =  -492.844095831     A.U. after   13 cycles
 SCF Done:  E(RHF) =  -492.844965994     A.U. after   13 cycles
 SCF Done:  E(RHF) =  -492.844759671     A.U. after   13 cycles
 SCF Done:  E(RHF) =  -492.845373340     A.U. after   12 cycles
 SCF Done:  E(RHF) =  -492.845488971     A.U. after   12 cycles
 SCF Done:  E(RHF) =  -492.845513820     A.U. after   13 cycles
 SCF Done:  E(RHF) =  -492.845617673     A.U. after   13 cycles
 SCF Done:  E(RHF) =  -492.845641432     A.U. after   11 cycles
 SCF Done:  E(RHF) =  -492.845892532     A.U. after   13 cycles
 SCF Done:  E(RHF) =  -492.845832946     A.U. after   13 cycles
 SCF Done:  E(RHF) =  -492.845914582     A.U. after   11 cycles
 SCF Done:  E(RHF) =  -492.845932854     A.U. after   10 cycles
 SCF Done:  E(RHF) =  -492.845936544     A.U. after    9 cycles
 SCF Done:  E(RHF) =  -492.845956209     A.U. after   11 cycles
 SCF Done:  E(RHF) =  -492.845956497     A.U. after    9 cycles
 SCF Done:  E(RHF) =  -492.845957403     A.U. after    9 cycles
 SCF Done:  E(RHF) =  -492.845957487     A.U. after    8 cycles
 SCF Done:  E(RHF) =  -492.845957516     A.U. after    8 cycles
 Optimization completed.
    -- Stationary point found.

                         Standard orientation:
 ---------------------------------------------------------------------
 Center     Atomic      Atomic             Coordinates (Angstroms)
 Number     Number       Type             X           Y           Z
 ---------------------------------------------------------------------
      1          1           0       -4.072030   -1.138307    0.158691
      2          6           0       -3.076598   -1.365483   -0.192968
      3          1           0       -3.119612   -1.680998   -1.229990
      4          1           0       -2.674052   -2.184521    0.395280
      5          6           0       -2.201124   -0.141945   -0.005677
      6          8           0       -2.529682    0.761809    0.707122
      7          7           0       -1.045423   -0.183026   -0.728046
      8          1           0       -0.873274   -1.046127   -1.193035
      9          6           0        0.132789    0.652233   -0.597222
     10          1           0        0.454480    0.888282   -1.608652
     11          6           0       -0.063445    1.977392    0.144611
     12          1           0       -0.307639    1.818185    1.182564
     13          1           0        0.862538    2.541613    0.079139
     14          1           0       -0.854864    2.557600   -0.307372
     15          6           0        1.248329   -0.150279    0.084719
     16          8           0        1.036997   -0.843627    1.040247
     17          7           0        2.469627   -0.037097   -0.483448
     18          1           0        2.600196    0.631471   -1.206804
     19          6           0        3.645405   -0.617563    0.131046
     20          1           0        3.437897   -1.638753    0.414084
     21          1           0        4.455022   -0.607397   -0.586669
     22          1           0        3.951265   -0.071772    1.017214
 ---------------------------------------------------------------------

 The electronic state is 1-A.
 Alpha  occ. eigenvalues --  -20.52646 -20.51605 -15.59339 -15.58333 -11.34563
 Alpha  occ. eigenvalues --  -11.34469 -11.28608 -11.26286 -11.22555 -11.21921
 Alpha  occ. eigenvalues --   -1.39688  -1.38384  -1.24058  -1.23430  -1.05677
 Alpha  occ. eigenvalues --   -0.98753  -0.96176  -0.88388  -0.80026  -0.76786
 Alpha  occ. eigenvalues --   -0.72521  -0.69540  -0.65954  -0.63388  -0.62836
 Alpha  occ. eigenvalues --   -0.61906  -0.59766  -0.58494  -0.56405  -0.55873
 Alpha  occ. eigenvalues --   -0.55444  -0.53576  -0.52738  -0.51506  -0.50358
 Alpha  occ. eigenvalues --   -0.43230  -0.40542  -0.39556  -0.38178
 Alpha virt. eigenvalues --    0.18931   0.19986   0.21572   0.23562   0.26053
 Alpha virt. eigenvalues --    0.28296   0.29299   0.30476   0.31229   0.31629
 Alpha virt. eigenvalues --    0.32575   0.33645   0.34279   0.34640   0.37370

 Mulliken atomic charges:
              1
     1  H    0.213268
     2  C   -0.595180
     3  H    0.173812
     4  H    0.204428
     5  C    0.761720
     6  O   -0.598412
     7  N   -0.797547
     8  H    0.380304
     9  C   -0.023813
    10  H    0.176593
    11  C   -0.478924
    12  H    0.224444
    13  H    0.148000
    14  H    0.199671
    15  C    0.744342
    16  O   -0.604422
    17  N   -0.792461
    18  H    0.383930
    19  C   -0.275575
    20  H    0.206969
    21  H    0.169076
    22  H    0.179776
 Sum of Mulliken atomic charges =   0.00000

 Dipole moment (field-independent basis, Debye):
    X=              3.2773    Y=             -0.5330    Z=             -4.5040  Tot=              5.5956
 Quadrupole moment (field-independent basis, Debye-Ang):
   XX=            -54.9553   YY=            -59.2428   ZZ=            -62.3947
   XY=              9.0318   XZ=              0.5635   YZ=              0.6940

 Normal termination of Gaussian 09 at Thu Feb  9 22:21:08 2017.
