 Gaussian 09, Revision A.02,
 Gaussian 09:  EM64L-G09RevA.02 11-Jun-2009

 -------------------------------------------
 # HF/6-31G* Opt=(ModRedundant) geom=nocrowd
 -------------------------------------------

 ------------------
 Phi Psi fixed scan
 ------------------
 Symbolic Z-matrix:
 Charge =  0 Multiplicity = 1

 SCF Done:  E(RHF) =  -492.814192015     A.U. after   15 cycles
 SCF Done:  E(RHF) =  -492.836465819     A.U. after   15 cycles
 SCF Done:  E(RHF) =  -492.841345757     A.U. after   14 cycles
 SCF Done:  E(RHF) =  -492.842076361     A.U. after   16 cycles
 SCF Done:  E(RHF) =  -492.842017996     A.U. after   13 cycles
 SCF Done:  E(RHF) =  -492.842208284     A.U. after   11 cycles
 SCF Done:  E(RHF) =  -492.842243199     A.U. after   11 cycles
 SCF Done:  E(RHF) =  -492.842280833     A.U. after   11 cycles
 SCF Done:  E(RHF) =  -492.842323732     A.U. after   11 cycles
 SCF Done:  E(RHF) =  -492.842358766     A.U. after   12 cycles
 SCF Done:  E(RHF) =  -492.842860550     A.U. after   14 cycles
 SCF Done:  E(RHF) =  -492.842411890     A.U. after   15 cycles
 SCF Done:  E(RHF) =  -492.842874603     A.U. after   12 cycles
 SCF Done:  E(RHF) =  -492.842865090     A.U. after   13 cycles
 SCF Done:  E(RHF) =  -492.842932468     A.U. after   11 cycles
 SCF Done:  E(RHF) =  -492.842933470     A.U. after   11 cycles
 SCF Done:  E(RHF) =  -492.842937715     A.U. after   10 cycles
 SCF Done:  E(RHF) =  -492.842939141     A.U. after   10 cycles
 SCF Done:  E(RHF) =  -492.842939173     A.U. after    8 cycles
 SCF Done:  E(RHF) =  -492.842939187     A.U. after    7 cycles
 Optimization completed.
    -- Stationary point found.

                         Standard orientation:
 ---------------------------------------------------------------------
 Center     Atomic      Atomic             Coordinates (Angstroms)
 Number     Number       Type             X           Y           Z
 ---------------------------------------------------------------------
      1          1           0       -3.773659   -1.568184    0.455212
      2          6           0       -2.759998   -1.705910    0.109488
      3          1           0       -2.770190   -2.163527   -0.874000
      4          1           0       -2.246598   -2.377621    0.791016
      5          6           0       -2.061801   -0.358424    0.104121
      6          8           0       -2.511288    0.583014    0.689321
      7          7           0       -0.904561   -0.349247   -0.615675
      8          1           0       -0.623435   -1.227072   -0.989499
      9          6           0        0.093574    0.711185   -0.740289
     10          1           0        0.393541    0.709809   -1.785999
     11          6           0       -0.384425    2.116186   -0.398241
     12          1           0       -0.597848    2.218622    0.651604
     13          1           0        0.403441    2.812955   -0.664947
     14          1           0       -1.273120    2.362235   -0.963221
     15          6           0        1.318738    0.316254    0.097892
     16          8           0        1.539337    0.771382    1.182515
     17          7           0        2.093155   -0.654884   -0.456780
     18          1           0        2.028045   -0.799203   -1.438506
     19          6           0        3.306416   -1.097898    0.200081
     20          1           0        3.092102   -1.326345    1.233156
     21          1           0        3.662793   -1.993230   -0.292438
     22          1           0        4.085352   -0.343041    0.171791
 ---------------------------------------------------------------------

 The electronic state is 1-A.
 Alpha  occ. eigenvalues --  -20.53052 -20.52049 -15.59274 -15.59086 -11.34996
 Alpha  occ. eigenvalues --  -11.34677 -11.28713 -11.26257 -11.23209 -11.20791
 Alpha  occ. eigenvalues --   -1.39932  -1.38886  -1.24765  -1.23085  -1.05549
 Alpha  occ. eigenvalues --   -0.98891  -0.96443  -0.87966  -0.79958  -0.77212
 Alpha  occ. eigenvalues --   -0.72510  -0.69790  -0.65931  -0.64648  -0.62839
 Alpha  occ. eigenvalues --   -0.61799  -0.60179  -0.58956  -0.56509  -0.55891
 Alpha  occ. eigenvalues --   -0.53855  -0.53077  -0.52118  -0.51793  -0.51040
 Alpha  occ. eigenvalues --   -0.44509  -0.41066  -0.39853  -0.37829
 Alpha virt. eigenvalues --    0.17984   0.19784   0.21697   0.23637   0.26156
 Alpha virt. eigenvalues --    0.27021   0.28972   0.30607   0.31102   0.31757
 Alpha virt. eigenvalues --    0.32975   0.33673   0.34028   0.35045   0.36717

 Mulliken atomic charges:
              1
     1  H    0.217454
     2  C   -0.592344
     3  H    0.174246
     4  H    0.196502
     5  C    0.757093
     6  O   -0.588866
     7  N   -0.813390
     8  H    0.379067
     9  C   -0.034178
    10  H    0.172680
    11  C   -0.468016
    12  H    0.232562
    13  H    0.156356
    14  H    0.180871
    15  C    0.767497
    16  O   -0.590122
    17  N   -0.798726
    18  H    0.374525
    19  C   -0.276616
    20  H    0.208230
    21  H    0.167528
    22  H    0.177647
 Sum of Mulliken atomic charges =   0.00000

 Dipole moment (field-independent basis, Debye):
    X=              2.2537    Y=             -4.0976    Z=             -4.8729  Tot=              6.7539
 Quadrupole moment (field-independent basis, Debye-Ang):
   XX=            -61.0654   YY=            -57.6565   ZZ=            -61.6402
   XY=              2.0462   XZ=             -2.0958   YZ=             -2.5213

 Normal termination of Gaussian 09 at Thu Feb  9 22:09:04 2017.
