 Gaussian 09, Revision A.02,
 Gaussian 09:  EM64L-G09RevA.02 11-Jun-2009

 -------------------------------------------
 # HF/6-31G* Opt=(ModRedundant) geom=nocrowd
 -------------------------------------------

 ------------------
 Phi Psi fixed scan
 ------------------
 Symbolic Z-matrix:
 Charge =  0 Multiplicity = 1

 SCF Done:  E(RHF) =  -492.814142150     A.U. after   15 cycles
 SCF Done:  E(RHF) =  -492.839610061     A.U. after   16 cycles
 SCF Done:  E(RHF) =  -492.846192389     A.U. after   14 cycles
 SCF Done:  E(RHF) =  -492.848236320     A.U. after   13 cycles
 SCF Done:  E(RHF) =  -492.848374592     A.U. after   12 cycles
 SCF Done:  E(RHF) =  -492.848618529     A.U. after   12 cycles
 SCF Done:  E(RHF) =  -492.848697890     A.U. after   11 cycles
 SCF Done:  E(RHF) =  -492.848699945     A.U. after   11 cycles
 SCF Done:  E(RHF) =  -492.848728135     A.U. after   10 cycles
 SCF Done:  E(RHF) =  -492.848737318     A.U. after   10 cycles
 SCF Done:  E(RHF) =  -492.849134910     A.U. after   12 cycles
 SCF Done:  E(RHF) =  -492.849147748     A.U. after   11 cycles
 SCF Done:  E(RHF) =  -492.849141594     A.U. after   11 cycles
 SCF Done:  E(RHF) =  -492.849146848     A.U. after   11 cycles
 SCF Done:  E(RHF) =  -492.849166359     A.U. after   11 cycles
 SCF Done:  E(RHF) =  -492.849176706     A.U. after   11 cycles
 SCF Done:  E(RHF) =  -492.849178308     A.U. after   10 cycles
 SCF Done:  E(RHF) =  -492.849181084     A.U. after   10 cycles
 SCF Done:  E(RHF) =  -492.849182737     A.U. after   10 cycles
 SCF Done:  E(RHF) =  -492.849182862     A.U. after    8 cycles
 Optimization completed.
    -- Stationary point found.

                         Standard orientation:
 ---------------------------------------------------------------------
 Center     Atomic      Atomic             Coordinates (Angstroms)
 Number     Number       Type             X           Y           Z
 ---------------------------------------------------------------------
      1          1           0       -3.963848   -0.835324    0.908368
      2          6           0       -3.114690   -1.178974    0.336344
      3          1           0       -3.436937   -1.477872   -0.654719
      4          1           0       -2.688530   -2.047694    0.829324
      5          6           0       -2.081089   -0.070808    0.283930
      6          8           0       -2.124763    0.866411    1.032746
      7          7           0       -1.131512   -0.254106   -0.668364
      8          1           0       -1.099960   -1.151963   -1.097401
      9          6           0        0.078130    0.522997   -0.894105
     10          1           0        0.223254    0.528122   -1.970304
     11          6           0        0.007153    1.982760   -0.452099
     12          1           0       -0.046204    2.099870    0.619345
     13          1           0        0.876675    2.506802   -0.837036
     14          1           0       -0.874743    2.449301   -0.869193
     15          6           0        1.265380   -0.309215   -0.383291
     16          8           0        1.337342   -1.470312   -0.695902
     17          7           0        2.202750    0.300499    0.361355
     18          1           0        2.031551    1.216208    0.702218
     19          6           0        3.329812   -0.434760    0.897423
     20          1           0        3.804597   -1.003352    0.111193
     21          1           0        4.042094    0.270848    1.303634
     22          1           0        3.024586   -1.120480    1.679667
 ---------------------------------------------------------------------

 The electronic state is 1-A.
 Alpha  occ. eigenvalues --  -20.52442 -20.51965 -15.59237 -15.58274 -11.34785
 Alpha  occ. eigenvalues --  -11.34714 -11.28592 -11.26122 -11.22808 -11.22547
 Alpha  occ. eigenvalues --   -1.39649  -1.38621  -1.23918  -1.23554  -1.05824
 Alpha  occ. eigenvalues --   -0.99024  -0.95810  -0.89542  -0.80365  -0.76470
 Alpha  occ. eigenvalues --   -0.72587  -0.69783  -0.65586  -0.64690  -0.62272
 Alpha  occ. eigenvalues --   -0.61812  -0.59594  -0.58795  -0.56488  -0.55994
 Alpha  occ. eigenvalues --   -0.55611  -0.54685  -0.53084  -0.51627  -0.50565
 Alpha  occ. eigenvalues --   -0.43096  -0.41173  -0.39584  -0.38089
 Alpha virt. eigenvalues --    0.19256   0.20888   0.21906   0.23849   0.25745
 Alpha virt. eigenvalues --    0.27216   0.29296   0.30437   0.31464   0.31816
 Alpha virt. eigenvalues --    0.32879   0.33641   0.33851   0.34530   0.37222

 Mulliken atomic charges:
              1
     1  H    0.212792
     2  C   -0.589755
     3  H    0.182200
     4  H    0.198155
     5  C    0.748642
     6  O   -0.609713
     7  N   -0.800872
     8  H    0.401417
     9  C   -0.028398
    10  H    0.208540
    11  C   -0.514314
    12  H    0.207093
    13  H    0.158760
    14  H    0.202425
    15  C    0.778408
    16  O   -0.635390
    17  N   -0.804715
    18  H    0.401856
    19  C   -0.272765
    20  H    0.202749
    21  H    0.169736
    22  H    0.183148
 Sum of Mulliken atomic charges =   0.00000

 Dipole moment (field-independent basis, Debye):
    X=              1.4091    Y=              0.7095    Z=             -0.6402  Tot=              1.7026
 Quadrupole moment (field-independent basis, Debye-Ang):
   XX=            -55.4983   YY=            -62.8717   ZZ=            -61.0407
   XY=             11.2877   XZ=              8.1916   YZ=             -3.7689

 Normal termination of Gaussian 09 at Thu Feb  9 22:43:49 2017.
