 Gaussian 09, Revision A.02,
 Gaussian 09:  EM64L-G09RevA.02 11-Jun-2009

 ----------------------------------------------------------------------
 # b3lyp/6-31G* Opt=(ModRedundant, maxcycles=1000, calcfc) geom=nocrowd
 ----------------------------------------------------------------------

 ------------------
 Phi Psi fixed scan
 ------------------
 Symbolic Z-matrix:
 Charge =  0 Multiplicity = 1

 SCF Done:  E(RB3LYP) =  -495.822940768     A.U. after   16 cycles

  Exact polarizability:   0.000   0.000   0.000   0.000   0.000   0.000
 Approx polarizability: 108.199  -9.991 120.417   0.096 -11.114 107.709

 SCF Done:  E(RB3LYP) =  -495.831193238     A.U. after   16 cycles
 SCF Done:  E(RB3LYP) =  -495.840893139     A.U. after   13 cycles
 SCF Done:  E(RB3LYP) =  -495.840357106     A.U. after   16 cycles
 SCF Done:  E(RB3LYP) =  -495.841668417     A.U. after   14 cycles
 SCF Done:  E(RB3LYP) =  -495.842429168     A.U. after   12 cycles
 SCF Done:  E(RB3LYP) =  -495.843482792     A.U. after   12 cycles
 SCF Done:  E(RB3LYP) =  -495.843125025     A.U. after   13 cycles
 SCF Done:  E(RB3LYP) =  -495.843852899     A.U. after   13 cycles
 SCF Done:  E(RB3LYP) =  -495.844118837     A.U. after   12 cycles
 SCF Done:  E(RB3LYP) =  -495.844338352     A.U. after    8 cycles
 SCF Done:  E(RB3LYP) =  -495.844340673     A.U. after    8 cycles
 SCF Done:  E(RB3LYP) =  -495.844344869     A.U. after    9 cycles
 SCF Done:  E(RB3LYP) =  -495.844355521     A.U. after   10 cycles
 SCF Done:  E(RB3LYP) =  -495.844380340     A.U. after   11 cycles
 SCF Done:  E(RB3LYP) =  -495.844400818     A.U. after   12 cycles
 SCF Done:  E(RB3LYP) =  -495.844408959     A.U. after   11 cycles
 SCF Done:  E(RB3LYP) =  -495.844409644     A.U. after    9 cycles
 SCF Done:  E(RB3LYP) =  -495.844409674     A.U. after    7 cycles
 SCF Done:  E(RB3LYP) =  -495.844409661     A.U. after    6 cycles
 Optimization completed.
    -- Stationary point found.

                         Standard orientation:
 ---------------------------------------------------------------------
 Center     Atomic      Atomic             Coordinates (Angstroms)
 Number     Number       Type             X           Y           Z
 ---------------------------------------------------------------------
      1          1           0       -3.474818   -1.764085    0.475436
      2          6           0       -3.151919   -1.042512   -0.277681
      3          1           0       -3.942367   -0.289378   -0.380509
      4          1           0       -3.034652   -1.549668   -1.241350
      5          6           0       -1.875214   -0.366734    0.208095
      6          8           0       -1.652312   -0.169815    1.392373
      7          7           0       -0.988045   -0.019295   -0.792714
      8          1           0       -1.341969   -0.113661   -1.735692
      9          6           0        0.099073    0.966050   -0.630078
     10          1           0        0.323995    1.299689   -1.651580
     11          6           0       -0.268648    2.205214    0.192895
     12          1           0       -0.530690    1.931882    1.215120
     13          1           0        0.593817    2.874223    0.212343
     14          1           0       -1.117531    2.724128   -0.265272
     15          6           0        1.430821    0.343912   -0.144875
     16          8           0        2.355484    1.067278    0.207134
     17          7           0        1.517940   -1.009633   -0.242116
     18          1           0        0.660047   -1.508558   -0.429870
     19          6           0        2.688910   -1.742651    0.202112
     20          1           0        3.498670   -1.022889    0.330580
     21          1           0        2.511199   -2.248706    1.159553
     22          1           0        2.981528   -2.489862   -0.543827
 ---------------------------------------------------------------------

 The electronic state is 1-A.
 Alpha  occ. eigenvalues --  -19.12013 -19.10294 -14.37217 -14.35448 -10.29770
 Alpha  occ. eigenvalues --  -10.27842 -10.24051 -10.21273 -10.20161 -10.17053
 Alpha  occ. eigenvalues --   -1.04010  -1.02293  -0.93325  -0.91000  -0.77958
 Alpha  occ. eigenvalues --   -0.73222  -0.70675  -0.64337  -0.58856  -0.56817
 Alpha  occ. eigenvalues --   -0.52964  -0.50597  -0.47248  -0.45526  -0.45008
 Alpha  occ. eigenvalues --   -0.44073  -0.41921  -0.41450  -0.40605  -0.39647
 Alpha  occ. eigenvalues --   -0.38473  -0.38096  -0.36367  -0.35694  -0.34532
 Alpha  occ. eigenvalues --   -0.28089  -0.25469  -0.24678  -0.23573
 Alpha virt. eigenvalues --    0.01429   0.02965   0.06020   0.10296   0.11312
 Alpha virt. eigenvalues --    0.13412   0.13554   0.14145   0.16023   0.16413
 Alpha virt. eigenvalues --    0.17146   0.17889   0.18122   0.18861   0.19307

 Mulliken atomic charges:
              1
     1  H    0.191250
     2  C   -0.544994
     3  H    0.185597
     4  H    0.149784
     5  C    0.584665
     6  O   -0.485501
     7  N   -0.629245
     8  H    0.326315
     9  C   -0.044150
    10  H    0.164133
    11  C   -0.453940
    12  H    0.197964
    13  H    0.179765
    14  H    0.131079
    15  C    0.621371
    16  O   -0.526460
    17  N   -0.588470
    18  H    0.336450
    19  C   -0.309905
    20  H    0.201110
    21  H    0.162023
    22  H    0.151158
 Sum of Mulliken atomic charges =   0.00000

 Dipole moment (field-independent basis, Debye):
    X=             -2.6400    Y=             -2.5012    Z=             -4.0346  Tot=              5.4317
 Quadrupole moment (field-independent basis, Debye-Ang):
   XX=            -60.9802   YY=            -56.9350   ZZ=            -60.7207
   XY=             -5.3891   XZ=              4.9680   YZ=             -0.8099

 Normal termination of Gaussian 09 at Sat Feb 11 03:13:23 2017.
