 Gaussian 09, Revision A.02,
 Gaussian 09:  EM64L-G09RevA.02 11-Jun-2009

 ----------------------------------------------------------------------
 # b3lyp/6-31G* Opt=(ModRedundant, maxcycles=1000, calcfc) geom=nocrowd
 ----------------------------------------------------------------------

 ------------------
 Phi Psi fixed scan
 ------------------
 Symbolic Z-matrix:
 Charge =  0 Multiplicity = 1

 SCF Done:  E(RB3LYP) =  -495.822914747     A.U. after   15 cycles

  Exact polarizability:   0.000   0.000   0.000   0.000   0.000   0.000
 Approx polarizability: 117.094 -12.697 107.376  -7.339   0.355 109.669

 SCF Done:  E(RB3LYP) =  -495.829507932     A.U. after   13 cycles
 SCF Done:  E(RB3LYP) =  -495.835832727     A.U. after   14 cycles
 SCF Done:  E(RB3LYP) =  -495.837567629     A.U. after   13 cycles
 SCF Done:  E(RB3LYP) =  -495.839050644     A.U. after   12 cycles
 SCF Done:  E(RB3LYP) =  -495.839917248     A.U. after   12 cycles
 SCF Done:  E(RB3LYP) =  -495.839807788     A.U. after   15 cycles
 SCF Done:  E(RB3LYP) =  -495.840227776     A.U. after   12 cycles
 SCF Done:  E(RB3LYP) =  -495.840521747     A.U. after   12 cycles
 SCF Done:  E(RB3LYP) =  -495.838151872     A.U. after   16 cycles
 SCF Done:  E(RB3LYP) =  -495.840588524     A.U. after   16 cycles
 SCF Done:  E(RB3LYP) =  -495.840625037     A.U. after   11 cycles
 SCF Done:  E(RB3LYP) =  -495.840640750     A.U. after   11 cycles
 SCF Done:  E(RB3LYP) =  -495.840650834     A.U. after   11 cycles
 SCF Done:  E(RB3LYP) =  -495.840669526     A.U. after   12 cycles
 SCF Done:  E(RB3LYP) =  -495.840670568     A.U. after    8 cycles
 SCF Done:  E(RB3LYP) =  -495.840670836     A.U. after    7 cycles
 SCF Done:  E(RB3LYP) =  -495.840670882     A.U. after    7 cycles
 SCF Done:  E(RB3LYP) =  -495.840670892     A.U. after    6 cycles
 SCF Done:  E(RB3LYP) =  -495.840670894     A.U. after    6 cycles
 Optimization completed.
    -- Stationary point found.

                         Standard orientation:
 ---------------------------------------------------------------------
 Center     Atomic      Atomic             Coordinates (Angstroms)
 Number     Number       Type             X           Y           Z
 ---------------------------------------------------------------------
      1          1           0        4.093439   -0.926646   -0.336782
      2          6           0        3.155269   -1.182534    0.158301
      3          1           0        3.335174   -1.337264    1.227723
      4          1           0        2.784248   -2.123196   -0.266314
      5          6           0        2.140334   -0.078868   -0.115717
      6          8           0        2.236151    0.660930   -1.083323
      7          7           0        1.141878    0.000888    0.832607
      8          1           0        1.078961   -0.809172    1.435947
      9          6           0       -0.130390    0.693753    0.677748
     10          1           0       -0.465437    0.934004    1.697983
     11          6           0       -0.053907    2.019528   -0.097242
     12          1           0        0.153471    1.859542   -1.153904
     13          1           0       -1.000900    2.561328    0.011178
     14          1           0        0.742990    2.646418    0.311049
     15          6           0       -1.183123   -0.285739    0.091825
     16          8           0       -0.869277   -1.372001   -0.376692
     17          7           0       -2.476153    0.140805    0.200034
     18          1           0       -2.650585    1.069703    0.556265
     19          6           0       -3.599552   -0.617476   -0.323729
     20          1           0       -3.216516   -1.588531   -0.639733
     21          1           0       -4.364355   -0.763918    0.447373
     22          1           0       -4.057334   -0.117536   -1.186272
 ---------------------------------------------------------------------

 The electronic state is 1-A.
 Alpha  occ. eigenvalues --  -19.11503 -19.10177 -14.36691 -14.35230 -10.28647
 Alpha  occ. eigenvalues --  -10.28042 -10.24098 -10.22167 -10.18382 -10.18197
 Alpha  occ. eigenvalues --   -1.03557  -1.01969  -0.92413  -0.91653  -0.77957
 Alpha  occ. eigenvalues --   -0.72335  -0.70699  -0.64815  -0.59098  -0.55786
 Alpha  occ. eigenvalues --   -0.53097  -0.50106  -0.46811  -0.45473  -0.44738
 Alpha  occ. eigenvalues --   -0.43620  -0.42310  -0.40898  -0.40176  -0.39380
 Alpha  occ. eigenvalues --   -0.38851  -0.37720  -0.37336  -0.35530  -0.34665
 Alpha  occ. eigenvalues --   -0.26137  -0.25636  -0.24631  -0.23369
 Alpha virt. eigenvalues --    0.02313   0.03725   0.05905   0.08660   0.11649
 Alpha virt. eigenvalues --    0.13210   0.14904   0.15474   0.15691   0.15891
 Alpha virt. eigenvalues --    0.16466   0.16879   0.18427   0.19114   0.19397

 Mulliken atomic charges:
              1
     1  H    0.183057
     2  C   -0.549296
     3  H    0.151751
     4  H    0.188499
     5  C    0.597099
     6  O   -0.501827
     7  N   -0.572290
     8  H    0.324659
     9  C   -0.057129
    10  H    0.146842
    11  C   -0.438250
    12  H    0.202649
    13  H    0.120381
    14  H    0.170818
    15  C    0.597945
    16  O   -0.513400
    17  N   -0.589713
    18  H    0.326010
    19  C   -0.310125
    20  H    0.205701
    21  H    0.156115
    22  H    0.160504
 Sum of Mulliken atomic charges =   0.00000

 Dipole moment (field-independent basis, Debye):
    X=             -3.0466    Y=              0.7117    Z=              3.3445  Tot=              4.5798
 Quadrupole moment (field-independent basis, Debye-Ang):
   XX=            -51.8767   YY=            -60.3400   ZZ=            -60.9108
   XY=             -7.8576   XZ=              3.8617   YZ=              0.1597

 Normal termination of Gaussian 09 at Sat Feb 11 03:21:04 2017.
