 Gaussian 09, Revision A.02,
 Gaussian 09:  EM64L-G09RevA.02 11-Jun-2009

 ----------------------------------------------------------------------
 # b3lyp/6-31G* Opt=(ModRedundant, maxcycles=1000, calcfc) geom=nocrowd
 ----------------------------------------------------------------------

 ------------------
 Phi Psi fixed scan
 ------------------
 Symbolic Z-matrix:
 Charge =  0 Multiplicity = 1

 SCF Done:  E(RB3LYP) =  -495.820837769     A.U. after   15 cycles

  Exact polarizability:   0.000   0.000   0.000   0.000   0.000   0.000
 Approx polarizability: 114.191  13.444 115.265   0.190   7.953 104.830

 SCF Done:  E(RB3LYP) =  -495.828426295     A.U. after   13 cycles
 SCF Done:  E(RB3LYP) =  -495.837981907     A.U. after   14 cycles
 SCF Done:  E(RB3LYP) =  -495.837956543     A.U. after   15 cycles
 SCF Done:  E(RB3LYP) =  -495.838679023     A.U. after   13 cycles
 SCF Done:  E(RB3LYP) =  -495.839555685     A.U. after   12 cycles
 SCF Done:  E(RB3LYP) =  -495.840623318     A.U. after   13 cycles
 SCF Done:  E(RB3LYP) =  -495.840648703     A.U. after   13 cycles
 SCF Done:  E(RB3LYP) =  -495.841655175     A.U. after   12 cycles
 SCF Done:  E(RB3LYP) =  -495.841894713     A.U. after   12 cycles
 SCF Done:  E(RB3LYP) =  -495.842033939     A.U. after   13 cycles
 SCF Done:  E(RB3LYP) =  -495.842156584     A.U. after   12 cycles
 SCF Done:  E(RB3LYP) =  -495.842171668     A.U. after   11 cycles
 SCF Done:  E(RB3LYP) =  -495.842176621     A.U. after   10 cycles
 SCF Done:  E(RB3LYP) =  -495.842178873     A.U. after   10 cycles
 SCF Done:  E(RB3LYP) =  -495.842181077     A.U. after    9 cycles
 SCF Done:  E(RB3LYP) =  -495.842182883     A.U. after   10 cycles
 SCF Done:  E(RB3LYP) =  -495.842185472     A.U. after   10 cycles
 SCF Done:  E(RB3LYP) =  -495.842186880     A.U. after   10 cycles
 SCF Done:  E(RB3LYP) =  -495.842186962     A.U. after    6 cycles
 Optimization completed.
    -- Stationary point found.

                         Standard orientation:
 ---------------------------------------------------------------------
 Center     Atomic      Atomic             Coordinates (Angstroms)
 Number     Number       Type             X           Y           Z
 ---------------------------------------------------------------------
      1          1           0       -4.048353   -0.793131    0.671838
      2          6           0       -3.165739   -1.127470    0.123702
      3          1           0       -3.437625   -1.344226   -0.914508
      4          1           0       -2.806109   -2.055520    0.584572
      5          6           0       -2.084963   -0.059200    0.239254
      6          8           0       -2.045017    0.721350    1.180542
      7          7           0       -1.190926   -0.056994   -0.808789
      8          1           0       -1.159759   -0.921354   -1.335261
      9          6           0        0.097334    0.633062   -0.805596
     10          1           0        0.358688    0.754139   -1.867821
     11          6           0        0.066388    2.040093   -0.194329
     12          1           0       -0.013236    2.019074    0.891854
     13          1           0        0.963574    2.595416   -0.495778
     14          1           0       -0.796957    2.589523   -0.578022
     15          6           0        1.181424   -0.334340   -0.258342
     16          8           0        0.992905   -1.546243   -0.270357
     17          7           0        2.364434    0.233267    0.108556
     18          1           0        2.405193    1.235914    0.214216
     19          6           0        3.480508   -0.554774    0.606389
     20          1           0        3.311245   -1.591044    0.311948
     21          1           0        4.419970   -0.199401    0.170454
     22          1           0        3.556006   -0.508391    1.700190
 ---------------------------------------------------------------------

 The electronic state is 1-A.
 Alpha  occ. eigenvalues --  -19.11463 -19.10429 -14.36685 -14.35119 -10.28731
 Alpha  occ. eigenvalues --  -10.28173 -10.24076 -10.22115 -10.18685 -10.18332
 Alpha  occ. eigenvalues --   -1.03597  -1.02143  -0.92414  -0.91586  -0.78004
 Alpha  occ. eigenvalues --   -0.72448  -0.70640  -0.65215  -0.59149  -0.55524
 Alpha  occ. eigenvalues --   -0.53166  -0.50356  -0.46593  -0.45626  -0.44571
 Alpha  occ. eigenvalues --   -0.43830  -0.42562  -0.41246  -0.39903  -0.39398
 Alpha  occ. eigenvalues --   -0.39086  -0.38153  -0.37435  -0.35436  -0.34760
 Alpha  occ. eigenvalues --   -0.26122  -0.25835  -0.24909  -0.23509
 Alpha virt. eigenvalues --    0.02365   0.03228   0.06722   0.09411   0.11487
 Alpha virt. eigenvalues --    0.13018   0.14351   0.15353   0.15668   0.16302
 Alpha virt. eigenvalues --    0.16655   0.16746   0.18180   0.18912   0.19173

 Mulliken atomic charges:
              1
     1  H    0.182985
     2  C   -0.545543
     3  H    0.155498
     4  H    0.185567
     5  C    0.588608
     6  O   -0.504794
     7  N   -0.569607
     8  H    0.332550
     9  C   -0.058716
    10  H    0.166433
    11  C   -0.466408
    12  H    0.197521
    13  H    0.126284
    14  H    0.174928
    15  C    0.612591
    16  O   -0.528954
    17  N   -0.593928
    18  H    0.332603
    19  C   -0.309683
    20  H    0.202838
    21  H    0.155643
    22  H    0.163585
 Sum of Mulliken atomic charges =   0.00000

 Dipole moment (field-independent basis, Debye):
    X=              2.3428    Y=              0.9863    Z=             -1.8706  Tot=              3.1561
 Quadrupole moment (field-independent basis, Debye-Ang):
   XX=            -51.9351   YY=            -61.1973   ZZ=            -61.0085
   XY=              8.4690   XZ=              5.9417   YZ=             -1.7930

 Normal termination of Gaussian 09 at Sat Feb 11 03:11:15 2017.
