 Gaussian 09, Revision A.02,
 Gaussian 09:  EM64L-G09RevA.02 11-Jun-2009

 ----------------------------------------------------------------------
 # b3lyp/6-31G* Opt=(ModRedundant, maxcycles=1000, calcfc) geom=nocrowd
 ----------------------------------------------------------------------

 ------------------
 Phi Psi fixed scan
 ------------------
 Symbolic Z-matrix:
 Charge =  0 Multiplicity = 1

 SCF Done:  E(RB3LYP) =  -495.817656295     A.U. after   16 cycles

  Exact polarizability:   0.000   0.000   0.000   0.000   0.000   0.000
 Approx polarizability: 106.469   6.071 113.991  -8.166 -24.186 115.108

 SCF Done:  E(RB3LYP) =  -495.824848078     A.U. after   14 cycles
 SCF Done:  E(RB3LYP) =  -495.834550503     A.U. after   16 cycles
 SCF Done:  E(RB3LYP) =  -495.833887137     A.U. after   15 cycles
 SCF Done:  E(RB3LYP) =  -495.834817268     A.U. after   13 cycles
 SCF Done:  E(RB3LYP) =  -495.835227162     A.U. after   15 cycles
 SCF Done:  E(RB3LYP) =  -495.835779279     A.U. after   12 cycles
 SCF Done:  E(RB3LYP) =  -495.824652783     A.U. after   15 cycles
 SCF Done:  E(RB3LYP) =  -495.836044585     A.U. after   14 cycles
 SCF Done:  E(RB3LYP) =  -495.836156206     A.U. after   12 cycles
 SCF Done:  E(RB3LYP) =  -495.836377301     A.U. after   13 cycles
 SCF Done:  E(RB3LYP) =  -495.836385119     A.U. after   11 cycles
 SCF Done:  E(RB3LYP) =  -495.836382628     A.U. after   11 cycles
 SCF Done:  E(RB3LYP) =  -495.836389965     A.U. after   12 cycles
 SCF Done:  E(RB3LYP) =  -495.836396197     A.U. after   10 cycles
 SCF Done:  E(RB3LYP) =  -495.836403595     A.U. after   10 cycles
 SCF Done:  E(RB3LYP) =  -495.836404650     A.U. after   11 cycles
 SCF Done:  E(RB3LYP) =  -495.836405098     A.U. after    7 cycles
 SCF Done:  E(RB3LYP) =  -495.836405148     A.U. after    7 cycles
 SCF Done:  E(RB3LYP) =  -495.836405151     A.U. after    6 cycles
 Optimization completed.
    -- Stationary point found.

                         Standard orientation:
 ---------------------------------------------------------------------
 Center     Atomic      Atomic             Coordinates (Angstroms)
 Number     Number       Type             X           Y           Z
 ---------------------------------------------------------------------
      1          1           0       -3.937023   -0.904169   -0.446384
      2          6           0       -3.054958   -1.411315   -0.038832
      3          1           0       -2.751365   -2.196933   -0.738842
      4          1           0       -3.346528   -1.868927    0.909280
      5          6           0       -1.967954   -0.376145    0.238784
      6          8           0       -2.013702    0.356906    1.213158
      7          7           0       -0.954483   -0.353987   -0.693445
      8          1           0       -1.093910   -0.936345   -1.506657
      9          6           0        0.086260    0.684874   -0.819864
     10          1           0        0.405663    0.629496   -1.868793
     11          6           0       -0.386672    2.108679   -0.530824
     12          1           0       -0.620444    2.230335    0.524950
     13          1           0        0.408657    2.811132   -0.800097
     14          1           0       -1.274954    2.339477   -1.127703
     15          6           0        1.320293    0.317631    0.045793
     16          8           0        1.601367    0.903937    1.079270
     17          7           0        2.097079   -0.681080   -0.482155
     18          1           0        1.725503   -1.208700   -1.259597
     19          6           0        3.214755   -1.252992    0.250131
     20          1           0        3.533902   -0.516900    0.989036
     21          1           0        2.936732   -2.176572    0.775220
     22          1           0        4.043926   -1.467562   -0.431762
 ---------------------------------------------------------------------

 The electronic state is 1-A.
 Alpha  occ. eigenvalues --  -19.10979 -19.10732 -14.36593 -14.36219 -10.28797
 Alpha  occ. eigenvalues --  -10.28180 -10.24099 -10.21770 -10.19366 -10.16887
 Alpha  occ. eigenvalues --   -1.03172  -1.02546  -0.92732  -0.91502  -0.77785
 Alpha  occ. eigenvalues --   -0.72668  -0.70883  -0.64109  -0.59063  -0.56879
 Alpha  occ. eigenvalues --   -0.52736  -0.50200  -0.46720  -0.46061  -0.44568
 Alpha  occ. eigenvalues --   -0.44360  -0.41757  -0.41005  -0.39987  -0.39310
 Alpha  occ. eigenvalues --   -0.38695  -0.36914  -0.36590  -0.35510  -0.35060
 Alpha  occ. eigenvalues --   -0.27524  -0.25126  -0.24289  -0.23523
 Alpha virt. eigenvalues --    0.01823   0.03082   0.04933   0.09261   0.11636
 Alpha virt. eigenvalues --    0.12215   0.13591   0.15148   0.15767   0.16592
 Alpha virt. eigenvalues --    0.17272   0.17374   0.18280   0.19293   0.19855

 Mulliken atomic charges:
              1
     1  H    0.182882
     2  C   -0.541508
     3  H    0.141106
     4  H    0.190721
     5  C    0.601415
     6  O   -0.488397
     7  N   -0.608099
     8  H    0.316260
     9  C   -0.060632
    10  H    0.138735
    11  C   -0.441059
    12  H    0.218533
    13  H    0.147278
    14  H    0.134986
    15  C    0.635308
    16  O   -0.499137
    17  N   -0.588075
    18  H    0.313084
    19  C   -0.309434
    20  H    0.204702
    21  H    0.158213
    22  H    0.153118
 Sum of Mulliken atomic charges =   0.00000

 Dipole moment (field-independent basis, Debye):
    X=              0.3090    Y=             -3.7264    Z=             -5.4017  Tot=              6.5696
 Quadrupole moment (field-independent basis, Debye-Ang):
   XX=            -56.5166   YY=            -57.2675   ZZ=            -61.3657
   XY=             -1.1574   XZ=              1.8339   YZ=             -1.4018

 Normal termination of Gaussian 09 at Sat Feb 11 03:49:15 2017.
