 Gaussian 09, Revision A.02,
 Gaussian 09:  EM64L-G09RevA.02 11-Jun-2009

 ----------------------------------------------------------------------
 # b3lyp/6-31G* Opt=(ModRedundant, maxcycles=1000, calcfc) geom=nocrowd
 ----------------------------------------------------------------------

 ------------------
 Phi Psi fixed scan
 ------------------
 Symbolic Z-matrix:
 Charge =  0 Multiplicity = 1

 SCF Done:  E(RB3LYP) =  -495.824976034     A.U. after   15 cycles

  Exact polarizability:   0.000   0.000   0.000   0.000   0.000   0.000
 Approx polarizability: 113.949  13.733 109.725  -7.075  -7.539 111.970

 SCF Done:  E(RB3LYP) =  -495.833472534     A.U. after   13 cycles
 SCF Done:  E(RB3LYP) =  -495.842372465     A.U. after   15 cycles
 SCF Done:  E(RB3LYP) =  -495.836762185     A.U. after   13 cycles
 SCF Done:  E(RB3LYP) =  -495.844603663     A.U. after   13 cycles
 SCF Done:  E(RB3LYP) =  -495.845293755     A.U. after   11 cycles
 SCF Done:  E(RB3LYP) =  -495.846188729     A.U. after   12 cycles
 SCF Done:  E(RB3LYP) =  -495.846355118     A.U. after   11 cycles
 SCF Done:  E(RB3LYP) =  -495.846392314     A.U. after   12 cycles
 SCF Done:  E(RB3LYP) =  -495.846687531     A.U. after   12 cycles
 SCF Done:  E(RB3LYP) =  -495.846876139     A.U. after   13 cycles
 SCF Done:  E(RB3LYP) =  -495.847038205     A.U. after   11 cycles
 SCF Done:  E(RB3LYP) =  -495.846294875     A.U. after   12 cycles
 SCF Done:  E(RB3LYP) =  -495.847109605     A.U. after   13 cycles
 SCF Done:  E(RB3LYP) =  -495.847182371     A.U. after   12 cycles
 SCF Done:  E(RB3LYP) =  -495.847194657     A.U. after   10 cycles
 SCF Done:  E(RB3LYP) =  -495.847198916     A.U. after   10 cycles
 SCF Done:  E(RB3LYP) =  -495.847200506     A.U. after    9 cycles
 SCF Done:  E(RB3LYP) =  -495.847201024     A.U. after    9 cycles
 SCF Done:  E(RB3LYP) =  -495.847201115     A.U. after    8 cycles
 Optimization completed.
    -- Stationary point found.

                         Standard orientation:
 ---------------------------------------------------------------------
 Center     Atomic      Atomic             Coordinates (Angstroms)
 Number     Number       Type             X           Y           Z
 ---------------------------------------------------------------------
      1          1           0       -3.568211   -1.658656   -0.134284
      2          6           0       -3.242888   -0.691226   -0.521650
      3          1           0       -3.958723    0.066775   -0.181690
      4          1           0       -3.261588   -0.711286   -1.616332
      5          6           0       -1.868249   -0.371345    0.045428
      6          8           0       -1.514732   -0.764758    1.156625
      7          7           0       -1.041809    0.346522   -0.773054
      8          1           0       -1.426231    0.614252   -1.668724
      9          6           0        0.117453    1.147469   -0.335443
     10          1           0        0.277091    1.881002   -1.130660
     11          6           0       -0.104819    1.915417    0.977013
     12          1           0       -0.275708    1.233804    1.811627
     13          1           0        0.783873    2.520130    1.179222
     14          1           0       -0.969200    2.582289    0.886145
     15          6           0        1.449515    0.366693   -0.293336
     16          8           0        2.504624    0.955587   -0.503488
     17          7           0        1.349448   -0.964034   -0.028042
     18          1           0        0.472957   -1.283537    0.372654
     19          6           0        2.535124   -1.781182    0.167473
     20          1           0        3.344625   -1.353935   -0.426127
     21          1           0        2.853082   -1.804752    1.218607
     22          1           0        2.338613   -2.805096   -0.164774
 ---------------------------------------------------------------------

 The electronic state is 1-A.
 Alpha  occ. eigenvalues --  -19.12447 -19.10232 -14.37272 -14.34822 -10.30141
 Alpha  occ. eigenvalues --  -10.27556 -10.24003 -10.20881 -10.20358 -10.18153
 Alpha  occ. eigenvalues --   -1.04304  -1.02087  -0.93296  -0.90687  -0.78328
 Alpha  occ. eigenvalues --   -0.73629  -0.70135  -0.65018  -0.58782  -0.56546
 Alpha  occ. eigenvalues --   -0.53150  -0.50720  -0.47069  -0.45787  -0.44352
 Alpha  occ. eigenvalues --   -0.43892  -0.42473  -0.41516  -0.40993  -0.40372
 Alpha  occ. eigenvalues --   -0.38571  -0.37987  -0.36894  -0.36076  -0.34391
 Alpha  occ. eigenvalues --   -0.27935  -0.26255  -0.24671  -0.23094
 Alpha virt. eigenvalues --    0.00831   0.03379   0.05603   0.11127   0.11534
 Alpha virt. eigenvalues --    0.13036   0.14001   0.15521   0.16118   0.16339
 Alpha virt. eigenvalues --    0.17098   0.17999   0.18178   0.18679   0.19785

 Mulliken atomic charges:
              1
     1  H    0.190605
     2  C   -0.539903
     3  H    0.185877
     4  H    0.155390
     5  C    0.593102
     6  O   -0.520718
     7  N   -0.590226
     8  H    0.329310
     9  C   -0.052548
    10  H    0.165116
    11  C   -0.459545
    12  H    0.190826
    13  H    0.174348
    14  H    0.144128
    15  C    0.596733
    16  O   -0.525819
    17  N   -0.590484
    18  H    0.356077
    19  C   -0.306390
    20  H    0.192687
    21  H    0.159264
    22  H    0.152167
 Sum of Mulliken atomic charges =   0.00000

 Dipole moment (field-independent basis, Debye):
    X=             -3.4337    Y=             -0.4499    Z=             -1.8764  Tot=              3.9387
 Quadrupole moment (field-independent basis, Debye-Ang):
   XX=            -61.6066   YY=            -57.4675   ZZ=            -60.2295
   XY=             -7.7587   XZ=              8.0480   YZ=              0.9268

 Normal termination of Gaussian 09 at Sat Feb 11 03:34:49 2017.
