 Gaussian 09, Revision A.02,
 Gaussian 09:  EM64L-G09RevA.02 11-Jun-2009

 ----------------------------------------------------------------------
 # b3lyp/6-31G* Opt=(ModRedundant, maxcycles=1000, calcfc) geom=nocrowd
 ----------------------------------------------------------------------

 ------------------
 Phi Psi fixed scan
 ------------------
 Symbolic Z-matrix:
 Charge =  0 Multiplicity = 1

 SCF Done:  E(RB3LYP) =  -495.822297889     A.U. after   15 cycles

  Exact polarizability:   0.000   0.000   0.000   0.000   0.000   0.000
 Approx polarizability: 117.835 -10.342 102.602 -11.372   2.567 114.221

 SCF Done:  E(RB3LYP) =  -495.829101702     A.U. after   14 cycles
 SCF Done:  E(RB3LYP) =  -495.835712072     A.U. after   15 cycles
 SCF Done:  E(RB3LYP) =  -495.836807924     A.U. after   13 cycles
 SCF Done:  E(RB3LYP) =  -495.838489080     A.U. after   12 cycles
 SCF Done:  E(RB3LYP) =  -495.839154555     A.U. after   13 cycles
 SCF Done:  E(RB3LYP) =  -495.837788656     A.U. after   15 cycles
 SCF Done:  E(RB3LYP) =  -495.839317903     A.U. after   13 cycles
 SCF Done:  E(RB3LYP) =  -495.839613408     A.U. after   12 cycles
 SCF Done:  E(RB3LYP) =  -495.834226973     A.U. after   16 cycles
 SCF Done:  E(RB3LYP) =  -495.839684983     A.U. after   15 cycles
 SCF Done:  E(RB3LYP) =  -495.839730570     A.U. after   11 cycles
 SCF Done:  E(RB3LYP) =  -495.839815240     A.U. after   12 cycles
 SCF Done:  E(RB3LYP) =  -495.839842853     A.U. after   10 cycles
 SCF Done:  E(RB3LYP) =  -495.839849408     A.U. after   10 cycles
 SCF Done:  E(RB3LYP) =  -495.839850493     A.U. after    9 cycles
 SCF Done:  E(RB3LYP) =  -495.839850686     A.U. after    7 cycles
 SCF Done:  E(RB3LYP) =  -495.839850687     A.U. after    6 cycles
 Optimization completed.
    -- Stationary point found.

                         Standard orientation:
 ---------------------------------------------------------------------
 Center     Atomic      Atomic             Coordinates (Angstroms)
 Number     Number       Type             X           Y           Z
 ---------------------------------------------------------------------
      1          1           0        4.090611   -1.009071   -0.182863
      2          6           0        3.119860   -1.243765    0.256845
      3          1           0        3.237315   -1.414597    1.332655
      4          1           0        2.748251   -2.169468   -0.198911
      5          6           0        2.151869   -0.109563   -0.061210
      6          8           0        2.317093    0.630403   -1.018273
      7          7           0        1.111697   -0.003966    0.839827
      8          1           0        1.022176   -0.792308    1.467999
      9          6           0       -0.139612    0.715228    0.636213
     10          1           0       -0.497494    0.983882    1.641349
     11          6           0       -0.016535    2.018545   -0.169814
     12          1           0        0.242710    1.822544   -1.208788
     13          1           0       -0.971447    2.555142   -0.125614
     14          1           0        0.760337    2.657111    0.258641
     15          6           0       -1.191597   -0.233819    0.008214
     16          8           0       -0.877010   -1.177053   -0.704013
     17          7           0       -2.483839    0.057709    0.347201
     18          1           0       -2.661423    0.881697    0.904393
     19          6           0       -3.620292   -0.647017   -0.221294
     20          1           0       -3.230520   -1.520255   -0.745993
     21          1           0       -4.307138   -0.974399    0.566918
     22          1           0       -4.171197   -0.020931   -0.934419
 ---------------------------------------------------------------------

 The electronic state is 1-A.
 Alpha  occ. eigenvalues --  -19.11415 -19.10101 -14.36787 -14.35376 -10.28574
 Alpha  occ. eigenvalues --  -10.28052 -10.24101 -10.22212 -10.18250 -10.18119
 Alpha  occ. eigenvalues --   -1.03489  -1.01930  -0.92445  -0.91704  -0.77939
 Alpha  occ. eigenvalues --   -0.72329  -0.70798  -0.64608  -0.59090  -0.55991
 Alpha  occ. eigenvalues --   -0.53041  -0.50061  -0.46913  -0.45600  -0.44794
 Alpha  occ. eigenvalues --   -0.43553  -0.42137  -0.40672  -0.40267  -0.39353
 Alpha  occ. eigenvalues --   -0.38812  -0.37613  -0.37098  -0.35544  -0.34673
 Alpha  occ. eigenvalues --   -0.26429  -0.25612  -0.24318  -0.23320
 Alpha virt. eigenvalues --    0.02055   0.04002   0.05820   0.08521   0.11689
 Alpha virt. eigenvalues --    0.13378   0.14861   0.15171   0.15623   0.15904
 Alpha virt. eigenvalues --    0.16545   0.17190   0.18615   0.18898   0.19558

 Mulliken atomic charges:
              1
     1  H    0.183762
     2  C   -0.549798
     3  H    0.149769
     4  H    0.188235
     5  C    0.601004
     6  O   -0.499335
     7  N   -0.576250
     8  H    0.321932
     9  C   -0.050246
    10  H    0.134646
    11  C   -0.435246
    12  H    0.205357
    13  H    0.124413
    14  H    0.168433
    15  C    0.592500
    16  O   -0.507574
    17  N   -0.588662
    18  H    0.324904
    19  C   -0.310349
    20  H    0.205935
    21  H    0.156181
    22  H    0.160389
 Sum of Mulliken atomic charges =   0.00000

 Dipole moment (field-independent basis, Debye):
    X=             -3.2260    Y=              0.3655    Z=              3.9782  Tot=              5.1348
 Quadrupole moment (field-independent basis, Debye-Ang):
   XX=            -52.4073   YY=            -59.6104   ZZ=            -60.9998
   XY=             -7.3636   XZ=              2.7995   YZ=             -0.4654

 Normal termination of Gaussian 09 at Sat Feb 11 03:08:58 2017.
