 Gaussian 09, Revision A.02,
 Gaussian 09:  EM64L-G09RevA.02 11-Jun-2009

 ----------------------------------------------------------------------
 # b3lyp/6-31G* Opt=(ModRedundant, maxcycles=1000, calcfc) geom=nocrowd
 ----------------------------------------------------------------------

 ------------------
 Phi Psi fixed scan
 ------------------
 Symbolic Z-matrix:
 Charge =  0 Multiplicity = 1

 SCF Done:  E(RB3LYP) =  -495.818773084     A.U. after   15 cycles

  Exact polarizability:   0.000   0.000   0.000   0.000   0.000   0.000
 Approx polarizability: 111.561  12.364 118.754   2.977  12.409 104.200

 SCF Done:  E(RB3LYP) =  -495.827385084     A.U. after   13 cycles
 SCF Done:  E(RB3LYP) =  -495.838414351     A.U. after   14 cycles
 SCF Done:  E(RB3LYP) =  -495.838742960     A.U. after   15 cycles
 SCF Done:  E(RB3LYP) =  -495.840416165     A.U. after   13 cycles
 SCF Done:  E(RB3LYP) =  -495.841345696     A.U. after   12 cycles
 SCF Done:  E(RB3LYP) =  -495.835903644     A.U. after   14 cycles
 SCF Done:  E(RB3LYP) =  -495.841975571     A.U. after   13 cycles
 SCF Done:  E(RB3LYP) =  -495.842304875     A.U. after   13 cycles
 SCF Done:  E(RB3LYP) =  -495.840545468     A.U. after   14 cycles
 SCF Done:  E(RB3LYP) =  -495.842739734     A.U. after   11 cycles
 SCF Done:  E(RB3LYP) =  -495.842749073     A.U. after   10 cycles
 SCF Done:  E(RB3LYP) =  -495.842758689     A.U. after   10 cycles
 SCF Done:  E(RB3LYP) =  -495.842768411     A.U. after   11 cycles
 SCF Done:  E(RB3LYP) =  -495.842772342     A.U. after   10 cycles
 SCF Done:  E(RB3LYP) =  -495.842774451     A.U. after    9 cycles
 SCF Done:  E(RB3LYP) =  -495.842775349     A.U. after    9 cycles
 SCF Done:  E(RB3LYP) =  -495.842775433     A.U. after    8 cycles
 SCF Done:  E(RB3LYP) =  -495.842775590     A.U. after    7 cycles
 SCF Done:  E(RB3LYP) =  -495.842775664     A.U. after    7 cycles
 Optimization completed.
    -- Stationary point found.

                         Standard orientation:
 ---------------------------------------------------------------------
 Center     Atomic      Atomic             Coordinates (Angstroms)
 Number     Number       Type             X           Y           Z
 ---------------------------------------------------------------------
      1          1           0       -4.020343   -0.741421    0.765376
      2          6           0       -3.143865   -1.122575    0.237770
      3          1           0       -3.422248   -1.400316   -0.783815
      4          1           0       -2.799848   -2.024633    0.758124
      5          6           0       -2.046211   -0.066393    0.289171
      6          8           0       -1.952982    0.722526    1.220655
      7          7           0       -1.200787   -0.086298   -0.796129
      8          1           0       -1.198462   -0.949600   -1.325057
      9          6           0        0.082311    0.614786   -0.872765
     10          1           0        0.297782    0.691828   -1.948512
     11          6           0        0.059502    2.044442   -0.321867
     12          1           0       -0.020295    2.070884    0.764735
     13          1           0        0.958757    2.579017   -0.651720
     14          1           0       -0.804452    2.579721   -0.724852
     15          6           0        1.190845   -0.334211   -0.347427
     16          8           0        1.100616   -1.541041   -0.552743
     17          7           0        2.268588    0.246485    0.246503
     18          1           0        2.213699    1.223226    0.493620
     19          6           0        3.382016   -0.532567    0.763605
     20          1           0        3.321626   -1.528032    0.322404
     21          1           0        4.333561   -0.066547    0.487110
     22          1           0        3.336957   -0.628213    1.855744
 ---------------------------------------------------------------------

 The electronic state is 1-A.
 Alpha  occ. eigenvalues --  -19.11297 -19.10513 -14.36733 -14.35280 -10.28691
 Alpha  occ. eigenvalues --  -10.28302 -10.24039 -10.22085 -10.18638 -10.18485
 Alpha  occ. eigenvalues --   -1.03501  -1.02217  -0.92412  -0.91657  -0.78038
 Alpha  occ. eigenvalues --   -0.72537  -0.70652  -0.65314  -0.59185  -0.55659
 Alpha  occ. eigenvalues --   -0.53158  -0.50530  -0.46466  -0.45758  -0.44617
 Alpha  occ. eigenvalues --   -0.43874  -0.42545  -0.41304  -0.39812  -0.39328
 Alpha  occ. eigenvalues --   -0.39191  -0.38322  -0.37443  -0.35435  -0.34854
 Alpha  occ. eigenvalues --   -0.26294  -0.25808  -0.24793  -0.23569
 Alpha virt. eigenvalues --    0.02351   0.03152   0.07180   0.09356   0.11429
 Alpha virt. eigenvalues --    0.12842   0.14554   0.15289   0.15545   0.16069
 Alpha virt. eigenvalues --    0.16706   0.17072   0.18169   0.18988   0.19177

 Mulliken atomic charges:
              1
     1  H    0.183598
     2  C   -0.543063
     3  H    0.154751
     4  H    0.184390
     5  C    0.589081
     6  O   -0.506768
     7  N   -0.573076
     8  H    0.334813
     9  C   -0.052491
    10  H    0.168021
    11  C   -0.478227
    12  H    0.196089
    13  H    0.132895
    14  H    0.172989
    15  C    0.616073
    16  O   -0.532705
    17  N   -0.595488
    18  H    0.336186
    19  C   -0.311051
    20  H    0.203340
    21  H    0.156387
    22  H    0.164256
 Sum of Mulliken atomic charges =   0.00000

 Dipole moment (field-independent basis, Debye):
    X=              1.8784    Y=              0.9780    Z=             -1.2939  Tot=              2.4817
 Quadrupole moment (field-independent basis, Debye-Ang):
   XX=            -52.4879   YY=            -61.3659   ZZ=            -60.9966
   XY=              8.5420   XZ=              6.8675   YZ=             -2.6892

 Normal termination of Gaussian 09 at Sat Feb 11 03:23:27 2017.
