 Gaussian 09, Revision A.02,
 Gaussian 09:  EM64L-G09RevA.02 11-Jun-2009

 ----------------------------------------------------------------------
 # b3lyp/6-31G* Opt=(ModRedundant, maxcycles=1000, calcfc) geom=nocrowd
 ----------------------------------------------------------------------

 ------------------
 Phi Psi fixed scan
 ------------------
 Symbolic Z-matrix:
 Charge =  0 Multiplicity = 1

 SCF Done:  E(RB3LYP) =  -495.819124770     A.U. after   16 cycles

  Exact polarizability:   0.000   0.000   0.000   0.000   0.000   0.000
 Approx polarizability: 113.490  -5.634 100.212 -15.053  16.022 122.695

 SCF Done:  E(RB3LYP) =  -495.826300962     A.U. after   14 cycles
 SCF Done:  E(RB3LYP) =  -495.832591304     A.U. after   13 cycles
 SCF Done:  E(RB3LYP) =  -495.833475259     A.U. after   13 cycles
 SCF Done:  E(RB3LYP) =  -495.832206428     A.U. after   14 cycles
 SCF Done:  E(RB3LYP) =  -495.835471636     A.U. after   13 cycles
 SCF Done:  E(RB3LYP) =  -495.835765379     A.U. after   11 cycles
 SCF Done:  E(RB3LYP) =  -495.836229087     A.U. after   12 cycles
 SCF Done:  E(RB3LYP) =  -495.836659191     A.U. after   13 cycles
 SCF Done:  E(RB3LYP) =  -495.836719843     A.U. after   12 cycles
 SCF Done:  E(RB3LYP) =  -495.837164154     A.U. after   12 cycles
 SCF Done:  E(RB3LYP) =  -495.837235287     A.U. after   12 cycles
 SCF Done:  E(RB3LYP) =  -495.837255990     A.U. after   10 cycles
 SCF Done:  E(RB3LYP) =  -495.837259825     A.U. after   10 cycles
 SCF Done:  E(RB3LYP) =  -495.837260751     A.U. after    9 cycles
 SCF Done:  E(RB3LYP) =  -495.837261120     A.U. after    9 cycles
 SCF Done:  E(RB3LYP) =  -495.837261356     A.U. after    8 cycles
 SCF Done:  E(RB3LYP) =  -495.837261447     A.U. after    7 cycles
 SCF Done:  E(RB3LYP) =  -495.837261504     A.U. after    7 cycles
 SCF Done:  E(RB3LYP) =  -495.837261540     A.U. after    7 cycles
 Optimization completed.
    -- Stationary point found.

                         Standard orientation:
 ---------------------------------------------------------------------
 Center     Atomic      Atomic             Coordinates (Angstroms)
 Number     Number       Type             X           Y           Z
 ---------------------------------------------------------------------
      1          1           0       -3.936522   -1.373501    0.087416
      2          6           0       -2.887408   -1.588565   -0.124449
      3          1           0       -2.802113   -2.029967   -1.123435
      4          1           0       -2.539142   -2.325300    0.609311
      5          6           0       -2.085932   -0.299956    0.042221
      6          8           0       -2.417221    0.560868    0.840463
      7          7           0       -0.992665   -0.216956   -0.795272
      8          1           0       -0.786184   -1.056448   -1.320399
      9          6           0        0.126656    0.729357   -0.714945
     10          1           0        0.501336    0.821935   -1.744800
     11          6           0       -0.250866    2.126994   -0.219659
     12          1           0       -0.526830    2.101827    0.832635
     13          1           0        0.611776    2.790184   -0.354481
     14          1           0       -1.091628    2.524522   -0.794128
     15          6           0        1.242754    0.124632    0.170040
     16          8           0        1.127504    0.026433    1.383019
     17          7           0        2.330283   -0.339504   -0.521917
     18          1           0        2.393226   -0.144827   -1.510841
     19          6           0        3.488047   -0.913560    0.142694
     20          1           0        3.221055   -1.055314    1.190846
     21          1           0        3.751062   -1.880949   -0.299508
     22          1           0        4.358858   -0.248768    0.084449
 ---------------------------------------------------------------------

 The electronic state is 1-A.
 Alpha  occ. eigenvalues --  -19.11171 -19.10206 -14.37000 -14.36005 -10.28515
 Alpha  occ. eigenvalues --  -10.28333 -10.24142 -10.22264 -10.18708 -10.17234
 Alpha  occ. eigenvalues --   -1.03348  -1.02110  -0.92606  -0.91834  -0.77827
 Alpha  occ. eigenvalues --   -0.72399  -0.71132  -0.64280  -0.59132  -0.56488
 Alpha  occ. eigenvalues --   -0.53041  -0.50127  -0.47166  -0.46049  -0.44995
 Alpha  occ. eigenvalues --   -0.43743  -0.41872  -0.40516  -0.39921  -0.39348
 Alpha  occ. eigenvalues --   -0.38788  -0.37235  -0.36212  -0.35707  -0.35003
 Alpha  occ. eigenvalues --   -0.27315  -0.25738  -0.23910  -0.23197
 Alpha virt. eigenvalues --    0.01439   0.04468   0.05200   0.08665   0.11666
 Alpha virt. eigenvalues --    0.13363   0.13978   0.15162   0.15471   0.16106
 Alpha virt. eigenvalues --    0.16969   0.17446   0.18304   0.19410   0.19792

 Mulliken atomic charges:
              1
     1  H    0.186910
     2  C   -0.545603
     3  H    0.144710
     4  H    0.184706
     5  C    0.601777
     6  O   -0.490856
     7  N   -0.588685
     8  H    0.317252
     9  C   -0.037444
    10  H    0.121436
    11  C   -0.441208
    12  H    0.215546
    13  H    0.134047
    14  H    0.157176
    15  C    0.606009
    16  O   -0.504893
    17  N   -0.594816
    18  H    0.321867
    19  C   -0.311989
    20  H    0.208153
    21  H    0.155990
    22  H    0.159918
 Sum of Mulliken atomic charges =   0.00000

 Dipole moment (field-independent basis, Debye):
    X=              3.0135    Y=             -2.2313    Z=             -5.0730  Tot=              6.3084
 Quadrupole moment (field-independent basis, Debye-Ang):
   XX=            -55.7320   YY=            -56.7396   ZZ=            -61.9942
   XY=              3.8410   XZ=             -0.7687   YZ=             -0.5352

 Normal termination of Gaussian 09 at Sat Feb 11 03:08:54 2017.
