 Gaussian 09, Revision A.02,
 Gaussian 09:  EM64L-G09RevA.02 11-Jun-2009

 ----------------------------------------------------------------------
 # b3lyp/6-31G* Opt=(ModRedundant, maxcycles=1000, calcfc) geom=nocrowd
 ----------------------------------------------------------------------

 ------------------
 Phi Psi fixed scan
 ------------------
 Symbolic Z-matrix:
 Charge =  0 Multiplicity = 1

 SCF Done:  E(RB3LYP) =  -495.824211784     A.U. after   16 cycles

  Exact polarizability:   0.000   0.000   0.000   0.000   0.000   0.000
 Approx polarizability: 111.067  12.628 117.082  -1.348   4.724 108.120

 SCF Done:  E(RB3LYP) =  -495.832464657     A.U. after   13 cycles
 SCF Done:  E(RB3LYP) =  -495.842106624     A.U. after   13 cycles
 SCF Done:  E(RB3LYP) =  -495.841232224     A.U. after   16 cycles
 SCF Done:  E(RB3LYP) =  -495.842723397     A.U. after   15 cycles
 SCF Done:  E(RB3LYP) =  -495.843379619     A.U. after   12 cycles
 SCF Done:  E(RB3LYP) =  -495.844204676     A.U. after   12 cycles
 SCF Done:  E(RB3LYP) =  -495.838360626     A.U. after   14 cycles
 SCF Done:  E(RB3LYP) =  -495.844367055     A.U. after   13 cycles
 SCF Done:  E(RB3LYP) =  -495.844578828     A.U. after   12 cycles
 SCF Done:  E(RB3LYP) =  -495.843203392     A.U. after   14 cycles
 SCF Done:  E(RB3LYP) =  -495.844731948     A.U. after   13 cycles
 SCF Done:  E(RB3LYP) =  -495.844766100     A.U. after   10 cycles
 SCF Done:  E(RB3LYP) =  -495.844772971     A.U. after   10 cycles
 SCF Done:  E(RB3LYP) =  -495.844773980     A.U. after    8 cycles
 SCF Done:  E(RB3LYP) =  -495.844775544     A.U. after    8 cycles
 SCF Done:  E(RB3LYP) =  -495.844778347     A.U. after   10 cycles
 SCF Done:  E(RB3LYP) =  -495.844780412     A.U. after   10 cycles
 SCF Done:  E(RB3LYP) =  -495.844781429     A.U. after    9 cycles
 SCF Done:  E(RB3LYP) =  -495.844781556     A.U. after    7 cycles
 Optimization completed.
    -- Stationary point found.

                         Standard orientation:
 ---------------------------------------------------------------------
 Center     Atomic      Atomic             Coordinates (Angstroms)
 Number     Number       Type             X           Y           Z
 ---------------------------------------------------------------------
      1          1           0       -3.516292   -1.728588    0.299737
      2          6           0       -3.180327   -0.938223   -0.374349
      3          1           0       -3.950900   -0.158095   -0.387951
      4          1           0       -3.084389   -1.340585   -1.388559
      5          6           0       -1.882156   -0.350998    0.166829
      6          8           0       -1.636270   -0.307225    1.363663
      7          7           0       -1.009584    0.106309   -0.797098
      8          1           0       -1.348199    0.078098   -1.749160
      9          6           0        0.115452    1.027222   -0.556222
     10          1           0        0.312256    1.490618   -1.530540
     11          6           0       -0.184098    2.157036    0.438694
     12          1           0       -0.408443    1.758490    1.428557
     13          1           0        0.695349    2.801580    0.499080
     14          1           0       -1.039442    2.747710    0.093588
     15          6           0        1.452392    0.333307   -0.206158
     16          8           0        2.457395    1.015397   -0.035816
     17          7           0        1.435480   -1.023900   -0.161838
     18          1           0        0.535314   -1.476779   -0.218825
     19          6           0        2.600814   -1.801753    0.216135
     20          1           0        3.459445   -1.128717    0.214896
     21          1           0        2.488536   -2.232323    1.219008
     22          1           0        2.774035   -2.613189   -0.499628
 ---------------------------------------------------------------------

 The electronic state is 1-A.
 Alpha  occ. eigenvalues --  -19.11970 -19.10224 -14.37201 -14.35557 -10.29796
 Alpha  occ. eigenvalues --  -10.27848 -10.24046 -10.21291 -10.20172 -10.17260
 Alpha  occ. eigenvalues --   -1.03980  -1.02265  -0.93299  -0.91081  -0.78023
 Alpha  occ. eigenvalues --   -0.73265  -0.70660  -0.64538  -0.58798  -0.57067
 Alpha  occ. eigenvalues --   -0.53134  -0.50627  -0.47234  -0.45497  -0.44966
 Alpha  occ. eigenvalues --   -0.44046  -0.42025  -0.41416  -0.40632  -0.39896
 Alpha  occ. eigenvalues --   -0.38495  -0.38128  -0.36496  -0.35803  -0.34363
 Alpha  occ. eigenvalues --   -0.28021  -0.25515  -0.24684  -0.23501
 Alpha virt. eigenvalues --    0.01470   0.03234   0.05780   0.10194   0.11432
 Alpha virt. eigenvalues --    0.13314   0.13824   0.14097   0.16116   0.16407
 Alpha virt. eigenvalues --    0.17179   0.17823   0.18244   0.18796   0.19184

 Mulliken atomic charges:
              1
     1  H    0.190068
     2  C   -0.543920
     3  H    0.185875
     4  H    0.150265
     5  C    0.580375
     6  O   -0.492556
     7  N   -0.626925
     8  H    0.327728
     9  C   -0.036786
    10  H    0.164388
    11  C   -0.456221
    12  H    0.195830
    13  H    0.180168
    14  H    0.135659
    15  C    0.615213
    16  O   -0.528899
    17  N   -0.586248
    18  H    0.340565
    19  C   -0.311105
    20  H    0.201550
    21  H    0.162936
    22  H    0.152041
 Sum of Mulliken atomic charges =   0.00000

 Dipole moment (field-independent basis, Debye):
    X=             -2.8635    Y=             -2.0604    Z=             -3.5215  Tot=              4.9845
 Quadrupole moment (field-independent basis, Debye-Ang):
   XX=            -62.0724   YY=            -56.6809   ZZ=            -60.5574
   XY=             -6.1048   XZ=              6.2086   YZ=             -0.1958

 Normal termination of Gaussian 09 at Sat Feb 11 03:06:28 2017.
