 Gaussian 09, Revision A.02,
 Gaussian 09:  EM64L-G09RevA.02 11-Jun-2009

 ----------------------------------------------------------------------
 # b3lyp/6-31G* Opt=(ModRedundant, maxcycles=1000, calcfc) geom=nocrowd
 ----------------------------------------------------------------------

 ------------------
 Phi Psi fixed scan
 ------------------
 Symbolic Z-matrix:
 Charge =  0 Multiplicity = 1

 SCF Done:  E(RB3LYP) =  -495.818773755     A.U. after   15 cycles

  Exact polarizability:   0.000   0.000   0.000   0.000   0.000   0.000
 Approx polarizability: 104.008  -1.771 121.308  -1.861 -21.376 110.157

 SCF Done:  E(RB3LYP) =  -495.826698769     A.U. after   14 cycles
 SCF Done:  E(RB3LYP) =  -495.834061846     A.U. after   16 cycles
 SCF Done:  E(RB3LYP) =  -495.832437784     A.U. after   14 cycles
 SCF Done:  E(RB3LYP) =  -495.836956719     A.U. after   13 cycles
 SCF Done:  E(RB3LYP) =  -495.837819715     A.U. after   11 cycles
 SCF Done:  E(RB3LYP) =  -495.839147648     A.U. after   12 cycles
 SCF Done:  E(RB3LYP) =  -495.839841003     A.U. after   13 cycles
 SCF Done:  E(RB3LYP) =  -495.839814268     A.U. after   11 cycles
 SCF Done:  E(RB3LYP) =  -495.839847693     A.U. after   11 cycles
 SCF Done:  E(RB3LYP) =  -495.840267297     A.U. after   12 cycles
 SCF Done:  E(RB3LYP) =  -495.840506536     A.U. after   12 cycles
 SCF Done:  E(RB3LYP) =  -495.840684114     A.U. after   12 cycles
 SCF Done:  E(RB3LYP) =  -495.840893285     A.U. after   12 cycles
 SCF Done:  E(RB3LYP) =  -495.840985034     A.U. after   12 cycles
 SCF Done:  E(RB3LYP) =  -495.840995683     A.U. after   10 cycles
 SCF Done:  E(RB3LYP) =  -495.840999079     A.U. after    9 cycles
 SCF Done:  E(RB3LYP) =  -495.840999691     A.U. after    9 cycles
 SCF Done:  E(RB3LYP) =  -495.840999938     A.U. after    7 cycles
 SCF Done:  E(RB3LYP) =  -495.841000069     A.U. after    8 cycles
 Optimization completed.
    -- Stationary point found.

                         Standard orientation:
 ---------------------------------------------------------------------
 Center     Atomic      Atomic             Coordinates (Angstroms)
 Number     Number       Type             X           Y           Z
 ---------------------------------------------------------------------
      1          1           0       -3.504829   -1.713504    0.759285
      2          6           0       -3.124324   -1.202929   -0.127252
      3          1           0       -3.905806   -0.522249   -0.486610
      4          1           0       -2.922929   -1.938437   -0.913450
      5          6           0       -1.890819   -0.398574    0.265360
      6          8           0       -1.730944    0.046550    1.389751
      7          7           0       -0.959290   -0.242254   -0.746800
      8          1           0       -1.304068   -0.487204   -1.667007
      9          6           0        0.068874    0.822370   -0.747299
     10          1           0        0.345442    0.932060   -1.804035
     11          6           0       -0.399211    2.181899   -0.228398
     12          1           0       -0.660949    2.129099    0.827703
     13          1           0        0.408756    2.906885   -0.350395
     14          1           0       -1.270769    2.520782   -0.799344
     15          6           0        1.369597    0.354009   -0.047884
     16          8           0        2.034286    1.105500    0.650611
     17          7           0        1.779918   -0.900204   -0.410230
     18          1           0        1.059835   -1.512149   -0.771577
     19          6           0        2.946232   -1.514631    0.203211
     20          1           0        3.654669   -0.722080    0.448131
     21          1           0        2.697600   -2.052684    1.127920
     22          1           0        3.409831   -2.212565   -0.500727
 ---------------------------------------------------------------------

 The electronic state is 1-A.
 Alpha  occ. eigenvalues --  -19.11905 -19.10780 -14.37009 -14.35415 -10.29551
 Alpha  occ. eigenvalues --  -10.27907 -10.23994 -10.21338 -10.19983 -10.16969
 Alpha  occ. eigenvalues --   -1.03870  -1.02587  -0.93150  -0.91019  -0.77871
 Alpha  occ. eigenvalues --   -0.73094  -0.70623  -0.64084  -0.58878  -0.56399
 Alpha  occ. eigenvalues --   -0.52592  -0.50412  -0.47121  -0.45474  -0.45158
 Alpha  occ. eigenvalues --   -0.44105  -0.41744  -0.41557  -0.40424  -0.39470
 Alpha  occ. eigenvalues --   -0.38556  -0.37497  -0.36492  -0.35490  -0.35107
 Alpha  occ. eigenvalues --   -0.28134  -0.25325  -0.24797  -0.23731
 Alpha virt. eigenvalues --    0.01440   0.02152   0.06130   0.10255   0.11286
 Alpha virt. eigenvalues --    0.12833   0.13547   0.14457   0.15825   0.16354
 Alpha virt. eigenvalues --    0.17000   0.17844   0.17991   0.18932   0.19514

 Mulliken atomic charges:
              1
     1  H    0.192558
     2  C   -0.547369
     3  H    0.182090
     4  H    0.151914
     5  C    0.590728
     6  O   -0.480915
     7  N   -0.615640
     8  H    0.321762
     9  C   -0.064736
    10  H    0.158860
    11  C   -0.444206
    12  H    0.204580
    13  H    0.167019
    14  H    0.127101
    15  C    0.625671
    16  O   -0.511579
    17  N   -0.585583
    18  H    0.326700
    19  C   -0.306715
    20  H    0.197032
    21  H    0.160759
    22  H    0.149966
 Sum of Mulliken atomic charges =   0.00000

 Dipole moment (field-independent basis, Debye):
    X=             -1.7721    Y=             -3.1199    Z=             -4.7144  Tot=              5.9245
 Quadrupole moment (field-independent basis, Debye-Ang):
   XX=            -58.1327   YY=            -57.3654   ZZ=            -61.4559
   XY=             -3.6841   XZ=              3.4363   YZ=             -1.6744

 Normal termination of Gaussian 09 at Sat Feb 11 03:24:29 2017.
