 Gaussian 09, Revision A.02,
 Gaussian 09:  EM64L-G09RevA.02 11-Jun-2009

 ----------------------------------------------------------------------
 # b3lyp/6-31G* Opt=(ModRedundant, maxcycles=1000, calcfc) geom=nocrowd
 ----------------------------------------------------------------------

 ------------------
 Phi Psi fixed scan
 ------------------
 Symbolic Z-matrix:
 Charge =  0 Multiplicity = 1

 SCF Done:  E(RB3LYP) =  -495.818281554     A.U. after   16 cycles

  Exact polarizability:   0.000   0.000   0.000   0.000   0.000   0.000
 Approx polarizability: 109.886  -7.477 107.565 -11.782  21.840 118.652

 SCF Done:  E(RB3LYP) =  -495.825459391     A.U. after   14 cycles
 SCF Done:  E(RB3LYP) =  -495.831868524     A.U. after   13 cycles
 SCF Done:  E(RB3LYP) =  -495.832513216     A.U. after   14 cycles
 SCF Done:  E(RB3LYP) =  -495.829541467     A.U. after   14 cycles
 SCF Done:  E(RB3LYP) =  -495.834847216     A.U. after   13 cycles
 SCF Done:  E(RB3LYP) =  -495.835186796     A.U. after   11 cycles
 SCF Done:  E(RB3LYP) =  -495.835720579     A.U. after   12 cycles
 SCF Done:  E(RB3LYP) =  -495.836202610     A.U. after   13 cycles
 SCF Done:  E(RB3LYP) =  -495.836258845     A.U. after   12 cycles
 SCF Done:  E(RB3LYP) =  -495.836695800     A.U. after   12 cycles
 SCF Done:  E(RB3LYP) =  -495.836718362     A.U. after   11 cycles
 SCF Done:  E(RB3LYP) =  -495.836737610     A.U. after   11 cycles
 SCF Done:  E(RB3LYP) =  -495.836756401     A.U. after   12 cycles
 SCF Done:  E(RB3LYP) =  -495.836767727     A.U. after   12 cycles
 SCF Done:  E(RB3LYP) =  -495.836772182     A.U. after   11 cycles
 SCF Done:  E(RB3LYP) =  -495.836772620     A.U. after    9 cycles
 SCF Done:  E(RB3LYP) =  -495.836772671     A.U. after    8 cycles
 SCF Done:  E(RB3LYP) =  -495.836772661     A.U. after    7 cycles
 SCF Done:  E(RB3LYP) =  -495.836772669     A.U. after    6 cycles
 Optimization completed.
    -- Stationary point found.

                         Standard orientation:
 ---------------------------------------------------------------------
 Center     Atomic      Atomic             Coordinates (Angstroms)
 Number     Number       Type             X           Y           Z
 ---------------------------------------------------------------------
      1          1           0       -3.875665   -1.448962    0.129685
      2          6           0       -2.815041   -1.662007   -0.019238
      3          1           0       -2.680723   -2.177040   -0.976542
      4          1           0       -2.493576   -2.334646    0.784641
      5          6           0       -2.039792   -0.350952    0.088561
      6          8           0       -2.377339    0.528135    0.864316
      7          7           0       -0.960886   -0.271900   -0.765889
      8          1           0       -0.737399   -1.121497   -1.266207
      9          6           0        0.111417    0.734886   -0.766066
     10          1           0        0.476432    0.763304   -1.803206
     11          6           0       -0.333966    2.143586   -0.377305
     12          1           0       -0.588915    2.188704    0.679342
     13          1           0        0.488599    2.838855   -0.580484
     14          1           0       -1.203893    2.447297   -0.965515
     15          6           0        1.264651    0.247833    0.145834
     16          8           0        1.282462    0.455454    1.349785
     17          7           0        2.216884   -0.497392   -0.501392
     18          1           0        2.206308   -0.521072   -1.511137
     19          6           0        3.375606   -1.042921    0.185562
     20          1           0        3.196291   -0.937247    1.256303
     21          1           0        3.508526   -2.102679   -0.058506
     22          1           0        4.293795   -0.501239   -0.074305
 ---------------------------------------------------------------------

 The electronic state is 1-A.
 Alpha  occ. eigenvalues --  -19.11288 -19.10313 -14.36948 -14.36223 -10.28559
 Alpha  occ. eigenvalues --  -10.28478 -10.24157 -10.22258 -10.18894 -10.17002
 Alpha  occ. eigenvalues --   -1.03404  -1.02250  -0.92751  -0.91810  -0.77822
 Alpha  occ. eigenvalues --   -0.72444  -0.71207  -0.64232  -0.59141  -0.56608
 Alpha  occ. eigenvalues --   -0.53120  -0.50202  -0.47178  -0.46180  -0.44986
 Alpha  occ. eigenvalues --   -0.43894  -0.41964  -0.40603  -0.39824  -0.39387
 Alpha  occ. eigenvalues --   -0.38594  -0.37133  -0.36349  -0.35719  -0.35086
 Alpha  occ. eigenvalues --   -0.27543  -0.25819  -0.23960  -0.23238
 Alpha virt. eigenvalues --    0.01380   0.04233   0.04959   0.08807   0.11685
 Alpha virt. eigenvalues --    0.12851   0.13841   0.15253   0.15412   0.16040
 Alpha virt. eigenvalues --    0.17178   0.17463   0.18444   0.19324   0.19647

 Mulliken atomic charges:
              1
     1  H    0.187786
     2  C   -0.543440
     3  H    0.142903
     4  H    0.184420
     5  C    0.600260
     6  O   -0.490316
     7  N   -0.592264
     8  H    0.315638
     9  C   -0.041378
    10  H    0.124895
    11  C   -0.439537
    12  H    0.216628
    13  H    0.136145
    14  H    0.152871
    15  C    0.613775
    16  O   -0.501572
    17  N   -0.597313
    18  H    0.319026
    19  C   -0.311389
    20  H    0.207994
    21  H    0.155371
    22  H    0.159496
 Sum of Mulliken atomic charges =   0.00000

 Dipole moment (field-independent basis, Debye):
    X=              2.6163    Y=             -3.1187    Z=             -5.0242  Tot=              6.4664
 Quadrupole moment (field-independent basis, Debye-Ang):
   XX=            -57.1181   YY=            -56.6589   ZZ=            -61.7256
   XY=              2.2084   XZ=             -1.0727   YZ=             -1.4251

 Normal termination of Gaussian 09 at Sat Feb 11 03:27:48 2017.
