 Gaussian 09, Revision A.02,
 Gaussian 09:  EM64L-G09RevA.02 11-Jun-2009

 ----------------------------------------------------------------------
 # b3lyp/6-31G* Opt=(ModRedundant, maxcycles=1000, calcfc) geom=nocrowd
 ----------------------------------------------------------------------

 ------------------
 Phi Psi fixed scan
 ------------------
 Symbolic Z-matrix:
 Charge =  0 Multiplicity = 1

 SCF Done:  E(RB3LYP) =  -495.818983695     A.U. after   15 cycles

  Exact polarizability:   0.000   0.000   0.000   0.000   0.000   0.000
 Approx polarizability: 105.692  -6.934 126.361   2.943 -19.509 103.046

 SCF Done:  E(RB3LYP) =  -495.828061810     A.U. after   13 cycles
 SCF Done:  E(RB3LYP) =  -495.836303895     A.U. after   16 cycles
 SCF Done:  E(RB3LYP) =  -495.840524566     A.U. after   15 cycles
 SCF Done:  E(RB3LYP) =  -495.837228607     A.U. after   15 cycles
 SCF Done:  E(RB3LYP) =  -495.841084227     A.U. after   15 cycles
 SCF Done:  E(RB3LYP) =  -495.841565748     A.U. after   11 cycles
 SCF Done:  E(RB3LYP) =  -495.842201258     A.U. after   12 cycles
 SCF Done:  E(RB3LYP) =  -495.842359522     A.U. after   12 cycles
 SCF Done:  E(RB3LYP) =  -495.842436570     A.U. after   12 cycles
 SCF Done:  E(RB3LYP) =  -495.843066889     A.U. after   12 cycles
 SCF Done:  E(RB3LYP) =  -495.843070445     A.U. after   10 cycles
 SCF Done:  E(RB3LYP) =  -495.843074686     A.U. after   10 cycles
 SCF Done:  E(RB3LYP) =  -495.843079483     A.U. after   10 cycles
 SCF Done:  E(RB3LYP) =  -495.843083088     A.U. after   10 cycles
 SCF Done:  E(RB3LYP) =  -495.843085937     A.U. after   10 cycles
 SCF Done:  E(RB3LYP) =  -495.843086657     A.U. after    8 cycles
 SCF Done:  E(RB3LYP) =  -495.843086813     A.U. after   10 cycles
 SCF Done:  E(RB3LYP) =  -495.843086727     A.U. after    9 cycles
 SCF Done:  E(RB3LYP) =  -495.843086839     A.U. after    8 cycles
 Optimization completed.
    -- Stationary point found.

                         Standard orientation:
 ---------------------------------------------------------------------
 Center     Atomic      Atomic             Coordinates (Angstroms)
 Number     Number       Type             X           Y           Z
 ---------------------------------------------------------------------
      1          1           0       -4.011854   -0.663144    0.591826
      2          6           0       -3.097986   -1.155636    0.248607
      3          1           0       -3.262081   -1.555603   -0.756577
      4          1           0       -2.897908   -1.987688    0.932333
      5          6           0       -1.949023   -0.157997    0.337917
      6          8           0       -1.761204    0.508042    1.349770
      7          7           0       -1.176771   -0.075343   -0.791542
      8          1           0       -1.271233   -0.821170   -1.467309
      9          6           0        0.065183    0.697308   -0.928671
     10          1           0        0.201180    0.818265   -2.010061
     11          6           0        0.005495    2.098536   -0.316363
     12          1           0       -0.133650    2.076327    0.764647
     13          1           0        0.919476    2.646128   -0.572057
     14          1           0       -0.844218    2.644745   -0.737417
     15          6           0        1.243524   -0.223384   -0.527238
     16          8           0        1.432157   -1.258412   -1.159911
     17          7           0        2.016020    0.176512    0.517453
     18          1           0        1.714212    0.975473    1.055636
     19          6           0        3.100779   -0.638641    1.038313
     20          1           0        3.325332   -1.402978    0.293437
     21          1           0        3.990779   -0.024870    1.212604
     22          1           0        2.819765   -1.131821    1.977291
 ---------------------------------------------------------------------

 The electronic state is 1-A.
 Alpha  occ. eigenvalues --  -19.10899 -19.10692 -14.36474 -14.36046 -10.28717
 Alpha  occ. eigenvalues --  -10.28403 -10.23936 -10.21846 -10.18955 -10.18501
 Alpha  occ. eigenvalues --   -1.03230  -1.02393  -0.92190  -0.91989  -0.78111
 Alpha  occ. eigenvalues --   -0.72764  -0.70592  -0.65433  -0.59024  -0.56353
 Alpha  occ. eigenvalues --   -0.53120  -0.50793  -0.46358  -0.45833  -0.44581
 Alpha  occ. eigenvalues --   -0.44008  -0.42335  -0.41416  -0.39922  -0.39562
 Alpha  occ. eigenvalues --   -0.38743  -0.38557  -0.37399  -0.35559  -0.35096
 Alpha  occ. eigenvalues --   -0.26736  -0.25506  -0.24523  -0.23658
 Alpha virt. eigenvalues --    0.02067   0.03432   0.07301   0.08705   0.11435
 Alpha virt. eigenvalues --    0.12573   0.14476   0.15223   0.15735   0.15890
 Alpha virt. eigenvalues --    0.16911   0.17759   0.18555   0.19010   0.19527

 Mulliken atomic charges:
              1
     1  H    0.185550
     2  C   -0.535793
     3  H    0.147821
     4  H    0.184659
     5  C    0.595337
     6  O   -0.514642
     7  N   -0.586426
     8  H    0.335916
     9  C   -0.038726
    10  H    0.166022
    11  C   -0.484100
    12  H    0.194128
    13  H    0.146554
    14  H    0.165026
    15  C    0.607125
    16  O   -0.532262
    17  N   -0.587654
    18  H    0.339906
    19  C   -0.311916
    20  H    0.202651
    21  H    0.156800
    22  H    0.164025
 Sum of Mulliken atomic charges =   0.00000

 Dipole moment (field-independent basis, Debye):
    X=              0.4421    Y=              0.8130    Z=             -0.3541  Tot=              0.9908
 Quadrupole moment (field-independent basis, Debye-Ang):
   XX=            -54.6192   YY=            -59.9691   ZZ=            -61.9125
   XY=              7.2010   XZ=              9.6896   YZ=             -3.7338

 Normal termination of Gaussian 09 at Sat Feb 11 03:18:37 2017.
