 Gaussian 09, Revision A.02,
 Gaussian 09:  EM64L-G09RevA.02 11-Jun-2009

 ----------------------------------------------------------------------
 # b3lyp/6-31G* Opt=(ModRedundant, maxcycles=1000, calcfc) geom=nocrowd
 ----------------------------------------------------------------------

 ------------------
 Phi Psi fixed scan
 ------------------
 Symbolic Z-matrix:
 Charge =  0 Multiplicity = 1

 SCF Done:  E(RB3LYP) =  -495.825509575     A.U. after   15 cycles

  Exact polarizability:   0.000   0.000   0.000   0.000   0.000   0.000
 Approx polarizability: 107.688   7.402 109.359   6.469  21.964 119.126

 SCF Done:  E(RB3LYP) =  -495.834771451     A.U. after   13 cycles
 SCF Done:  E(RB3LYP) =  -495.843127362     A.U. after   14 cycles
 SCF Done:  E(RB3LYP) =  -495.843002971     A.U. after   15 cycles
 SCF Done:  E(RB3LYP) =  -495.846042440     A.U. after   13 cycles
 SCF Done:  E(RB3LYP) =  -495.846750286     A.U. after   11 cycles
 SCF Done:  E(RB3LYP) =  -495.847524587     A.U. after   12 cycles
 SCF Done:  E(RB3LYP) =  -495.847575059     A.U. after   12 cycles
 SCF Done:  E(RB3LYP) =  -495.847565087     A.U. after   12 cycles
 SCF Done:  E(RB3LYP) =  -495.847614111     A.U. after   11 cycles
 SCF Done:  E(RB3LYP) =  -495.848213772     A.U. after   12 cycles
 SCF Done:  E(RB3LYP) =  -495.848285123     A.U. after   12 cycles
 SCF Done:  E(RB3LYP) =  -495.848154319     A.U. after   13 cycles
 SCF Done:  E(RB3LYP) =  -495.848334829     A.U. after   12 cycles
 SCF Done:  E(RB3LYP) =  -495.848345475     A.U. after   11 cycles
 SCF Done:  E(RB3LYP) =  -495.848350803     A.U. after   10 cycles
 SCF Done:  E(RB3LYP) =  -495.848353156     A.U. after   10 cycles
 SCF Done:  E(RB3LYP) =  -495.848354097     A.U. after    9 cycles
 SCF Done:  E(RB3LYP) =  -495.848354227     A.U. after    7 cycles
 SCF Done:  E(RB3LYP) =  -495.848354233     A.U. after    7 cycles
 Optimization completed.
    -- Stationary point found.

                         Standard orientation:
 ---------------------------------------------------------------------
 Center     Atomic      Atomic             Coordinates (Angstroms)
 Number     Number       Type             X           Y           Z
 ---------------------------------------------------------------------
      1          1           0       -3.333552   -1.794780   -0.652637
      2          6           0       -3.171544   -0.714981   -0.688709
      3          1           0       -3.968546   -0.240561   -0.104750
      4          1           0       -3.249696   -0.370795   -1.724836
      5          6           0       -1.831391   -0.398425   -0.043985
      6          8           0       -1.456192   -0.977735    0.977060
      7          7           0       -1.074858    0.543519   -0.676487
      8          1           0       -1.457272    0.968324   -1.508979
      9          6           0        0.090063    1.224615   -0.076145
     10          1           0        0.221110    2.131520   -0.672165
     11          6           0       -0.091024    1.640350    1.387971
     12          1           0       -0.227844    0.787915    2.052416
     13          1           0        0.793344    2.202101    1.706552
     14          1           0       -0.964553    2.294901    1.484194
     15          6           0        1.376959    0.420040   -0.374748
     16          8           0        2.199255    0.819127   -1.191583
     17          7           0        1.510414   -0.713017    0.369402
     18          1           0        0.680646   -1.031260    0.864807
     19          6           0        2.601023   -1.646924    0.152001
     20          1           0        3.420774   -1.103685   -0.320376
     21          1           0        2.939154   -2.059058    1.108146
     22          1           0        2.308521   -2.477324   -0.504895
 ---------------------------------------------------------------------

 The electronic state is 1-A.
 Alpha  occ. eigenvalues --  -19.12329 -19.10300 -14.37411 -14.34576 -10.30080
 Alpha  occ. eigenvalues --  -10.27481 -10.23818 -10.20763 -10.20230 -10.18379
 Alpha  occ. eigenvalues --   -1.04165  -1.02016  -0.93181  -0.90630  -0.78366
 Alpha  occ. eigenvalues --   -0.73621  -0.69870  -0.65302  -0.58997  -0.56295
 Alpha  occ. eigenvalues --   -0.52916  -0.50799  -0.47014  -0.45766  -0.44136
 Alpha  occ. eigenvalues --   -0.44027  -0.42065  -0.41680  -0.41029  -0.40309
 Alpha  occ. eigenvalues --   -0.38656  -0.37609  -0.36826  -0.35725  -0.35564
 Alpha  occ. eigenvalues --   -0.27765  -0.26207  -0.24222  -0.23268
 Alpha virt. eigenvalues --    0.01095   0.03387   0.05863   0.11266   0.11439
 Alpha virt. eigenvalues --    0.12799   0.14073   0.15601   0.15940   0.16565
 Alpha virt. eigenvalues --    0.17087   0.17775   0.18296   0.18769   0.20176

 Mulliken atomic charges:
              1
     1  H    0.190642
     2  C   -0.535496
     3  H    0.187371
     4  H    0.152006
     5  C    0.605035
     6  O   -0.527057
     7  N   -0.593415
     8  H    0.333229
     9  C   -0.060120
    10  H    0.164234
    11  C   -0.456015
    12  H    0.188950
    13  H    0.161391
    14  H    0.146642
    15  C    0.597235
    16  O   -0.520523
    17  N   -0.590624
    18  H    0.361456
    19  C   -0.308324
    20  H    0.193760
    21  H    0.154406
    22  H    0.155216
 Sum of Mulliken atomic charges =   0.00000

 Dipole moment (field-independent basis, Debye):
    X=             -3.0431    Y=              0.2470    Z=             -0.4179  Tot=              3.0815
 Quadrupole moment (field-independent basis, Debye-Ang):
   XX=            -59.0059   YY=            -57.4850   ZZ=            -62.0548
   XY=             -7.2411   XZ=             10.0701   YZ=              2.3661

 Normal termination of Gaussian 09 at Sat Feb 11 03:30:10 2017.
