 Gaussian 09, Revision A.02,
 Gaussian 09:  EM64L-G09RevA.02 11-Jun-2009

 ----------------------------------------------------------------------
 # b3lyp/6-31G* Opt=(ModRedundant, maxcycles=1000, calcfc) geom=nocrowd
 ----------------------------------------------------------------------

 ------------------
 Phi Psi fixed scan
 ------------------
 Symbolic Z-matrix:
 Charge =  0 Multiplicity = 1

 SCF Done:  E(RB3LYP) =  -495.819778176     A.U. after   15 cycles

  Exact polarizability:   0.000   0.000   0.000   0.000   0.000   0.000
 Approx polarizability: 104.317  -2.056 133.954  -0.421  16.661  97.200

 SCF Done:  E(RB3LYP) =  -495.829043548     A.U. after   15 cycles
 SCF Done:  E(RB3LYP) =  -495.837783139     A.U. after   15 cycles
 SCF Done:  E(RB3LYP) =  -495.841297192     A.U. after   15 cycles
 SCF Done:  E(RB3LYP) =  -495.834619486     A.U. after   15 cycles
 SCF Done:  E(RB3LYP) =  -495.842109025     A.U. after   15 cycles
 SCF Done:  E(RB3LYP) =  -495.842594927     A.U. after   12 cycles
 SCF Done:  E(RB3LYP) =  -495.843243451     A.U. after   12 cycles
 SCF Done:  E(RB3LYP) =  -495.843383956     A.U. after   12 cycles
 SCF Done:  E(RB3LYP) =  -495.843414748     A.U. after   11 cycles
 SCF Done:  E(RB3LYP) =  -495.843722429     A.U. after   12 cycles
 SCF Done:  E(RB3LYP) =  -495.843763787     A.U. after   11 cycles
 SCF Done:  E(RB3LYP) =  -495.843804025     A.U. after   11 cycles
 SCF Done:  E(RB3LYP) =  -495.843810067     A.U. after   11 cycles
 SCF Done:  E(RB3LYP) =  -495.843811402     A.U. after    8 cycles
 SCF Done:  E(RB3LYP) =  -495.843812223     A.U. after    9 cycles
 SCF Done:  E(RB3LYP) =  -495.843812461     A.U. after    8 cycles
 SCF Done:  E(RB3LYP) =  -495.843812503     A.U. after    8 cycles
 SCF Done:  E(RB3LYP) =  -495.843812490     A.U. after    8 cycles
 SCF Done:  E(RB3LYP) =  -495.843812486     A.U. after    7 cycles
 Optimization completed.
    -- Stationary point found.

                         Standard orientation:
 ---------------------------------------------------------------------
 Center     Atomic      Atomic             Coordinates (Angstroms)
 Number     Number       Type             X           Y           Z
 ---------------------------------------------------------------------
      1          1           0        4.015909   -0.582114   -0.093290
      2          6           0        3.134280   -1.065955    0.339943
      3          1           0        3.227759   -1.052897    1.430269
      4          1           0        3.127022   -2.102797   -0.007863
      5          6           0        1.887809   -0.365429   -0.184359
      6          8           0        1.591199   -0.393344   -1.375793
      7          7           0        1.146264    0.286650    0.759813
      8          1           0        1.372938    0.143254    1.732769
      9          6           0       -0.057081    1.086412    0.486874
     10          1           0       -0.176603    1.717379    1.373815
     11          6           0        0.056411    2.016422   -0.724093
     12          1           0        0.214355    1.480346   -1.659494
     13          1           0       -0.850917    2.625207   -0.795860
     14          1           0        0.909492    2.689035   -0.586088
     15          6           0       -1.285871    0.149560    0.569250
     16          8           0       -1.703540   -0.214951    1.662810
     17          7           0       -1.850723   -0.208637   -0.617624
     18          1           0       -1.301487   -0.052919   -1.452557
     19          6           0       -2.920177   -1.192084   -0.681595
     20          1           0       -3.497987   -1.123636    0.241048
     21          1           0       -3.568304   -0.978119   -1.536504
     22          1           0       -2.534466   -2.216023   -0.773830
 ---------------------------------------------------------------------

 The electronic state is 1-A.
 Alpha  occ. eigenvalues --  -19.11071 -19.10748 -14.36605 -14.35833 -10.29110
 Alpha  occ. eigenvalues --  -10.28046 -10.23849 -10.21463 -10.19406 -10.18381
 Alpha  occ. eigenvalues --   -1.03274  -1.02469  -0.92455  -0.91567  -0.78142
 Alpha  occ. eigenvalues --   -0.73028  -0.70283  -0.65399  -0.58801  -0.56729
 Alpha  occ. eigenvalues --   -0.52995  -0.50792  -0.46570  -0.45592  -0.44300
 Alpha  occ. eigenvalues --   -0.44202  -0.42036  -0.41552  -0.40265  -0.39471
 Alpha  occ. eigenvalues --   -0.39042  -0.38167  -0.37167  -0.35587  -0.35246
 Alpha  occ. eigenvalues --   -0.27029  -0.25308  -0.24827  -0.23490
 Alpha virt. eigenvalues --    0.01844   0.03326   0.06766   0.09095   0.11496
 Alpha virt. eigenvalues --    0.12592   0.13964   0.15383   0.15999   0.16256
 Alpha virt. eigenvalues --    0.17356   0.17672   0.18117   0.19081   0.20160

 Mulliken atomic charges:
              1
     1  H    0.186017
     2  C   -0.533463
     3  H    0.145993
     4  H    0.186601
     5  C    0.600943
     6  O   -0.524547
     7  N   -0.593514
     8  H    0.335398
     9  C   -0.043621
    10  H    0.164646
    11  C   -0.471158
    12  H    0.189849
    13  H    0.154460
    14  H    0.156077
    15  C    0.601193
    16  O   -0.524433
    17  N   -0.580430
    18  H    0.344410
    19  C   -0.307528
    20  H    0.195987
    21  H    0.154689
    22  H    0.162432
 Sum of Mulliken atomic charges =   0.00000

 Dipole moment (field-independent basis, Debye):
    X=              1.0217    Y=              0.6036    Z=             -0.0569  Tot=              1.1881
 Quadrupole moment (field-independent basis, Debye-Ang):
   XX=            -55.8875   YY=            -56.9302   ZZ=            -64.2952
   XY=              0.3858   XZ=             12.2707   YZ=              0.7984

 Normal termination of Gaussian 09 at Sat Feb 11 03:19:18 2017.
