 Gaussian 09, Revision A.02,
 Gaussian 09:  EM64L-G09RevA.02 11-Jun-2009

 ----------------------------------------------------------------------
 # b3lyp/6-31G* Opt=(ModRedundant, maxcycles=1000, calcfc) geom=nocrowd
 ----------------------------------------------------------------------

 ------------------
 Phi Psi fixed scan
 ------------------
 Symbolic Z-matrix:
 Charge =  0 Multiplicity = 1

 SCF Done:  E(RB3LYP) =  -495.821226465     A.U. after   16 cycles

  Exact polarizability:   0.000   0.000   0.000   0.000   0.000   0.000
 Approx polarizability: 117.698   6.033  97.656 -14.955  -0.986 120.096

 SCF Done:  E(RB3LYP) =  -495.828201736     A.U. after   16 cycles
 SCF Done:  E(RB3LYP) =  -495.834261770     A.U. after   14 cycles
 SCF Done:  E(RB3LYP) =  -495.835394055     A.U. after   16 cycles
 SCF Done:  E(RB3LYP) =  -495.813004863     A.U. after   15 cycles
 SCF Done:  E(RB3LYP) =  -495.836875184     A.U. after   15 cycles
 SCF Done:  E(RB3LYP) =  -495.837316417     A.U. after   11 cycles
 SCF Done:  E(RB3LYP) =  -495.837927937     A.U. after   12 cycles
 SCF Done:  E(RB3LYP) =  -495.838196249     A.U. after   12 cycles
 SCF Done:  E(RB3LYP) =  -495.838206406     A.U. after   12 cycles
 SCF Done:  E(RB3LYP) =  -495.838558942     A.U. after   11 cycles
 SCF Done:  E(RB3LYP) =  -495.838281315     A.U. after   12 cycles
 SCF Done:  E(RB3LYP) =  -495.838641526     A.U. after   12 cycles
 SCF Done:  E(RB3LYP) =  -495.838762010     A.U. after   12 cycles
 SCF Done:  E(RB3LYP) =  -495.838813670     A.U. after   16 cycles
 SCF Done:  E(RB3LYP) =  -495.838829519     A.U. after   11 cycles
 SCF Done:  E(RB3LYP) =  -495.838832043     A.U. after   10 cycles
 SCF Done:  E(RB3LYP) =  -495.838832221     A.U. after    8 cycles
 SCF Done:  E(RB3LYP) =  -495.838832361     A.U. after    7 cycles
 SCF Done:  E(RB3LYP) =  -495.838832369     A.U. after    6 cycles
 Optimization completed.
    -- Stationary point found.

                         Standard orientation:
 ---------------------------------------------------------------------
 Center     Atomic      Atomic             Coordinates (Angstroms)
 Number     Number       Type             X           Y           Z
 ---------------------------------------------------------------------
      1          1           0        4.059431   -1.123865   -0.082560
      2          6           0        3.058556   -1.345072    0.291873
      3          1           0        3.111546   -1.572123    1.362443
      4          1           0        2.684838   -2.234543   -0.229591
      5          6           0        2.147903   -0.162483   -0.022788
      6          8           0        2.383450    0.604440   -0.942364
      7          7           0        1.074691   -0.049701    0.838310
      8          1           0        0.946580   -0.838796    1.458791
      9          6           0       -0.142184    0.729121    0.626325
     10          1           0       -0.513288    0.978895    1.631368
     11          6           0        0.056745    2.046985   -0.136284
     12          1           0        0.343870    1.863630   -1.170089
     13          1           0       -0.882490    2.612063   -0.110318
     14          1           0        0.839137    2.647141    0.335565
     15          6           0       -1.206382   -0.144008   -0.080960
     16          8           0       -0.926886   -0.871033   -1.023604
     17          7           0       -2.462748   -0.048843    0.452243
     18          1           0       -2.621608    0.614109    1.197756
     19          6           0       -3.614686   -0.704438   -0.143237
     20          1           0       -3.238339   -1.413086   -0.882316
     21          1           0       -4.188630   -1.244233    0.617812
     22          1           0       -4.276891    0.012732   -0.644562
 ---------------------------------------------------------------------

 The electronic state is 1-A.
 Alpha  occ. eigenvalues --  -19.11270 -19.10076 -14.36899 -14.35551 -10.28517
 Alpha  occ. eigenvalues --  -10.28101 -10.24116 -10.22246 -10.18360 -10.17830
 Alpha  occ. eigenvalues --   -1.03403  -1.01930  -0.92476  -0.91750  -0.77901
 Alpha  occ. eigenvalues --   -0.72336  -0.70919  -0.64453  -0.59115  -0.56173
 Alpha  occ. eigenvalues --   -0.53006  -0.50046  -0.47018  -0.45765  -0.44866
 Alpha  occ. eigenvalues --   -0.43547  -0.41966  -0.40510  -0.40247  -0.39340
 Alpha  occ. eigenvalues --   -0.38807  -0.37490  -0.36768  -0.35556  -0.34736
 Alpha  occ. eigenvalues --   -0.26751  -0.25624  -0.24048  -0.23266
 Alpha virt. eigenvalues --    0.01788   0.04263   0.05676   0.08579   0.11689
 Alpha virt. eigenvalues --    0.13569   0.14480   0.15090   0.15690   0.15979
 Alpha virt. eigenvalues --    0.16586   0.17363   0.18368   0.19072   0.19707

 Mulliken atomic charges:
              1
     1  H    0.184788
     2  C   -0.549258
     3  H    0.148223
     4  H    0.186815
     5  C    0.603498
     6  O   -0.496456
     7  N   -0.580537
     8  H    0.320174
     9  C   -0.043259
    10  H    0.125602
    11  C   -0.437105
    12  H    0.209174
    13  H    0.128653
    14  H    0.165456
    15  C    0.593609
    16  O   -0.506344
    17  N   -0.589756
    18  H    0.324500
    19  C   -0.311008
    20  H    0.206551
    21  H    0.156182
    22  H    0.160499
 Sum of Mulliken atomic charges =   0.00000

 Dipole moment (field-independent basis, Debye):
    X=             -3.3066    Y=             -0.2542    Z=              4.5552  Tot=              5.6345
 Quadrupole moment (field-independent basis, Debye-Ang):
   XX=            -53.2628   YY=            -58.5402   ZZ=            -61.3456
   XY=             -6.5747   XZ=              1.4835   YZ=             -0.7341

 Normal termination of Gaussian 09 at Sat Feb 11 03:09:41 2017.
