 Gaussian 09, Revision A.02,
 Gaussian 09:  EM64L-G09RevA.02 11-Jun-2009

 ----------------------------------------------------------------------
 # b3lyp/6-31G* Opt=(ModRedundant, maxcycles=1000, calcfc) geom=nocrowd
 ----------------------------------------------------------------------

 ------------------
 Phi Psi fixed scan
 ------------------
 Symbolic Z-matrix:
 Charge =  0 Multiplicity = 1

 SCF Done:  E(RB3LYP) =  -495.826947863     A.U. after   15 cycles

  Exact polarizability:   0.000   0.000   0.000   0.000   0.000   0.000
 Approx polarizability: 113.259  12.499 107.874   8.917  13.051 114.569

 SCF Done:  E(RB3LYP) =  -495.835681604     A.U. after   16 cycles
 SCF Done:  E(RB3LYP) =  -495.843974767     A.U. after   14 cycles
 SCF Done:  E(RB3LYP) =  -495.837048127     A.U. after   13 cycles
 SCF Done:  E(RB3LYP) =  -495.846495267     A.U. after   13 cycles
 SCF Done:  E(RB3LYP) =  -495.847061960     A.U. after   11 cycles
 SCF Done:  E(RB3LYP) =  -495.847809476     A.U. after   12 cycles
 SCF Done:  E(RB3LYP) =  -495.848024300     A.U. after   12 cycles
 SCF Done:  E(RB3LYP) =  -495.848037790     A.U. after   11 cycles
 SCF Done:  E(RB3LYP) =  -495.848288065     A.U. after   11 cycles
 SCF Done:  E(RB3LYP) =  -495.848620016     A.U. after   12 cycles
 SCF Done:  E(RB3LYP) =  -495.848643597     A.U. after   11 cycles
 SCF Done:  E(RB3LYP) =  -495.848665666     A.U. after   10 cycles
 SCF Done:  E(RB3LYP) =  -495.848676960     A.U. after   10 cycles
 SCF Done:  E(RB3LYP) =  -495.848682520     A.U. after   10 cycles
 SCF Done:  E(RB3LYP) =  -495.848685299     A.U. after   10 cycles
 SCF Done:  E(RB3LYP) =  -495.848685861     A.U. after    8 cycles
 SCF Done:  E(RB3LYP) =  -495.848686317     A.U. after    8 cycles
 SCF Done:  E(RB3LYP) =  -495.848686412     A.U. after    7 cycles
 SCF Done:  E(RB3LYP) =  -495.848686437     A.U. after    7 cycles
 Optimization completed.
    -- Stationary point found.

                         Standard orientation:
 ---------------------------------------------------------------------
 Center     Atomic      Atomic             Coordinates (Angstroms)
 Number     Number       Type             X           Y           Z
 ---------------------------------------------------------------------
      1          1           0       -3.475281   -1.708641   -0.404363
      2          6           0       -3.226638   -0.662168   -0.594476
      3          1           0       -3.976626   -0.044510   -0.086776
      4          1           0       -3.286964   -0.463395   -1.669259
      5          6           0       -1.858727   -0.366623   -0.000075
      6          8           0       -1.502084   -0.858391    1.072167
      7          7           0       -1.048621    0.443107   -0.741090
      8          1           0       -1.431136    0.788874   -1.609984
      9          6           0        0.121204    1.187811   -0.234409
     10          1           0        0.271088    2.004315   -0.945219
     11          6           0       -0.073677    1.800583    1.160434
     12          1           0       -0.225392    1.033261    1.920431
     13          1           0        0.817014    2.385225    1.411045
     14          1           0       -0.940093    2.471112    1.163222
     15          6           0        1.439182    0.385521   -0.324282
     16          8           0        2.463489    0.922303   -0.733676
     17          7           0        1.352633   -0.905068    0.093392
     18          1           0        0.485866   -1.195092    0.539818
     19          6           0        2.513285   -1.773887    0.159303
     20          1           0        3.313412   -1.307334   -0.417281
     21          1           0        2.858977   -1.912489    1.192105
     22          1           0        2.282037   -2.756310   -0.266752
 ---------------------------------------------------------------------

 The electronic state is 1-A.
 Alpha  occ. eigenvalues --  -19.12507 -19.10097 -14.37431 -14.34564 -10.30228
 Alpha  occ. eigenvalues --  -10.27444 -10.23943 -10.20747 -10.20390 -10.18344
 Alpha  occ. eigenvalues --   -1.04351  -1.01898  -0.93340  -0.90535  -0.78408
 Alpha  occ. eigenvalues --   -0.73708  -0.70029  -0.65164  -0.58875  -0.56463
 Alpha  occ. eigenvalues --   -0.53146  -0.50795  -0.47053  -0.45817  -0.44270
 Alpha  occ. eigenvalues --   -0.43731  -0.42449  -0.41624  -0.41118  -0.40511
 Alpha  occ. eigenvalues --   -0.38581  -0.37743  -0.36990  -0.36024  -0.34710
 Alpha  occ. eigenvalues --   -0.27921  -0.26341  -0.24240  -0.23116
 Alpha virt. eigenvalues --    0.00808   0.03681   0.05524   0.11300   0.11649
 Alpha virt. eigenvalues --    0.12901   0.14025   0.15849   0.16348   0.16565
 Alpha virt. eigenvalues --    0.17068   0.17720   0.18272   0.18657   0.20171

 Mulliken atomic charges:
              1
     1  H    0.190862
     2  C   -0.536736
     3  H    0.187829
     4  H    0.152838
     5  C    0.600011
     6  O   -0.525373
     7  N   -0.588701
     8  H    0.331029
     9  C   -0.058799
    10  H    0.164813
    11  C   -0.458908
    12  H    0.190464
    13  H    0.169594
    14  H    0.146587
    15  C    0.596651
    16  O   -0.525458
    17  N   -0.596036
    18  H    0.362712
    19  C   -0.308811
    20  H    0.195508
    21  H    0.156844
    22  H    0.153081
 Sum of Mulliken atomic charges =   0.00000

 Dipole moment (field-independent basis, Debye):
    X=             -3.4598    Y=             -0.1218    Z=             -1.3024  Tot=              3.6988
 Quadrupole moment (field-independent basis, Debye-Ang):
   XX=            -61.3184   YY=            -57.5510   ZZ=            -60.4415
   XY=             -7.8740   XZ=              8.9420   YZ=              1.5569

 Normal termination of Gaussian 09 at Sat Feb 11 03:23:14 2017.
