 Gaussian 09, Revision A.02,
 Gaussian 09:  EM64L-G09RevA.02 11-Jun-2009

 ----------------------------------------------------------------------
 # b3lyp/6-31G* Opt=(ModRedundant, maxcycles=1000, calcfc) geom=nocrowd
 ----------------------------------------------------------------------

 ------------------
 Phi Psi fixed scan
 ------------------
 Symbolic Z-matrix:
 Charge =  0 Multiplicity = 1

 SCF Done:  E(RB3LYP) =  -495.818262574     A.U. after   15 cycles

  Exact polarizability:   0.000   0.000   0.000   0.000   0.000   0.000
 Approx polarizability: 108.314 -10.345 122.313   3.986 -16.594 104.128

 SCF Done:  E(RB3LYP) =  -495.827391656     A.U. after   16 cycles
 SCF Done:  E(RB3LYP) =  -495.835435592     A.U. after   14 cycles
 SCF Done:  E(RB3LYP) =  -495.839575802     A.U. after   14 cycles
 SCF Done:  E(RB3LYP) =  -495.837166577     A.U. after   15 cycles
 SCF Done:  E(RB3LYP) =  -495.840336605     A.U. after   14 cycles
 SCF Done:  E(RB3LYP) =  -495.840924164     A.U. after   11 cycles
 SCF Done:  E(RB3LYP) =  -495.841667280     A.U. after   12 cycles
 SCF Done:  E(RB3LYP) =  -495.842099102     A.U. after   13 cycles
 SCF Done:  E(RB3LYP) =  -495.842110380     A.U. after   12 cycles
 SCF Done:  E(RB3LYP) =  -495.843038724     A.U. after   10 cycles
 SCF Done:  E(RB3LYP) =  -495.843040651     A.U. after   10 cycles
 SCF Done:  E(RB3LYP) =  -495.843041022     A.U. after    7 cycles
 SCF Done:  E(RB3LYP) =  -495.843041018     A.U. after    7 cycles
 SCF Done:  E(RB3LYP) =  -495.843040852     A.U. after    7 cycles
 SCF Done:  E(RB3LYP) =  -495.843040561     A.U. after    8 cycles
 SCF Done:  E(RB3LYP) =  -495.843040148     A.U. after    9 cycles
 SCF Done:  E(RB3LYP) =  -495.843039841     A.U. after    9 cycles
 SCF Done:  E(RB3LYP) =  -495.843040036     A.U. after    7 cycles
 SCF Done:  E(RB3LYP) =  -495.843039903     A.U. after    7 cycles
 Optimization completed.
    -- Stationary point found.

                         Standard orientation:
 ---------------------------------------------------------------------
 Center     Atomic      Atomic             Coordinates (Angstroms)
 Number     Number       Type             X           Y           Z
 ---------------------------------------------------------------------
      1          1           0       -3.996915   -0.711099    0.784214
      2          6           0       -3.113878   -1.133631    0.299948
      3          1           0       -3.374571   -1.463889   -0.710404
      4          1           0       -2.799717   -2.008735    0.881052
      5          6           0       -2.000745   -0.092568    0.326257
      6          8           0       -1.862209    0.675810    1.270133
      7          7           0       -1.196416   -0.101839   -0.787216
      8          1           0       -1.234456   -0.938288   -1.355422
      9          6           0        0.071156    0.623011   -0.926334
     10          1           0        0.241456    0.684461   -2.009651
     11          6           0        0.040399    2.058237   -0.394522
     12          1           0       -0.063489    2.098890    0.689976
     13          1           0        0.948393    2.584147   -0.712284
     14          1           0       -0.816543    2.588436   -0.819967
     15          6           0        1.211227   -0.306069   -0.438170
     16          8           0        1.242517   -1.468183   -0.833385
     17          7           0        2.152998    0.237780    0.377554
     18          1           0        1.989824    1.161344    0.750117
     19          6           0        3.253210   -0.542119    0.920322
     20          1           0        3.324323   -1.461536    0.338106
     21          1           0        4.192183    0.015574    0.840591
     22          1           0        3.082753   -0.803070    1.972316
 ---------------------------------------------------------------------

 The electronic state is 1-A.
 Alpha  occ. eigenvalues --  -19.11097 -19.10600 -14.36688 -14.35597 -10.28581
 Alpha  occ. eigenvalues --  -10.28482 -10.23991 -10.22012 -10.18687 -10.18575
 Alpha  occ. eigenvalues --   -1.03365  -1.02304  -0.92332  -0.91817  -0.78077
 Alpha  occ. eigenvalues --   -0.72637  -0.70653  -0.65382  -0.59151  -0.55947
 Alpha  occ. eigenvalues --   -0.53141  -0.50685  -0.46362  -0.45850  -0.44650
 Alpha  occ. eigenvalues --   -0.43925  -0.42465  -0.41352  -0.39810  -0.39512
 Alpha  occ. eigenvalues --   -0.38909  -0.38493  -0.37454  -0.35491  -0.34973
 Alpha  occ. eigenvalues --   -0.26506  -0.25708  -0.24615  -0.23630
 Alpha virt. eigenvalues --    0.02244   0.03233   0.07387   0.09047   0.11400
 Alpha virt. eigenvalues --    0.12681   0.14893   0.15177   0.15291   0.15874
 Alpha virt. eigenvalues --    0.16729   0.17595   0.18219   0.19129   0.19173

 Mulliken atomic charges:
              1
     1  H    0.184569
     2  C   -0.540450
     3  H    0.152567
     4  H    0.183930
     5  C    0.591594
     6  O   -0.509693
     7  N   -0.578720
     8  H    0.335665
     9  C   -0.044403
    10  H    0.167271
    11  C   -0.484265
    12  H    0.195060
    13  H    0.139745
    14  H    0.169668
    15  C    0.613425
    16  O   -0.533870
    17  N   -0.593289
    18  H    0.338261
    19  C   -0.311748
    20  H    0.203299
    21  H    0.156773
    22  H    0.164612
 Sum of Mulliken atomic charges =   0.00000

 Dipole moment (field-independent basis, Debye):
    X=              1.2777    Y=              0.9201    Z=             -0.7920  Tot=              1.7625
 Quadrupole moment (field-independent basis, Debye-Ang):
   XX=            -53.4129   YY=            -61.0680   ZZ=            -61.1936
   XY=              8.3389   XZ=              8.0052   YZ=             -3.4314

 Normal termination of Gaussian 09 at Sat Feb 11 03:19:29 2017.
