 Gaussian 09, Revision A.02,
 Gaussian 09:  EM64L-G09RevA.02 11-Jun-2009

 ----------------------------------------------------------------------
 # b3lyp/6-31G* Opt=(ModRedundant, maxcycles=1000, calcfc) geom=nocrowd
 ----------------------------------------------------------------------

 ------------------
 Phi Psi fixed scan
 ------------------
 Symbolic Z-matrix:
 Charge =  0 Multiplicity = 1

 SCF Done:  E(RB3LYP) =  -495.817726036     A.U. after   16 cycles

  Exact polarizability:   0.000   0.000   0.000   0.000   0.000   0.000
 Approx polarizability: 104.312   2.621 118.618  -4.721 -23.913 112.346

 SCF Done:  E(RB3LYP) =  -495.825328495     A.U. after   14 cycles
 SCF Done:  E(RB3LYP) =  -495.835066199     A.U. after   13 cycles
 SCF Done:  E(RB3LYP) =  -495.832926552     A.U. after   16 cycles
 SCF Done:  E(RB3LYP) =  -495.835204804     A.U. after   15 cycles
 SCF Done:  E(RB3LYP) =  -495.835773217     A.U. after   12 cycles
 SCF Done:  E(RB3LYP) =  -495.836674089     A.U. after   13 cycles
 SCF Done:  E(RB3LYP) =  -495.837211812     A.U. after   13 cycles
 SCF Done:  E(RB3LYP) =  -495.835411784     A.U. after   13 cycles
 SCF Done:  E(RB3LYP) =  -495.837350255     A.U. after   13 cycles
 SCF Done:  E(RB3LYP) =  -495.837798901     A.U. after   12 cycles
 SCF Done:  E(RB3LYP) =  -495.837864700     A.U. after   12 cycles
 SCF Done:  E(RB3LYP) =  -495.838189656     A.U. after   13 cycles
 SCF Done:  E(RB3LYP) =  -495.838308499     A.U. after   12 cycles
 SCF Done:  E(RB3LYP) =  -495.838324905     A.U. after   11 cycles
 SCF Done:  E(RB3LYP) =  -495.838331382     A.U. after   10 cycles
 SCF Done:  E(RB3LYP) =  -495.838337379     A.U. after   10 cycles
 SCF Done:  E(RB3LYP) =  -495.838340939     A.U. after   10 cycles
 SCF Done:  E(RB3LYP) =  -495.838342933     A.U. after   10 cycles
 SCF Done:  E(RB3LYP) =  -495.838343187     A.U. after    8 cycles
 Optimization completed.
    -- Stationary point found.

                         Standard orientation:
 ---------------------------------------------------------------------
 Center     Atomic      Atomic             Coordinates (Angstroms)
 Number     Number       Type             X           Y           Z
 ---------------------------------------------------------------------
      1          1           0       -3.493482   -1.727994    0.843231
      2          6           0       -3.111355   -1.281555   -0.076746
      3          1           0       -3.909637   -0.666055   -0.509049
      4          1           0       -2.864222   -2.074742   -0.790482
      5          6           0       -1.919739   -0.396060    0.271483
      6          8           0       -1.826011    0.177358    1.343888
      7          7           0       -0.954689   -0.321861   -0.715982
      8          1           0       -1.248824   -0.687212   -1.612852
      9          6           0        0.068586    0.744408   -0.794505
     10          1           0        0.365739    0.759201   -1.850763
     11          6           0       -0.415343    2.140053   -0.403691
     12          1           0       -0.659259    2.184798    0.656366
     13          1           0        0.376163    2.865732   -0.609985
     14          1           0       -1.300450    2.407767   -0.991076
     15          6           0        1.343701    0.341823   -0.009233
     16          8           0        1.831973    1.050582    0.857164
     17          7           0        1.942076   -0.804448   -0.466692
     18          1           0        1.353730   -1.436945   -0.993355
     19          6           0        3.080798   -1.382860    0.229815
     20          1           0        3.656300   -0.565692    0.666445
     21          1           0        2.776772   -2.061342    1.038374
     22          1           0        3.707888   -1.931733   -0.479306
 ---------------------------------------------------------------------

 The electronic state is 1-A.
 Alpha  occ. eigenvalues --  -19.11507 -19.10977 -14.36809 -14.35699 -10.29251
 Alpha  occ. eigenvalues --  -10.28022 -10.23997 -10.21477 -10.19744 -10.16942
 Alpha  occ. eigenvalues --   -1.03557  -1.02719  -0.92943  -0.91211  -0.77810
 Alpha  occ. eigenvalues --   -0.72927  -0.70674  -0.64045  -0.58898  -0.56517
 Alpha  occ. eigenvalues --   -0.52518  -0.50277  -0.46938  -0.45584  -0.45097
 Alpha  occ. eigenvalues --   -0.44135  -0.41743  -0.41387  -0.40222  -0.39474
 Alpha  occ. eigenvalues --   -0.38622  -0.37033  -0.36662  -0.35390  -0.35292
 Alpha  occ. eigenvalues --   -0.27931  -0.25106  -0.24765  -0.23759
 Alpha virt. eigenvalues --    0.01868   0.01917   0.05770   0.09826   0.11400
 Alpha virt. eigenvalues --    0.12479   0.13532   0.14714   0.15716   0.16549
 Alpha virt. eigenvalues --    0.16889   0.17686   0.18195   0.19157   0.19579

 Mulliken atomic charges:
              1
     1  H    0.192149
     2  C   -0.546388
     3  H    0.181253
     4  H    0.149576
     5  C    0.593889
     6  O   -0.482076
     7  N   -0.610026
     8  H    0.318871
     9  C   -0.069324
    10  H    0.151466
    11  C   -0.440951
    12  H    0.211231
    13  H    0.157309
    14  H    0.128426
    15  C    0.630240
    16  O   -0.502861
    17  N   -0.583452
    18  H    0.318890
    19  C   -0.307896
    20  H    0.199075
    21  H    0.159782
    22  H    0.150817
 Sum of Mulliken atomic charges =   0.00000

 Dipole moment (field-independent basis, Debye):
    X=             -0.9957    Y=             -3.4159    Z=             -5.0536  Tot=              6.1805
 Quadrupole moment (field-independent basis, Debye-Ang):
   XX=            -57.0092   YY=            -57.3859   ZZ=            -61.5976
   XY=             -2.6540   XZ=              2.9400   YZ=             -1.6567

 Normal termination of Gaussian 09 at Sat Feb 11 03:27:56 2017.
