 Gaussian 09, Revision A.02,
 Gaussian 09:  EM64L-G09RevA.02 11-Jun-2009

 ----------------------------------------------------------------------
 # b3lyp/6-31G* Opt=(ModRedundant, maxcycles=1000, calcfc) geom=nocrowd
 ----------------------------------------------------------------------

 ------------------
 Phi Psi fixed scan
 ------------------
 Symbolic Z-matrix:
 Charge =  0 Multiplicity = 1

 SCF Done:  E(RB3LYP) =  -495.820123307     A.U. after   16 cycles

  Exact polarizability:   0.000   0.000   0.000   0.000   0.000   0.000
 Approx polarizability: 116.262  -0.213  95.648 -16.586   6.556 124.231

 SCF Done:  E(RB3LYP) =  -495.827215293     A.U. after   14 cycles
 SCF Done:  E(RB3LYP) =  -495.835596750     A.U. after   13 cycles
 SCF Done:  E(RB3LYP) =  -495.833706688     A.U. after   16 cycles
 SCF Done:  E(RB3LYP) =  -495.835682479     A.U. after   16 cycles
 SCF Done:  E(RB3LYP) =  -495.836203234     A.U. after   11 cycles
 SCF Done:  E(RB3LYP) =  -495.836987866     A.U. after   13 cycles
 SCF Done:  E(RB3LYP) =  -495.837329195     A.U. after   12 cycles
 SCF Done:  E(RB3LYP) =  -495.834843174     A.U. after   13 cycles
 SCF Done:  E(RB3LYP) =  -495.837416973     A.U. after   13 cycles
 SCF Done:  E(RB3LYP) =  -495.837805662     A.U. after   12 cycles
 SCF Done:  E(RB3LYP) =  -495.837864231     A.U. after   12 cycles
 SCF Done:  E(RB3LYP) =  -495.837871793     A.U. after   10 cycles
 SCF Done:  E(RB3LYP) =  -495.837877674     A.U. after   10 cycles
 SCF Done:  E(RB3LYP) =  -495.837884141     A.U. after   10 cycles
 SCF Done:  E(RB3LYP) =  -495.837891331     A.U. after   11 cycles
 SCF Done:  E(RB3LYP) =  -495.837891734     A.U. after    8 cycles
 SCF Done:  E(RB3LYP) =  -495.837891777     A.U. after    7 cycles
 SCF Done:  E(RB3LYP) =  -495.837891779     A.U. after    7 cycles
 SCF Done:  E(RB3LYP) =  -495.837891763     A.U. after    7 cycles
 Optimization completed.
    -- Stationary point found.

                         Standard orientation:
 ---------------------------------------------------------------------
 Center     Atomic      Atomic             Coordinates (Angstroms)
 Number     Number       Type             X           Y           Z
 ---------------------------------------------------------------------
      1          1           0       -4.007826   -1.248009    0.050369
      2          6           0       -2.979296   -1.469473   -0.240028
      3          1           0       -2.959295   -1.800080   -1.284367
      4          1           0       -2.617285   -2.292179    0.388286
      5          6           0       -2.124903   -0.231159    0.016302
      6          8           0       -2.416830    0.582894    0.876740
      7          7           0       -1.033430   -0.131539   -0.822660
      8          1           0       -0.864408   -0.943430   -1.402299
      9          6           0        0.137747    0.731288   -0.657665
     10          1           0        0.514398    0.910784   -1.675397
     11          6           0       -0.151574    2.093732   -0.017308
     12          1           0       -0.444608    1.980178    1.024702
     13          1           0        0.754891    2.707746   -0.078460
     14          1           0       -0.957188    2.605192   -0.550700
     15          6           0        1.224077   -0.018049    0.149227
     16          8           0        1.011293   -0.451180    1.272629
     17          7           0        2.412033   -0.185150   -0.510332
     18          1           0        2.531977    0.258687   -1.409564
     19          6           0        3.571308   -0.796366    0.117452
     20          1           0        3.232057   -1.251501    1.049022
     21          1           0        4.000138   -1.569199   -0.529830
     22          1           0        4.347069   -0.054917    0.346357
 ---------------------------------------------------------------------

 The electronic state is 1-A.
 Alpha  occ. eigenvalues --  -19.11164 -19.10110 -14.36975 -14.35768 -10.28493
 Alpha  occ. eigenvalues --  -10.28195 -10.24131 -10.22259 -10.18520 -10.17533
 Alpha  occ. eigenvalues --   -1.03343  -1.01990  -0.92515  -0.91801  -0.77858
 Alpha  occ. eigenvalues --   -0.72359  -0.71032  -0.64352  -0.59125  -0.56344
 Alpha  occ. eigenvalues --   -0.53005  -0.50066  -0.47103  -0.45912  -0.44941
 Alpha  occ. eigenvalues --   -0.43616  -0.41865  -0.40474  -0.40094  -0.39340
 Alpha  occ. eigenvalues --   -0.38822  -0.37361  -0.36425  -0.35619  -0.34855
 Alpha  occ. eigenvalues --   -0.27048  -0.25667  -0.23915  -0.23207
 Alpha virt. eigenvalues --    0.01576   0.04451   0.05447   0.08623   0.11676
 Alpha virt. eigenvalues --    0.13577   0.14261   0.15060   0.15592   0.16183
 Alpha virt. eigenvalues --    0.16634   0.17418   0.18274   0.19293   0.19802

 Mulliken atomic charges:
              1
     1  H    0.185863
     2  C   -0.547567
     3  H    0.146387
     4  H    0.185537
     5  C    0.603605
     6  O   -0.493408
     7  N   -0.584947
     8  H    0.318865
     9  C   -0.038442
    10  H    0.121290
    11  C   -0.440232
    12  H    0.213009
    13  H    0.131832
    14  H    0.161378
    15  C    0.599179
    16  O   -0.506465
    17  N   -0.591911
    18  H    0.323676
    19  C   -0.311530
    20  H    0.207383
    21  H    0.156105
    22  H    0.160395
 Sum of Mulliken atomic charges =   0.00000

 Dipole moment (field-independent basis, Debye):
    X=              3.2348    Y=             -1.1730    Z=             -4.9543  Tot=              6.0320
 Quadrupole moment (field-independent basis, Debye-Ang):
   XX=            -54.3765   YY=            -57.4190   ZZ=            -61.8185
   XY=              5.3759   XZ=              0.1694   YZ=              0.3646

 Normal termination of Gaussian 09 at Sat Feb 11 03:11:43 2017.
