 Gaussian 09, Revision A.02,
 Gaussian 09:  EM64L-G09RevA.02 11-Jun-2009

 ----------------------------------------------------------------------
 # b3lyp/6-31G* Opt=(ModRedundant, maxcycles=1000, calcfc) geom=nocrowd
 ----------------------------------------------------------------------

 ------------------
 Phi Psi fixed scan
 ------------------
 Symbolic Z-matrix:
 Charge =  0 Multiplicity = 1

 SCF Done:  E(RB3LYP) =  -495.820724786     A.U. after   16 cycles

  Exact polarizability:   0.000   0.000   0.000   0.000   0.000   0.000
 Approx polarizability: 105.507  -6.213 121.945  -0.101 -16.916 108.516

 SCF Done:  E(RB3LYP) =  -495.829028127     A.U. after   17 cycles
 SCF Done:  E(RB3LYP) =  -495.838894012     A.U. after   13 cycles
 SCF Done:  E(RB3LYP) =  -495.838279481     A.U. after   16 cycles
 SCF Done:  E(RB3LYP) =  -495.839663672     A.U. after   14 cycles
 SCF Done:  E(RB3LYP) =  -495.840598480     A.U. after   11 cycles
 SCF Done:  E(RB3LYP) =  -495.841880872     A.U. after   12 cycles
 SCF Done:  E(RB3LYP) =  -495.841925373     A.U. after   12 cycles
 SCF Done:  E(RB3LYP) =  -495.842254015     A.U. after   12 cycles
 SCF Done:  E(RB3LYP) =  -495.842900310     A.U. after   12 cycles
 SCF Done:  E(RB3LYP) =  -495.843100457     A.U. after   12 cycles
 SCF Done:  E(RB3LYP) =  -495.843044119     A.U. after   12 cycles
 SCF Done:  E(RB3LYP) =  -495.843129076     A.U. after   11 cycles
 SCF Done:  E(RB3LYP) =  -495.843147101     A.U. after   11 cycles
 SCF Done:  E(RB3LYP) =  -495.843152151     A.U. after   10 cycles
 SCF Done:  E(RB3LYP) =  -495.843158019     A.U. after   10 cycles
 SCF Done:  E(RB3LYP) =  -495.843166405     A.U. after   10 cycles
 SCF Done:  E(RB3LYP) =  -495.843172082     A.U. after   11 cycles
 SCF Done:  E(RB3LYP) =  -495.843172555     A.U. after    8 cycles
 SCF Done:  E(RB3LYP) =  -495.843172574     A.U. after    7 cycles
 Optimization completed.
    -- Stationary point found.

                         Standard orientation:
 ---------------------------------------------------------------------
 Center     Atomic      Atomic             Coordinates (Angstroms)
 Number     Number       Type             X           Y           Z
 ---------------------------------------------------------------------
      1          1           0       -3.510322   -1.711138    0.644534
      2          6           0       -3.139214   -1.120353   -0.194892
      3          1           0       -3.911117   -0.387502   -0.460014
      4          1           0       -2.978401   -1.774230   -1.058813
      5          6           0       -1.875665   -0.389830    0.242697
      6          8           0       -1.670881   -0.074270    1.403462
      7          7           0       -0.971139   -0.139891   -0.774829
      8          1           0       -1.334878   -0.293844   -1.707115
      9          6           0        0.079162    0.897501   -0.690780
     10          1           0        0.330753    1.115932   -1.737288
     11          6           0       -0.349687    2.206783   -0.025116
     12          1           0       -0.623207    2.044564    1.017267
     13          1           0        0.485923    2.908432   -0.063245
     14          1           0       -1.205075    2.637468   -0.557174
     15          6           0        1.400024    0.354875   -0.091830
     16          8           0        2.209320    1.106692    0.435930
     17          7           0        1.637159   -0.966421   -0.332644
     18          1           0        0.836458   -1.522503   -0.600446
     19          6           0        2.813632   -1.637736    0.191091
     20          1           0        3.575383   -0.878617    0.374274
     21          1           0        2.605386   -2.157675    1.135503
     22          1           0        3.189939   -2.363527   -0.537329
 ---------------------------------------------------------------------

 The electronic state is 1-A.
 Alpha  occ. eigenvalues --  -19.12064 -19.10488 -14.37133 -14.35349 -10.29712
 Alpha  occ. eigenvalues --  -10.27846 -10.24027 -10.21259 -10.20112 -10.16989
 Alpha  occ. eigenvalues --   -1.04018  -1.02398  -0.93270  -0.90947  -0.77916
 Alpha  occ. eigenvalues --   -0.73185  -0.70633  -0.64178  -0.58867  -0.56536
 Alpha  occ. eigenvalues --   -0.52753  -0.50516  -0.47210  -0.45558  -0.45024
 Alpha  occ. eigenvalues --   -0.44100  -0.41841  -0.41521  -0.40547  -0.39493
 Alpha  occ. eigenvalues --   -0.38486  -0.37897  -0.36381  -0.35614  -0.34793
 Alpha  occ. eigenvalues --   -0.28147  -0.25452  -0.24722  -0.23640
 Alpha virt. eigenvalues --    0.01335   0.02573   0.06205   0.10409   0.11240
 Alpha virt. eigenvalues --    0.13134   0.13571   0.14285   0.15965   0.16303
 Alpha virt. eigenvalues --    0.17128   0.17904   0.18001   0.18768   0.19432

 Mulliken atomic charges:
              1
     1  H    0.192340
     2  C   -0.547115
     3  H    0.183124
     4  H    0.152304
     5  C    0.588030
     6  O   -0.481838
     7  N   -0.622768
     8  H    0.324150
     9  C   -0.055087
    10  H    0.162624
    11  C   -0.449917
    12  H    0.200173
    13  H    0.175506
    14  H    0.128059
    15  C    0.623860
    16  O   -0.520627
    17  N   -0.588118
    18  H    0.332814
    19  C   -0.308115
    20  H    0.199088
    21  H    0.161204
    22  H    0.150307
 Sum of Mulliken atomic charges =   0.00000

 Dipole moment (field-independent basis, Debye):
    X=             -2.3116    Y=             -2.8013    Z=             -4.4049  Tot=              5.7091
 Quadrupole moment (field-independent basis, Debye-Ang):
   XX=            -59.4712   YY=            -57.2495   ZZ=            -61.0776
   XY=             -4.6478   XZ=              4.0373   YZ=             -1.3169

 Normal termination of Gaussian 09 at Sat Feb 11 03:21:07 2017.
