 Gaussian 09, Revision A.02,
 Gaussian 09:  EM64L-G09RevA.02 11-Jun-2009

 ----------------------------------------------------------------------
 # b3lyp/6-31G* Opt=(ModRedundant, maxcycles=1000, calcfc) geom=nocrowd
 ----------------------------------------------------------------------

 ------------------
 Phi Psi fixed scan
 ------------------
 Symbolic Z-matrix:
 Charge =  0 Multiplicity = 1

 SCF Done:  E(RB3LYP) =  -495.824314151     A.U. after   15 cycles

  Exact polarizability:   0.000   0.000   0.000   0.000   0.000   0.000
 Approx polarizability: 113.144  13.873 113.051  -4.055  -1.600 109.734

 SCF Done:  E(RB3LYP) =  -495.832701793     A.U. after   13 cycles
 SCF Done:  E(RB3LYP) =  -495.842528355     A.U. after   13 cycles
 SCF Done:  E(RB3LYP) =  -495.842066407     A.U. after   15 cycles
 SCF Done:  E(RB3LYP) =  -495.843236897     A.U. after   13 cycles
 SCF Done:  E(RB3LYP) =  -495.843873408     A.U. after   12 cycles
 SCF Done:  E(RB3LYP) =  -495.844751433     A.U. after   12 cycles
 SCF Done:  E(RB3LYP) =  -495.842816249     A.U. after   13 cycles
 SCF Done:  E(RB3LYP) =  -495.844959781     A.U. after   13 cycles
 SCF Done:  E(RB3LYP) =  -495.845113929     A.U. after   11 cycles
 SCF Done:  E(RB3LYP) =  -495.845395392     A.U. after   12 cycles
 SCF Done:  E(RB3LYP) =  -495.845402995     A.U. after   11 cycles
 SCF Done:  E(RB3LYP) =  -495.845406583     A.U. after    9 cycles
 SCF Done:  E(RB3LYP) =  -495.845409088     A.U. after    9 cycles
 SCF Done:  E(RB3LYP) =  -495.845411242     A.U. after    8 cycles
 SCF Done:  E(RB3LYP) =  -495.845415098     A.U. after    9 cycles
 SCF Done:  E(RB3LYP) =  -495.845427090     A.U. after   10 cycles
 SCF Done:  E(RB3LYP) =  -495.845440698     A.U. after   12 cycles
 SCF Done:  E(RB3LYP) =  -495.845441024     A.U. after    8 cycles
 SCF Done:  E(RB3LYP) =  -495.845441033     A.U. after    6 cycles
 Optimization completed.
    -- Stationary point found.

                         Standard orientation:
 ---------------------------------------------------------------------
 Center     Atomic      Atomic             Coordinates (Angstroms)
 Number     Number       Type             X           Y           Z
 ---------------------------------------------------------------------
      1          1           0       -3.566568   -1.682439    0.072019
      2          6           0       -3.228191   -0.791512   -0.460476
      3          1           0       -3.962719    0.004203   -0.287679
      4          1           0       -3.196782   -0.998612   -1.535432
      5          6           0       -1.881913   -0.361955    0.106543
      6          8           0       -1.573047   -0.563033    1.276807
      7          7           0       -1.032532    0.234761   -0.789906
      8          1           0       -1.388923    0.355134   -1.727938
      9          6           0        0.116000    1.091174   -0.446241
     10          1           0        0.291059    1.704086   -1.336471
     11          6           0       -0.134791    2.044614    0.732239
     12          1           0       -0.328640    1.490952    1.652049
     13          1           0        0.752617    2.668683    0.863589
     14          1           0       -0.994923    2.689138    0.521584
     15          6           0        1.454750    0.343391   -0.258139
     16          8           0        2.502101    0.981033   -0.281794
     17          7           0        1.385758   -1.007700   -0.113418
     18          1           0        0.482418   -1.395263    0.123963
     19          6           0        2.569083   -1.793137    0.195166
     20          1           0        3.438656   -1.247855   -0.173911
     21          1           0        2.688003   -1.948663    1.275540
     22          1           0        2.511158   -2.768244   -0.298712
 ---------------------------------------------------------------------

 The electronic state is 1-A.
 Alpha  occ. eigenvalues --  -19.12140 -19.10325 -14.37148 -14.35338 -10.29922
 Alpha  occ. eigenvalues --  -10.27785 -10.24037 -10.21121 -10.20237 -10.17723
 Alpha  occ. eigenvalues --   -1.04091  -1.02286  -0.93243  -0.90983  -0.78166
 Alpha  occ. eigenvalues --   -0.73427  -0.70400  -0.64807  -0.58728  -0.56918
 Alpha  occ. eigenvalues --   -0.53181  -0.50631  -0.47150  -0.45620  -0.44571
 Alpha  occ. eigenvalues --   -0.44108  -0.42265  -0.41469  -0.40769  -0.40139
 Alpha  occ. eigenvalues --   -0.38492  -0.38165  -0.36726  -0.35967  -0.34318
 Alpha  occ. eigenvalues --   -0.27937  -0.25858  -0.24873  -0.23298
 Alpha virt. eigenvalues --    0.01205   0.03190   0.05683   0.10589   0.11473
 Alpha virt. eigenvalues --    0.13192   0.14050   0.14537   0.16116   0.16239
 Alpha virt. eigenvalues --    0.17431   0.17784   0.18306   0.18653   0.19156

 Mulliken atomic charges:
              1
     1  H    0.189621
     2  C   -0.541693
     3  H    0.185650
     4  H    0.153195
     5  C    0.585701
     6  O   -0.511772
     7  N   -0.606929
     8  H    0.328322
     9  C   -0.040982
    10  H    0.165304
    11  C   -0.458463
    12  H    0.192688
    13  H    0.177999
    14  H    0.140576
    15  C    0.602819
    16  O   -0.526588
    17  N   -0.584988
    18  H    0.347635
    19  C   -0.309502
    20  H    0.196969
    21  H    0.162240
    22  H    0.152201
 Sum of Mulliken atomic charges =   0.00000

 Dipole moment (field-independent basis, Debye):
    X=             -3.1491    Y=             -1.1815    Z=             -2.6545  Tot=              4.2847
 Quadrupole moment (field-independent basis, Debye-Ang):
   XX=            -61.9285   YY=            -57.0434   ZZ=            -60.4440
   XY=             -7.0666   XZ=              7.2948   YZ=              0.3318

 Normal termination of Gaussian 09 at Sat Feb 11 03:22:39 2017.
