 Gaussian 09, Revision A.02,
 Gaussian 09:  EM64L-G09RevA.02 11-Jun-2009

 ----------------------------------------------------------------------
 # b3lyp/6-31G* Opt=(ModRedundant, maxcycles=1000, calcfc) geom=nocrowd
 ----------------------------------------------------------------------

 ------------------
 Phi Psi fixed scan
 ------------------
 Symbolic Z-matrix:
 Charge =  0 Multiplicity = 1

 SCF Done:  E(RB3LYP) =  -495.822576652     A.U. after   16 cycles

  Exact polarizability:   0.000   0.000   0.000   0.000   0.000   0.000
 Approx polarizability: 115.894 -13.628 111.557  -3.412  -3.513 106.638

 SCF Done:  E(RB3LYP) =  -495.829183942     A.U. after   16 cycles
 SCF Done:  E(RB3LYP) =  -495.837746818     A.U. after   13 cycles
 SCF Done:  E(RB3LYP) =  -495.837617903     A.U. after   16 cycles
 SCF Done:  E(RB3LYP) =  -495.838290248     A.U. after   16 cycles
 SCF Done:  E(RB3LYP) =  -495.838977950     A.U. after   12 cycles
 SCF Done:  E(RB3LYP) =  -495.839887772     A.U. after   13 cycles
 SCF Done:  E(RB3LYP) =  -495.840249176     A.U. after   13 cycles
 SCF Done:  E(RB3LYP) =  -495.840992734     A.U. after   12 cycles
 SCF Done:  E(RB3LYP) =  -495.840913297     A.U. after   14 cycles
 SCF Done:  E(RB3LYP) =  -495.841278375     A.U. after   12 cycles
 SCF Done:  E(RB3LYP) =  -495.841289441     A.U. after   10 cycles
 SCF Done:  E(RB3LYP) =  -495.841320809     A.U. after   12 cycles
 SCF Done:  E(RB3LYP) =  -495.841331454     A.U. after   11 cycles
 SCF Done:  E(RB3LYP) =  -495.841339742     A.U. after   10 cycles
 SCF Done:  E(RB3LYP) =  -495.841360403     A.U. after   11 cycles
 SCF Done:  E(RB3LYP) =  -495.841371556     A.U. after   11 cycles
 SCF Done:  E(RB3LYP) =  -495.841376615     A.U. after   11 cycles
 SCF Done:  E(RB3LYP) =  -495.841377145     A.U. after   10 cycles
 SCF Done:  E(RB3LYP) =  -495.841377193     A.U. after    7 cycles
 Optimization completed.
    -- Stationary point found.

                         Standard orientation:
 ---------------------------------------------------------------------
 Center     Atomic      Atomic             Coordinates (Angstroms)
 Number     Number       Type             X           Y           Z
 ---------------------------------------------------------------------
      1          1           0       -4.069549   -0.866613    0.528714
      2          6           0       -3.168867   -1.148259   -0.019203
      3          1           0       -3.415375   -1.309336   -1.074060
      4          1           0       -2.793674   -2.093146    0.392418
      5          6           0       -2.116540   -0.063792    0.178790
      6          8           0       -2.142209    0.695062    1.137077
      7          7           0       -1.168971   -0.022328   -0.821726
      8          1           0       -1.120850   -0.865364   -1.379984
      9          6           0        0.115036    0.664756   -0.737358
     10          1           0        0.417439    0.847527   -1.779688
     11          6           0        0.064137    2.033152   -0.040459
     12          1           0       -0.062293    1.941348    1.037044
     13          1           0        0.979356    2.597576   -0.258342
     14          1           0       -0.776688    2.614182   -0.427447
     15          6           0        1.179660   -0.316662   -0.173428
     16          8           0        0.909617   -1.492049    0.042740
     17          7           0        2.436036    0.198060   -0.040690
     18          1           0        2.565467    1.192719   -0.153549
     19          6           0        3.554114   -0.587868    0.454482
     20          1           0        3.240878   -1.632372    0.464649
     21          1           0        4.424621   -0.475562   -0.201135
     22          1           0        3.836704   -0.293143    1.472818
 ---------------------------------------------------------------------

 The electronic state is 1-A.
 Alpha  occ. eigenvalues --  -19.11523 -19.10308 -14.36647 -14.35114 -10.28715
 Alpha  occ. eigenvalues --  -10.28081 -10.24100 -10.22123 -10.18618 -10.18221
 Alpha  occ. eigenvalues --   -1.03606  -1.02052  -0.92393  -0.91594  -0.77973
 Alpha  occ. eigenvalues --   -0.72369  -0.70651  -0.65043  -0.59112  -0.55585
 Alpha  occ. eigenvalues --   -0.53146  -0.50199  -0.46710  -0.45480  -0.44650
 Alpha  occ. eigenvalues --   -0.43737  -0.42468  -0.41117  -0.40042  -0.39405
 Alpha  occ. eigenvalues --   -0.38934  -0.37914  -0.37436  -0.35495  -0.34700
 Alpha  occ. eigenvalues --   -0.26033  -0.25715  -0.24876  -0.23438
 Alpha virt. eigenvalues --    0.02411   0.03438   0.06161   0.09096   0.11576
 Alpha virt. eigenvalues --    0.13136   0.14461   0.15518   0.15755   0.16200
 Alpha virt. eigenvalues --    0.16490   0.16681   0.18224   0.19026   0.19263

 Mulliken atomic charges:
              1
     1  H    0.182807
     2  C   -0.548037
     3  H    0.154585
     4  H    0.187130
     5  C    0.591956
     6  O   -0.503506
     7  N   -0.569249
     8  H    0.328651
     9  C   -0.061132
    10  H    0.159351
    11  C   -0.449882
    12  H    0.199956
    13  H    0.120575
    14  H    0.174105
    15  C    0.606244
    16  O   -0.522069
    17  N   -0.591933
    18  H    0.328369
    19  C   -0.310066
    20  H    0.204609
    21  H    0.155808
    22  H    0.161728
 Sum of Mulliken atomic charges =   0.00000

 Dipole moment (field-independent basis, Debye):
    X=              2.7450    Y=              0.9148    Z=             -2.5959  Tot=              3.8872
 Quadrupole moment (field-independent basis, Debye-Ang):
   XX=            -51.7159   YY=            -60.8014   ZZ=            -61.0034
   XY=              8.2379   XZ=              4.9336   YZ=             -0.9318

 Normal termination of Gaussian 09 at Sat Feb 11 03:21:54 2017.
