 Gaussian 09, Revision A.02,
 Gaussian 09:  EM64L-G09RevA.02 11-Jun-2009

 ----------------------------------------------------------------------
 # b3lyp/6-31G* Opt=(ModRedundant, maxcycles=1000, calcfc) geom=nocrowd
 ----------------------------------------------------------------------

 ------------------
 Phi Psi fixed scan
 ------------------
 Symbolic Z-matrix:
 Charge =  0 Multiplicity = 1

 SCF Done:  E(RB3LYP) =  -495.821803338     A.U. after   15 cycles

  Exact polarizability:   0.000   0.000   0.000   0.000   0.000   0.000
 Approx polarizability: 104.905   3.520 116.979   2.369  24.637 113.989

 SCF Done:  E(RB3LYP) =  -495.831351399     A.U. after   13 cycles
 SCF Done:  E(RB3LYP) =  -495.840777829     A.U. after   13 cycles
 SCF Done:  E(RB3LYP) =  -495.842814236     A.U. after   15 cycles
 SCF Done:  E(RB3LYP) =  -495.832001550     A.U. after   16 cycles
 SCF Done:  E(RB3LYP) =  -495.843920206     A.U. after   16 cycles
 SCF Done:  E(RB3LYP) =  -495.844512476     A.U. after   16 cycles
 SCF Done:  E(RB3LYP) =  -495.845229568     A.U. after   12 cycles
 SCF Done:  E(RB3LYP) =  -495.845480777     A.U. after   12 cycles
 SCF Done:  E(RB3LYP) =  -495.845582059     A.U. after   12 cycles
 SCF Done:  E(RB3LYP) =  -495.846150766     A.U. after   12 cycles
 SCF Done:  E(RB3LYP) =  -495.846165511     A.U. after   11 cycles
 SCF Done:  E(RB3LYP) =  -495.846170331     A.U. after   11 cycles
 SCF Done:  E(RB3LYP) =  -495.846172035     A.U. after   10 cycles
 SCF Done:  E(RB3LYP) =  -495.846172900     A.U. after    8 cycles
 SCF Done:  E(RB3LYP) =  -495.846173279     A.U. after    9 cycles
 SCF Done:  E(RB3LYP) =  -495.846173402     A.U. after    7 cycles
 SCF Done:  E(RB3LYP) =  -495.846173411     A.U. after    7 cycles
 SCF Done:  E(RB3LYP) =  -495.846173414     A.U. after    7 cycles
 SCF Done:  E(RB3LYP) =  -495.846173404     A.U. after    7 cycles
 Optimization completed.
    -- Stationary point found.

                         Standard orientation:
 ---------------------------------------------------------------------
 Center     Atomic      Atomic             Coordinates (Angstroms)
 Number     Number       Type             X           Y           Z
 ---------------------------------------------------------------------
      1          1           0       -3.979915   -0.373437   -0.067908
      2          6           0       -3.163541   -0.785454   -0.671729
      3          1           0       -3.266905   -0.413449   -1.695940
      4          1           0       -3.269531   -1.873054   -0.670048
      5          6           0       -1.837747   -0.421763   -0.021229
      6          8           0       -1.450821   -0.977799    1.006790
      7          7           0       -1.108780    0.540742   -0.656553
      8          1           0       -1.478554    0.939892   -1.506664
      9          6           0        0.061870    1.212565   -0.062431
     10          1           0        0.183958    2.125549   -0.652452
     11          6           0       -0.101372    1.623732    1.404090
     12          1           0       -0.247423    0.775460    2.071431
     13          1           0        0.789039    2.177842    1.718750
     14          1           0       -0.968839    2.285525    1.504807
     15          6           0        1.328622    0.401940   -0.424669
     16          8           0        1.979959    0.666951   -1.427754
     17          7           0        1.659995   -0.571291    0.472433
     18          1           0        0.908044   -0.882623    1.079801
     19          6           0        2.739411   -1.505480    0.194172
     20          1           0        3.526973   -0.970480   -0.338664
     21          1           0        3.136221   -1.896646    1.135328
     22          1           0        2.411877   -2.347187   -0.431109
 ---------------------------------------------------------------------

 The electronic state is 1-A.
 Alpha  occ. eigenvalues --  -19.11877 -19.10562 -14.37138 -14.34959 -10.29717
 Alpha  occ. eigenvalues --  -10.27658 -10.23786 -10.20963 -10.19954 -10.18342
 Alpha  occ. eigenvalues --   -1.03805  -1.02279  -0.92889  -0.90937  -0.78243
 Alpha  occ. eigenvalues --   -0.73419  -0.69906  -0.65323  -0.58941  -0.56371
 Alpha  occ. eigenvalues --   -0.52815  -0.50741  -0.46875  -0.45637  -0.44291
 Alpha  occ. eigenvalues --   -0.44056  -0.41921  -0.41628  -0.40741  -0.39977
 Alpha  occ. eigenvalues --   -0.38829  -0.37791  -0.36781  -0.35734  -0.35433
 Alpha  occ. eigenvalues --   -0.27471  -0.25847  -0.24708  -0.23302
 Alpha virt. eigenvalues --    0.01469   0.03065   0.06207   0.10589   0.11439
 Alpha virt. eigenvalues --    0.12723   0.13957   0.15414   0.15921   0.16585
 Alpha virt. eigenvalues --    0.16867   0.17828   0.18370   0.18936   0.20357

 Mulliken atomic charges:
              1
     1  H    0.186444
     2  C   -0.535146
     3  H    0.150090
     4  H    0.189641
     5  C    0.604181
     6  O   -0.527321
     7  N   -0.593991
     8  H    0.333830
     9  C   -0.055227
    10  H    0.163697
    11  C   -0.457303
    12  H    0.187410
    13  H    0.158803
    14  H    0.147733
    15  C    0.597651
    16  O   -0.518264
    17  N   -0.582432
    18  H    0.353334
    19  C   -0.305998
    20  H    0.190932
    21  H    0.153586
    22  H    0.158351
 Sum of Mulliken atomic charges =   0.00000

 Dipole moment (field-independent basis, Debye):
    X=             -2.4508    Y=              0.4393    Z=             -0.0100  Tot=              2.4899
 Quadrupole moment (field-independent basis, Debye-Ang):
   XX=            -57.1076   YY=            -57.3347   ZZ=            -63.1891
   XY=             -6.3290   XZ=             10.4588   YZ=              2.1640

 Normal termination of Gaussian 09 at Sat Feb 11 03:36:00 2017.
