 Gaussian 09, Revision A.02,
 Gaussian 09:  EM64L-G09RevA.02 11-Jun-2009

 ----------------------------------------------------------------------
 # b3lyp/6-31G* Opt=(ModRedundant, maxcycles=1000, calcfc) geom=nocrowd
 ----------------------------------------------------------------------

 ------------------
 Phi Psi fixed scan
 ------------------
 Symbolic Z-matrix:
 Charge =  0 Multiplicity = 1

 SCF Done:  E(RB3LYP) =  -495.827825546     A.U. after   15 cycles

  Exact polarizability:   0.000   0.000   0.000   0.000   0.000   0.000
 Approx polarizability: 111.000  10.403 107.632   8.744  17.941 117.404

 SCF Done:  E(RB3LYP) =  -495.836736447     A.U. after   13 cycles
 SCF Done:  E(RB3LYP) =  -495.846119157     A.U. after   16 cycles
 SCF Done:  E(RB3LYP) =  -495.845658746     A.U. after   15 cycles
 SCF Done:  E(RB3LYP) =  -495.847387443     A.U. after   13 cycles
 SCF Done:  E(RB3LYP) =  -495.847861406     A.U. after   11 cycles
 SCF Done:  E(RB3LYP) =  -495.837849500     A.U. after   13 cycles
 SCF Done:  E(RB3LYP) =  -495.848449197     A.U. after   13 cycles
 SCF Done:  E(RB3LYP) =  -495.848632949     A.U. after   11 cycles
 SCF Done:  E(RB3LYP) =  -495.848382828     A.U. after   12 cycles
 SCF Done:  E(RB3LYP) =  -495.849116492     A.U. after   10 cycles
 SCF Done:  E(RB3LYP) =  -495.849130387     A.U. after   10 cycles
 SCF Done:  E(RB3LYP) =  -495.849146487     A.U. after   10 cycles
 SCF Done:  E(RB3LYP) =  -495.849170129     A.U. after   11 cycles
 SCF Done:  E(RB3LYP) =  -495.849188122     A.U. after   11 cycles
 SCF Done:  E(RB3LYP) =  -495.849190439     A.U. after    8 cycles
 SCF Done:  E(RB3LYP) =  -495.849190587     A.U. after    7 cycles
 SCF Done:  E(RB3LYP) =  -495.849190660     A.U. after    7 cycles
 SCF Done:  E(RB3LYP) =  -495.849190726     A.U. after    7 cycles
 SCF Done:  E(RB3LYP) =  -495.849190746     A.U. after    7 cycles
 Optimization completed.
    -- Stationary point found.

                         Standard orientation:
 ---------------------------------------------------------------------
 Center     Atomic      Atomic             Coordinates (Angstroms)
 Number     Number       Type             X           Y           Z
 ---------------------------------------------------------------------
      1          1           0       -3.407115   -1.739414   -0.560487
      2          6           0       -3.199029   -0.671405   -0.657170
      3          1           0       -3.973485   -0.130579   -0.101101
      4          1           0       -3.264891   -0.382425   -1.710886
      5          6           0       -1.845044   -0.376759   -0.031377
      6          8           0       -1.484868   -0.928826    1.010420
      7          7           0       -1.057303    0.508181   -0.706233
      8          1           0       -1.438224    0.905626   -1.553143
      9          6           0        0.112191    1.213887   -0.143870
     10          1           0        0.253059    2.086368   -0.786470
     11          6           0       -0.073620    1.706213    1.297484
     12          1           0       -0.212806    0.882642    1.997604
     13          1           0        0.813382    2.278055    1.589279
     14          1           0       -0.944787    2.367643    1.361307
     15          6           0        1.415994    0.406960   -0.346565
     16          8           0        2.363017    0.885622   -0.961899
     17          7           0        1.408176   -0.821107    0.236484
     18          1           0        0.549978   -1.118188    0.695781
     19          6           0        2.532357   -1.733739    0.148660
     20          1           0        3.345492   -1.211045   -0.357358
     21          1           0        2.866539   -2.040089    1.146857
     22          1           0        2.274465   -2.633410   -0.424286
 ---------------------------------------------------------------------

 The electronic state is 1-A.
 Alpha  occ. eigenvalues --  -19.12496 -19.10101 -14.37484 -14.34484 -10.30223
 Alpha  occ. eigenvalues --  -10.27417 -10.23877 -10.20708 -10.20353 -10.18395
 Alpha  occ. eigenvalues --   -1.04319  -1.01858  -0.93312  -0.90512  -0.78421
 Alpha  occ. eigenvalues --   -0.73704  -0.69948  -0.65254  -0.58952  -0.56399
 Alpha  occ. eigenvalues --   -0.53059  -0.50822  -0.47049  -0.45816  -0.44193
 Alpha  occ. eigenvalues --   -0.43814  -0.42243  -0.41733  -0.41134  -0.40485
 Alpha  occ. eigenvalues --   -0.38581  -0.37585  -0.36987  -0.35922  -0.35145
 Alpha  occ. eigenvalues --   -0.27884  -0.26324  -0.23923  -0.23295
 Alpha virt. eigenvalues --    0.00895   0.03698   0.05627   0.11333   0.11621
 Alpha virt. eigenvalues --    0.12847   0.14059   0.15833   0.16075   0.16557
 Alpha virt. eigenvalues --    0.17375   0.17528   0.18309   0.18663   0.20089

 Mulliken atomic charges:
              1
     1  H    0.190935
     2  C   -0.535860
     3  H    0.187887
     4  H    0.152505
     5  C    0.604040
     6  O   -0.527033
     7  N   -0.591232
     8  H    0.332286
     9  C   -0.060709
    10  H    0.164683
    11  C   -0.457704
    12  H    0.190112
    13  H    0.164998
    14  H    0.147011
    15  C    0.597447
    16  O   -0.523805
    17  N   -0.596248
    18  H    0.364742
    19  C   -0.309902
    20  H    0.196472
    21  H    0.155446
    22  H    0.153928
 Sum of Mulliken atomic charges =   0.00000

 Dipole moment (field-independent basis, Debye):
    X=             -3.3334    Y=              0.0752    Z=             -0.8422  Tot=              3.4389
 Quadrupole moment (field-independent basis, Debye-Ang):
   XX=            -60.4833   YY=            -57.5641   ZZ=            -61.0691
   XY=             -7.7267   XZ=              9.6571   YZ=              2.0943

 Normal termination of Gaussian 09 at Sat Feb 11 03:22:43 2017.
