 Gaussian 09, Revision A.02,
 Gaussian 09:  EM64L-G09RevA.02 11-Jun-2009

 -------------------------------------------
 # HF/6-31G* Opt=(ModRedundant) geom=nocrowd
 -------------------------------------------

 ------------------
 Phi Psi fixed scan
 ------------------
 Symbolic Z-matrix:
 Charge =  0 Multiplicity = 1

 SCF Done:  E(RHF) =  -492.838270700     A.U. after   15 cycles
 SCF Done:  E(RHF) =  -492.847143115     A.U. after   14 cycles
 SCF Done:  E(RHF) =  -492.848518399     A.U. after   13 cycles
 SCF Done:  E(RHF) =  -492.848962346     A.U. after   13 cycles
 SCF Done:  E(RHF) =  -492.849313043     A.U. after   13 cycles
 SCF Done:  E(RHF) =  -492.849602171     A.U. after   13 cycles
 SCF Done:  E(RHF) =  -492.849881788     A.U. after   12 cycles
 SCF Done:  E(RHF) =  -492.850030671     A.U. after   13 cycles
 SCF Done:  E(RHF) =  -492.850112466     A.U. after   10 cycles
 SCF Done:  E(RHF) =  -492.850408280     A.U. after   14 cycles
 SCF Done:  E(RHF) =  -492.850719115     A.U. after   11 cycles
 SCF Done:  E(RHF) =  -492.850764586     A.U. after   12 cycles
 SCF Done:  E(RHF) =  -492.850787689     A.U. after   11 cycles
 SCF Done:  E(RHF) =  -492.850793019     A.U. after   10 cycles
 SCF Done:  E(RHF) =  -492.850793635     A.U. after    9 cycles
 SCF Done:  E(RHF) =  -492.850793969     A.U. after    9 cycles
 SCF Done:  E(RHF) =  -492.850794131     A.U. after    8 cycles
 SCF Done:  E(RHF) =  -492.850794201     A.U. after    7 cycles
 SCF Done:  E(RHF) =  -492.850794329     A.U. after    8 cycles
 SCF Done:  E(RHF) =  -492.850794350     A.U. after    8 cycles
 Optimization completed.
    -- Stationary point found.

                         Standard orientation:
 ---------------------------------------------------------------------
 Center     Atomic      Atomic             Coordinates (Angstroms)
 Number     Number       Type             X           Y           Z
 ---------------------------------------------------------------------
      1          1           0       -3.129209   -2.030961    0.528635
      2          6           0       -3.013725   -1.126096   -0.049854
      3          1           0       -3.758567   -0.408496    0.280773
      4          1           0       -3.187726   -1.337481   -1.099017
      5          6           0       -1.632736   -0.558442    0.201186
      6          8           0       -1.000564   -0.823213    1.183475
      7          7           0       -1.164584    0.270607   -0.771339
      8          1           0       -1.799051    0.528036   -1.493349
      9          6           0        0.018128    1.116276   -0.633102
     10          1           0        0.326957    1.362545   -1.643576
     11          6           0       -0.284939    2.399729    0.133813
     12          1           0       -0.567005    2.171275    1.153022
     13          1           0        0.584776    3.042867    0.162329
     14          1           0       -1.097942    2.934138   -0.348906
     15          6           0        1.201628    0.366268   -0.001201
     16          8           0        1.797170    0.808682    0.935896
     17          7           0        1.618970   -0.720058   -0.701209
     18          1           0        0.942556   -1.144929   -1.294897
     19          6           0        2.623227   -1.597447   -0.133988
     20          1           0        3.482510   -1.014019    0.160049
     21          1           0        2.253467   -2.130577    0.735647
     22          1           0        2.926183   -2.311721   -0.888968
 ---------------------------------------------------------------------

 The electronic state is 1-A.
 Alpha  occ. eigenvalues --  -20.53283 -20.51623 -15.59770 -15.57142 -11.35801
 Alpha  occ. eigenvalues --  -11.33775 -11.28348 -11.24465 -11.24159 -11.21299
 Alpha  occ. eigenvalues --   -1.40362  -1.38423  -1.24949  -1.21831  -1.05510
 Alpha  occ. eigenvalues --   -0.99649  -0.95143  -0.87357  -0.81069  -0.76715
 Alpha  occ. eigenvalues --   -0.71319  -0.69626  -0.64894  -0.64510  -0.62440
 Alpha  occ. eigenvalues --   -0.61130  -0.60160  -0.58701  -0.57812  -0.56094
 Alpha  occ. eigenvalues --   -0.54084  -0.52665  -0.52295  -0.51648  -0.50822
 Alpha  occ. eigenvalues --   -0.42661  -0.41650  -0.39484  -0.38130
 Alpha virt. eigenvalues --    0.18682   0.19386   0.22479   0.24677   0.26136
 Alpha virt. eigenvalues --    0.28067   0.28630   0.29696   0.31018   0.31697
 Alpha virt. eigenvalues --    0.32713   0.33526   0.33713   0.34854   0.37763

 Mulliken atomic charges:
              1
     1  H    0.218830
     2  C   -0.588914
     3  H    0.201604
     4  H    0.175763
     5  C    0.741108
     6  O   -0.588481
     7  N   -0.817727
     8  H    0.382788
     9  C   -0.054788
    10  H    0.201053
    11  C   -0.463830
    12  H    0.203532
    13  H    0.188018
    14  H    0.144023
    15  C    0.792941
    16  O   -0.603913
    17  N   -0.775006
    18  H    0.378094
    19  C   -0.283577
    20  H    0.202376
    21  H    0.183914
    22  H    0.162193
 Sum of Mulliken atomic charges =   0.00000

 Dipole moment (field-independent basis, Debye):
    X=             -3.5186    Y=             -0.7001    Z=             -5.2158  Tot=              6.3306
 Quadrupole moment (field-independent basis, Debye-Ang):
   XX=            -55.2319   YY=            -57.4496   ZZ=            -63.4368
   XY=             -4.5530   XZ=              0.2116   YZ=             -0.1061

 Normal termination of Gaussian 09 at Thu Feb  9 17:08:30 2017.
