 Gaussian 09, Revision A.02,
 Gaussian 09:  EM64L-G09RevA.02 11-Jun-2009

 -------------------------------------------
 # HF/6-31G* Opt=(ModRedundant) geom=nocrowd
 -------------------------------------------

 ------------------
 Phi Psi fixed scan
 ------------------
 Symbolic Z-matrix:
 Charge =  0 Multiplicity = 1

 SCF Done:  E(RHF) =  -492.756519621     A.U. after   15 cycles
 SCF Done:  E(RHF) =  -492.806386151     A.U. after   13 cycles
 SCF Done:  E(RHF) =  -492.832183000     A.U. after   14 cycles
 SCF Done:  E(RHF) =  -492.843845018     A.U. after   14 cycles
 SCF Done:  E(RHF) =  -492.847730170     A.U. after   13 cycles
 SCF Done:  E(RHF) =  -492.849483713     A.U. after   13 cycles
 SCF Done:  E(RHF) =  -492.850205104     A.U. after   13 cycles
 SCF Done:  E(RHF) =  -492.850544573     A.U. after   13 cycles
 SCF Done:  E(RHF) =  -492.850726647     A.U. after   12 cycles
 SCF Done:  E(RHF) =  -492.850819011     A.U. after   12 cycles
 SCF Done:  E(RHF) =  -492.851547643     A.U. after   12 cycles
 SCF Done:  E(RHF) =  -492.851472406     A.U. after   13 cycles
 SCF Done:  E(RHF) =  -492.851563103     A.U. after   11 cycles
 SCF Done:  E(RHF) =  -492.851622857     A.U. after   11 cycles
 SCF Done:  E(RHF) =  -492.851632834     A.U. after   10 cycles
 SCF Done:  E(RHF) =  -492.851647761     A.U. after   11 cycles
 SCF Done:  E(RHF) =  -492.851659220     A.U. after   11 cycles
 SCF Done:  E(RHF) =  -492.851668160     A.U. after   11 cycles
 SCF Done:  E(RHF) =  -492.851668721     A.U. after    9 cycles
 SCF Done:  E(RHF) =  -492.851668837     A.U. after    8 cycles
 Optimization completed.
    -- Stationary point found.

                         Standard orientation:
 ---------------------------------------------------------------------
 Center     Atomic      Atomic             Coordinates (Angstroms)
 Number     Number       Type             X           Y           Z
 ---------------------------------------------------------------------
      1          1           0       -3.695895   -1.395348    0.076413
      2          6           0       -3.140041   -0.757835   -0.595224
      3          1           0       -3.730773    0.116889   -0.841159
      4          1           0       -2.946417   -1.308270   -1.510941
      5          6           0       -1.819075   -0.402177    0.053579
      6          8           0       -1.335058   -1.108577    0.901663
      7          7           0       -1.267481    0.755309   -0.376703
      8          1           0       -1.743819    1.182560   -1.138376
      9          6           0        0.097994    1.266172   -0.190453
     10          1           0        0.229450    2.004001   -0.965598
     11          6           0        0.235940    1.946825    1.176578
     12          1           0        0.060850    1.240520    1.978323
     13          1           0        1.230636    2.363509    1.292155
     14          1           0       -0.487509    2.749721    1.263316
     15          6           0        1.283481    0.307555   -0.411942
     16          8           0        2.134369    0.642170   -1.197906
     17          7           0        1.381878   -0.796396    0.338182
     18          1           0        0.584021   -1.092694    0.855929
     19          6           0        2.498913   -1.699700    0.170999
     20          1           0        3.434320   -1.177760    0.320867
     21          1           0        2.412991   -2.487955    0.906756
     22          1           0        2.513604   -2.141344   -0.819310
 ---------------------------------------------------------------------

 The electronic state is 1-A.
 Alpha  occ. eigenvalues --  -20.54166 -20.51267 -15.60331 -15.56510 -11.36801
 Alpha  occ. eigenvalues --  -11.33575 -11.28643 -11.24511 -11.24483 -11.22330
 Alpha  occ. eigenvalues --   -1.40892  -1.38065  -1.25236  -1.21806  -1.06153
 Alpha  occ. eigenvalues --   -1.00204  -0.94705  -0.88640  -0.81171  -0.76907
 Alpha  occ. eigenvalues --   -0.72327  -0.70557  -0.65001  -0.63648  -0.62497
 Alpha  occ. eigenvalues --   -0.61669  -0.60589  -0.58444  -0.57932  -0.56853
 Alpha  occ. eigenvalues --   -0.54606  -0.54102  -0.52569  -0.51763  -0.50350
 Alpha  occ. eigenvalues --   -0.44120  -0.42919  -0.38763  -0.37326
 Alpha virt. eigenvalues --    0.18295   0.19664   0.21225   0.25515   0.26229
 Alpha virt. eigenvalues --    0.27881   0.29062   0.30409   0.31500   0.32336
 Alpha virt. eigenvalues --    0.32676   0.33777   0.34329   0.36066   0.37365

 Mulliken atomic charges:
              1
     1  H    0.219671
     2  C   -0.590938
     3  H    0.181204
     4  H    0.204362
     5  C    0.767079
     6  O   -0.637040
     7  N   -0.812998
     8  H    0.390259
     9  C   -0.037729
    10  H    0.221896
    11  C   -0.482525
    12  H    0.191964
    13  H    0.183735
    14  H    0.170372
    15  C    0.744338
    16  O   -0.626405
    17  N   -0.812551
    18  H    0.461405
    19  C   -0.268875
    20  H    0.188975
    21  H    0.168656
    22  H    0.175147
 Sum of Mulliken atomic charges =   0.00000

 Dipole moment (field-independent basis, Debye):
    X=             -3.6946    Y=              0.5435    Z=             -0.4001  Tot=              3.7557
 Quadrupole moment (field-independent basis, Debye-Ang):
   XX=            -59.6091   YY=            -57.9436   ZZ=            -63.3367
   XY=             -6.4659   XZ=             11.0060   YZ=              2.1368

 Normal termination of Gaussian 09 at Thu Feb  9 17:55:10 2017.
