 Gaussian 09, Revision A.02,
 Gaussian 09:  EM64L-G09RevA.02 11-Jun-2009

 -------------------------------------------
 # HF/6-31G* Opt=(ModRedundant) geom=nocrowd
 -------------------------------------------

 ------------------
 Phi Psi fixed scan
 ------------------
 Symbolic Z-matrix:
 Charge =  0 Multiplicity = 1

 SCF Done:  E(RHF) =  -492.832244767     A.U. after   15 cycles
 SCF Done:  E(RHF) =  -492.844444687     A.U. after   14 cycles
 SCF Done:  E(RHF) =  -492.848653804     A.U. after   14 cycles
 SCF Done:  E(RHF) =  -492.849116223     A.U. after   13 cycles
 SCF Done:  E(RHF) =  -492.850431469     A.U. after   13 cycles
 SCF Done:  E(RHF) =  -492.851208949     A.U. after   13 cycles
 SCF Done:  E(RHF) =  -492.851732278     A.U. after   13 cycles
 SCF Done:  E(RHF) =  -492.851977155     A.U. after   12 cycles
 SCF Done:  E(RHF) =  -492.852112757     A.U. after   11 cycles
 SCF Done:  E(RHF) =  -492.852267242     A.U. after   12 cycles
 SCF Done:  E(RHF) =  -492.852557093     A.U. after   12 cycles
 SCF Done:  E(RHF) =  -492.852794151     A.U. after   12 cycles
 SCF Done:  E(RHF) =  -492.852820052     A.U. after   11 cycles
 SCF Done:  E(RHF) =  -492.852842324     A.U. after   11 cycles
 SCF Done:  E(RHF) =  -492.852854437     A.U. after   11 cycles
 SCF Done:  E(RHF) =  -492.852863832     A.U. after   11 cycles
 SCF Done:  E(RHF) =  -492.852864775     A.U. after    9 cycles
 SCF Done:  E(RHF) =  -492.852866026     A.U. after   10 cycles
 SCF Done:  E(RHF) =  -492.852866165     A.U. after    8 cycles
 Optimization completed.
    -- Stationary point found.

                         Standard orientation:
 ---------------------------------------------------------------------
 Center     Atomic      Atomic             Coordinates (Angstroms)
 Number     Number       Type             X           Y           Z
 ---------------------------------------------------------------------
      1          1           0        3.381111   -1.500028   -0.943946
      2          6           0        3.000954   -1.059490   -0.033831
      3          1           0        3.749480   -0.406078    0.399702
      4          1           0        2.786588   -1.854172    0.674398
      5          6           0        1.716916   -0.325549   -0.338769
      6          8           0        1.045417   -0.569503   -1.303281
      7          7           0        1.369306    0.647952    0.551917
      8          1           0        1.825031    0.598513    1.435555
      9          6           0       -0.002144    1.135781    0.592591
     10          1           0       -0.143857    1.554689    1.581882
     11          6           0       -0.218313    2.247060   -0.434014
     12          1           0       -0.065792    1.883767   -1.442798
     13          1           0       -1.213642    2.671128   -0.350395
     14          1           0        0.498131    3.039538   -0.254139
     15          6           0       -0.979627   -0.053069    0.545447
     16          8           0       -0.817491   -0.967287    1.308021
     17          7           0       -2.042232    0.033851   -0.281018
     18          1           0       -1.957663    0.635695   -1.066598
     19          6           0       -2.930555   -1.101981   -0.428247
     20          1           0       -3.273073   -1.420038    0.544880
     21          1           0       -3.784137   -0.798770   -1.020411
     22          1           0       -2.438482   -1.939046   -0.911394
 ---------------------------------------------------------------------

 The electronic state is 1-A.
 Alpha  occ. eigenvalues --  -20.52817 -20.51580 -15.58438 -15.57781 -11.34933
 Alpha  occ. eigenvalues --  -11.33956 -11.28204 -11.24845 -11.23117 -11.22399
 Alpha  occ. eigenvalues --   -1.39944  -1.38281  -1.23750  -1.22635  -1.05412
 Alpha  occ. eigenvalues --   -0.99302  -0.94709  -0.88485  -0.79902  -0.76993
 Alpha  occ. eigenvalues --   -0.71454  -0.69930  -0.64709  -0.63933  -0.61965
 Alpha  occ. eigenvalues --   -0.61381  -0.59778  -0.58052  -0.56753  -0.55861
 Alpha  occ. eigenvalues --   -0.54733  -0.54395  -0.52898  -0.51477  -0.49686
 Alpha  occ. eigenvalues --   -0.42260  -0.41913  -0.39564  -0.38337
 Alpha virt. eigenvalues --    0.18773   0.20348   0.22909   0.24014   0.26356
 Alpha virt. eigenvalues --    0.27641   0.29916   0.30365   0.31099   0.31825
 Alpha virt. eigenvalues --    0.32961   0.33821   0.34617   0.34676   0.38063

 Mulliken atomic charges:
              1
     1  H    0.213204
     2  C   -0.594265
     3  H    0.180106
     4  H    0.210556
     5  C    0.752553
     6  O   -0.613524
     7  N   -0.766950
     8  H    0.385744
     9  C   -0.044782
    10  H    0.208481
    11  C   -0.508904
    12  H    0.199910
    13  H    0.166550
    14  H    0.183514
    15  C    0.784268
    16  O   -0.631442
    17  N   -0.790480
    18  H    0.395088
    19  C   -0.280740
    20  H    0.200215
    21  H    0.165474
    22  H    0.185423
 Sum of Mulliken atomic charges =   0.00000

 Dipole moment (field-independent basis, Debye):
    X=              0.6271    Y=              2.5554    Z=              0.4194  Tot=              2.6645
 Quadrupole moment (field-independent basis, Debye-Ang):
   XX=            -49.5859   YY=            -60.3412   ZZ=            -63.5313
   XY=             -1.7609   XZ=              7.9911   YZ=              2.1854

 Normal termination of Gaussian 09 at Thu Feb  9 17:42:19 2017.
