 Gaussian 09, Revision A.02,
 Gaussian 09:  EM64L-G09RevA.02 11-Jun-2009

 -------------------------------------------
 # HF/6-31G* Opt=(ModRedundant) geom=nocrowd
 -------------------------------------------

 ------------------
 Phi Psi fixed scan
 ------------------
 Symbolic Z-matrix:
 Charge =  0 Multiplicity = 1

 SCF Done:  E(RHF) =  -492.729855134     A.U. after   15 cycles
 SCF Done:  E(RHF) =  -492.804358827     A.U. after   14 cycles
 SCF Done:  E(RHF) =  -492.830393261     A.U. after   14 cycles
 SCF Done:  E(RHF) =  -492.842295647     A.U. after   14 cycles
 SCF Done:  E(RHF) =  -492.846245139     A.U. after   13 cycles
 SCF Done:  E(RHF) =  -492.848099129     A.U. after   13 cycles
 SCF Done:  E(RHF) =  -492.849248118     A.U. after   13 cycles
 SCF Done:  E(RHF) =  -492.849559628     A.U. after   13 cycles
 SCF Done:  E(RHF) =  -492.849648832     A.U. after   13 cycles
 SCF Done:  E(RHF) =  -492.849883733     A.U. after   11 cycles
 SCF Done:  E(RHF) =  -492.850811943     A.U. after   12 cycles
 SCF Done:  E(RHF) =  -492.850878777     A.U. after   12 cycles
 SCF Done:  E(RHF) =  -492.850895661     A.U. after   11 cycles
 SCF Done:  E(RHF) =  -492.850908620     A.U. after   11 cycles
 SCF Done:  E(RHF) =  -492.850918089     A.U. after   11 cycles
 SCF Done:  E(RHF) =  -492.850928071     A.U. after   11 cycles
 SCF Done:  E(RHF) =  -492.850943107     A.U. after   11 cycles
 SCF Done:  E(RHF) =  -492.850947291     A.U. after   11 cycles
 SCF Done:  E(RHF) =  -492.850947425     A.U. after    8 cycles
 SCF Done:  E(RHF) =  -492.850947429     A.U. after    6 cycles
 Optimization completed.
    -- Stationary point found.

                         Standard orientation:
 ---------------------------------------------------------------------
 Center     Atomic      Atomic             Coordinates (Angstroms)
 Number     Number       Type             X           Y           Z
 ---------------------------------------------------------------------
      1          1           0       -3.805122   -1.097781    0.354312
      2          6           0       -3.192374   -0.726650   -0.454632
      3          1           0       -3.692145    0.103932   -0.938513
      4          1           0       -3.069247   -1.525120   -1.179595
      5          6           0       -1.831525   -0.361117    0.099828
      6          8           0       -1.360540   -0.969651    1.029619
      7          7           0       -1.218773    0.668946   -0.516702
      8          1           0       -1.697315    1.032375   -1.308732
      9          6           0        0.136891    1.206742   -0.353172
     10          1           0        0.322131    1.777441   -1.251419
     11          6           0        0.183190    2.160719    0.849481
     12          1           0       -0.020782    1.618512    1.766005
     13          1           0        1.157389    2.624263    0.922606
     14          1           0       -0.569525    2.933022    0.736645
     15          6           0        1.359724    0.274481   -0.276234
     16          8           0        2.428333    0.799543   -0.461015
     17          7           0        1.220715   -1.040407   -0.057595
     18          1           0        0.378226   -1.349936    0.374690
     19          6           0        2.400732   -1.868903    0.079518
     20          1           0        3.037087   -1.752994   -0.785931
     21          1           0        2.977736   -1.612691    0.961727
     22          1           0        2.085800   -2.901566    0.150726
 ---------------------------------------------------------------------

 The electronic state is 1-A.
 Alpha  occ. eigenvalues --  -20.53915 -20.51263 -15.60456 -15.56678 -11.36836
 Alpha  occ. eigenvalues --  -11.33908 -11.28867 -11.24570 -11.24476 -11.21924
 Alpha  occ. eigenvalues --   -1.40818  -1.38304  -1.25381  -1.21901  -1.06070
 Alpha  occ. eigenvalues --   -1.00118  -0.94878  -0.88409  -0.81317  -0.77094
 Alpha  occ. eigenvalues --   -0.72511  -0.70509  -0.64991  -0.63865  -0.62251
 Alpha  occ. eigenvalues --   -0.61564  -0.60563  -0.59164  -0.58073  -0.56312
 Alpha  occ. eigenvalues --   -0.54607  -0.54285  -0.52069  -0.52033  -0.49583
 Alpha  occ. eigenvalues --   -0.43578  -0.42806  -0.39309  -0.37697
 Alpha virt. eigenvalues --    0.17935   0.19528   0.21002   0.25646   0.26542
 Alpha virt. eigenvalues --    0.28386   0.29093   0.31066   0.31551   0.32224
 Alpha virt. eigenvalues --    0.33443   0.33881   0.34684   0.35162   0.38012

 Mulliken atomic charges:
              1
     1  H    0.219305
     2  C   -0.585511
     3  H    0.176345
     4  H    0.205898
     5  C    0.765705
     6  O   -0.642183
     7  N   -0.816292
     8  H    0.390534
     9  C   -0.017361
    10  H    0.214535
    11  C   -0.486684
    12  H    0.189821
    13  H    0.205369
    14  H    0.164351
    15  C    0.749200
    16  O   -0.626750
    17  N   -0.825472
    18  H    0.457431
    19  C   -0.274721
    20  H    0.192897
    21  H    0.176126
    22  H    0.167460
 Sum of Mulliken atomic charges =   0.00000

 Dipole moment (field-independent basis, Debye):
    X=             -4.1560    Y=              0.0195    Z=             -2.0172  Tot=              4.6197
 Quadrupole moment (field-independent basis, Debye-Ang):
   XX=            -62.2919   YY=            -57.8614   ZZ=            -60.9555
   XY=             -7.3292   XZ=              7.7920   YZ=              0.9222

 Normal termination of Gaussian 09 at Thu Feb  9 18:06:41 2017.
