 Gaussian 09, Revision A.02,
 Gaussian 09:  EM64L-G09RevA.02 11-Jun-2009

 -------------------------------------------
 # HF/6-31G* Opt=(ModRedundant) geom=nocrowd
 -------------------------------------------

 ------------------
 Phi Psi fixed scan
 ------------------
 Symbolic Z-matrix:
 Charge =  0 Multiplicity = 1

 SCF Done:  E(RHF) =  -492.832928244     A.U. after   15 cycles
 SCF Done:  E(RHF) =  -492.845013281     A.U. after   14 cycles
 SCF Done:  E(RHF) =  -492.848841098     A.U. after   13 cycles
 SCF Done:  E(RHF) =  -492.849569235     A.U. after   13 cycles
 SCF Done:  E(RHF) =  -492.850428951     A.U. after   13 cycles
 SCF Done:  E(RHF) =  -492.851186797     A.U. after   13 cycles
 SCF Done:  E(RHF) =  -492.851407929     A.U. after   13 cycles
 SCF Done:  E(RHF) =  -492.851782739     A.U. after   12 cycles
 SCF Done:  E(RHF) =  -492.851967431     A.U. after   11 cycles
 SCF Done:  E(RHF) =  -492.852317383     A.U. after   14 cycles
 SCF Done:  E(RHF) =  -492.852513427     A.U. after   13 cycles
 SCF Done:  E(RHF) =  -492.852590013     A.U. after   11 cycles
 SCF Done:  E(RHF) =  -492.852647841     A.U. after   11 cycles
 SCF Done:  E(RHF) =  -492.852661824     A.U. after   11 cycles
 SCF Done:  E(RHF) =  -492.852664947     A.U. after    9 cycles
 SCF Done:  E(RHF) =  -492.852667022     A.U. after   10 cycles
 SCF Done:  E(RHF) =  -492.852667154     A.U. after    8 cycles
 SCF Done:  E(RHF) =  -492.852667200     A.U. after    6 cycles
 SCF Done:  E(RHF) =  -492.852667251     A.U. after    8 cycles
 SCF Done:  E(RHF) =  -492.852667285     A.U. after    8 cycles
 Optimization completed.
    -- Stationary point found.

                         Standard orientation:
 ---------------------------------------------------------------------
 Center     Atomic      Atomic             Coordinates (Angstroms)
 Number     Number       Type             X           Y           Z
 ---------------------------------------------------------------------
      1          1           0        3.343952   -1.614648   -0.835618
      2          6           0        2.984111   -1.093843    0.039705
      3          1           0        3.739188   -0.399927    0.390858
      4          1           0        2.796131   -1.821623    0.823281
      5          6           0        1.686624   -0.397972   -0.300110
      6          8           0        0.986603   -0.749118   -1.211228
      7          7           0        1.363500    0.660477    0.490881
      8          1           0        1.867387    0.735836    1.345624
      9          6           0        0.010596    1.205718    0.510738
     10          1           0       -0.092661    1.712416    1.461245
     11          6           0       -0.182487    2.228223   -0.608352
     12          1           0       -0.003261    1.787448   -1.581471
     13          1           0       -1.182904    2.646621   -0.586813
     14          1           0        0.527428    3.036734   -0.478367
     15          6           0       -1.022277    0.065510    0.587895
     16          8           0       -1.026795   -0.639034    1.561232
     17          7           0       -1.922395   -0.048629   -0.410985
     18          1           0       -1.642011    0.308613   -1.295182
     19          6           0       -2.808359   -1.195170   -0.440089
     20          1           0       -3.326996   -1.273720    0.503454
     21          1           0       -3.534213   -1.051223   -1.229773
     22          1           0       -2.267496   -2.119047   -0.615262
 ---------------------------------------------------------------------

 The electronic state is 1-A.
 Alpha  occ. eigenvalues --  -20.53119 -20.51688 -15.58913 -15.57370 -11.35352
 Alpha  occ. eigenvalues --  -11.33847 -11.28251 -11.24569 -11.23486 -11.22369
 Alpha  occ. eigenvalues --   -1.40128  -1.38376  -1.24095  -1.22369  -1.05555
 Alpha  occ. eigenvalues --   -0.99537  -0.94499  -0.88557  -0.80182  -0.76744
 Alpha  occ. eigenvalues --   -0.71634  -0.69955  -0.64843  -0.63959  -0.62287
 Alpha  occ. eigenvalues --   -0.61407  -0.59831  -0.57957  -0.57004  -0.55994
 Alpha  occ. eigenvalues --   -0.54467  -0.54360  -0.52660  -0.51686  -0.50156
 Alpha  occ. eigenvalues --   -0.42610  -0.42312  -0.39566  -0.37919
 Alpha virt. eigenvalues --    0.18560   0.20002   0.22753   0.24343   0.26115
 Alpha virt. eigenvalues --    0.27698   0.29937   0.30029   0.30929   0.31901
 Alpha virt. eigenvalues --    0.32719   0.34087   0.34290   0.35007   0.38528

 Mulliken atomic charges:
              1
     1  H    0.214560
     2  C   -0.592483
     3  H    0.180649
     4  H    0.208942
     5  C    0.751526
     6  O   -0.618641
     7  N   -0.776744
     8  H    0.388157
     9  C   -0.040169
    10  H    0.210387
    11  C   -0.499142
    12  H    0.190309
    13  H    0.174869
    14  H    0.178253
    15  C    0.766422
    16  O   -0.624693
    17  N   -0.774457
    18  H    0.397005
    19  C   -0.282269
    20  H    0.198757
    21  H    0.165972
    22  H    0.182790
 Sum of Mulliken atomic charges =   0.00000

 Dipole moment (field-independent basis, Debye):
    X=              1.5334    Y=              2.2129    Z=             -0.2130  Tot=              2.7007
 Quadrupole moment (field-independent basis, Debye-Ang):
   XX=            -51.0840   YY=            -59.1895   ZZ=            -64.6446
   XY=             -0.5480   XZ=              8.5762   YZ=              2.0174

 Normal termination of Gaussian 09 at Thu Feb  9 17:44:47 2017.
