 Gaussian 09, Revision A.02,
 Gaussian 09:  EM64L-G09RevA.02 11-Jun-2009

 -------------------------------------------
 # HF/6-31G* Opt=(ModRedundant) geom=nocrowd
 -------------------------------------------

 ------------------
 Phi Psi fixed scan
 ------------------
 Symbolic Z-matrix:
 Charge =  0 Multiplicity = 1

 SCF Done:  E(RHF) =  -492.830102270     A.U. after   15 cycles
 SCF Done:  E(RHF) =  -492.843701007     A.U. after   14 cycles
 SCF Done:  E(RHF) =  -492.847889457     A.U. after   13 cycles
 SCF Done:  E(RHF) =  -492.849112748     A.U. after   13 cycles
 SCF Done:  E(RHF) =  -492.849892152     A.U. after   13 cycles
 SCF Done:  E(RHF) =  -492.850654712     A.U. after   13 cycles
 SCF Done:  E(RHF) =  -492.850851499     A.U. after   13 cycles
 SCF Done:  E(RHF) =  -492.851098833     A.U. after   12 cycles
 SCF Done:  E(RHF) =  -492.851303792     A.U. after   12 cycles
 SCF Done:  E(RHF) =  -492.851643614     A.U. after   13 cycles
 SCF Done:  E(RHF) =  -492.851885270     A.U. after   11 cycles
 SCF Done:  E(RHF) =  -492.851950135     A.U. after   11 cycles
 SCF Done:  E(RHF) =  -492.851956900     A.U. after   11 cycles
 SCF Done:  E(RHF) =  -492.851961275     A.U. after   10 cycles
 SCF Done:  E(RHF) =  -492.851963155     A.U. after    9 cycles
 SCF Done:  E(RHF) =  -492.851963574     A.U. after    9 cycles
 Optimization completed.
    -- Stationary point found.

                         Standard orientation:
 ---------------------------------------------------------------------
 Center     Atomic      Atomic             Coordinates (Angstroms)
 Number     Number       Type             X           Y           Z
 ---------------------------------------------------------------------
      1          1           0        3.377081   -1.694666   -0.581530
      2          6           0        2.992419   -1.082751    0.221167
      3          1           0        3.732421   -0.343622    0.505874
      4          1           0        2.797257   -1.719201    1.078980
      5          6           0        1.694716   -0.447583   -0.224542
      6          8           0        1.025344   -0.913165   -1.108040
      7          7           0        1.345783    0.687581    0.433722
      8          1           0        1.862981    0.888625    1.259583
      9          6           0        0.001346    1.260892    0.388072
     10          1           0       -0.089382    1.863664    1.280249
     11          6           0       -0.166276    2.162967   -0.834586
     12          1           0        0.017975    1.623814   -1.755430
     13          1           0       -1.164493    2.584725   -0.871375
     14          1           0        0.549350    2.975531   -0.780626
     15          6           0       -1.084629    0.182495    0.571387
     16          8           0       -1.305586   -0.227109    1.679565
     17          7           0       -1.783114   -0.210597   -0.514939
     18          1           0       -1.297693   -0.141868   -1.380531
     19          6           0       -2.708114   -1.319690   -0.396393
     20          1           0       -3.404878   -1.125010    0.405015
     21          1           0       -3.256459   -1.411979   -1.324719
     22          1           0       -2.197673   -2.254694   -0.189782
 ---------------------------------------------------------------------

 The electronic state is 1-A.
 Alpha  occ. eigenvalues --  -20.53450 -20.51909 -15.59400 -15.57013 -11.35803
 Alpha  occ. eigenvalues --  -11.33808 -11.28350 -11.24432 -11.23836 -11.22304
 Alpha  occ. eigenvalues --   -1.40350  -1.38524  -1.24469  -1.22154  -1.05719
 Alpha  occ. eigenvalues --   -0.99759  -0.94402  -0.88599  -0.80507  -0.76493
 Alpha  occ. eigenvalues --   -0.71819  -0.70032  -0.64999  -0.63946  -0.62605
 Alpha  occ. eigenvalues --   -0.61528  -0.60017  -0.57972  -0.57248  -0.56182
 Alpha  occ. eigenvalues --   -0.54516  -0.54031  -0.52293  -0.51896  -0.50684
 Alpha  occ. eigenvalues --   -0.43150  -0.42743  -0.39469  -0.37644
 Alpha virt. eigenvalues --    0.18452   0.19518   0.22383   0.24809   0.25877
 Alpha virt. eigenvalues --    0.27723   0.29579   0.30003   0.30973   0.32091
 Alpha virt. eigenvalues --    0.32689   0.34051   0.34119   0.35441   0.38783

 Mulliken atomic charges:
              1
     1  H    0.216176
     2  C   -0.592173
     3  H    0.181404
     4  H    0.207009
     5  C    0.752434
     6  O   -0.622247
     7  N   -0.788239
     8  H    0.389239
     9  C   -0.040542
    10  H    0.214319
    11  C   -0.483900
    12  H    0.183929
    13  H    0.177613
    14  H    0.172939
    15  C    0.748410
    16  O   -0.617007
    17  N   -0.765692
    18  H    0.406381
    19  C   -0.281907
    20  H    0.197019
    21  H    0.167251
    22  H    0.177587
 Sum of Mulliken atomic charges =   0.00000

 Dipole moment (field-independent basis, Debye):
    X=              2.2845    Y=              1.6690    Z=             -0.4501  Tot=              2.8648
 Quadrupole moment (field-independent basis, Debye-Ang):
   XX=            -52.9444   YY=            -58.1795   ZZ=            -65.6634
   XY=              1.0174   XZ=              9.4123   YZ=              1.0084

 Normal termination of Gaussian 09 at Thu Feb  9 17:46:55 2017.
