 Gaussian 09, Revision A.02,
 Gaussian 09:  EM64L-G09RevA.02 11-Jun-2009

 -------------------------------------------
 # HF/6-31G* Opt=(ModRedundant) geom=nocrowd
 -------------------------------------------

 ------------------
 Phi Psi fixed scan
 ------------------
 Symbolic Z-matrix:
 Charge =  0 Multiplicity = 1

 SCF Done:  E(RHF) =  -492.824329348     A.U. after   15 cycles
 SCF Done:  E(RHF) =  -492.838664787     A.U. after   14 cycles
 SCF Done:  E(RHF) =  -492.844992154     A.U. after   14 cycles
 SCF Done:  E(RHF) =  -492.846656859     A.U. after   13 cycles
 SCF Done:  E(RHF) =  -492.847680237     A.U. after   14 cycles
 SCF Done:  E(RHF) =  -492.848868832     A.U. after   13 cycles
 SCF Done:  E(RHF) =  -492.849292455     A.U. after   13 cycles
 SCF Done:  E(RHF) =  -492.849344368     A.U. after   12 cycles
 SCF Done:  E(RHF) =  -492.849417380     A.U. after   12 cycles
 SCF Done:  E(RHF) =  -492.849462879     A.U. after   12 cycles
 SCF Done:  E(RHF) =  -492.849901232     A.U. after   11 cycles
 SCF Done:  E(RHF) =  -492.849193003     A.U. after   14 cycles
 SCF Done:  E(RHF) =  -492.850129956     A.U. after   12 cycles
 SCF Done:  E(RHF) =  -492.850159631     A.U. after   11 cycles
 SCF Done:  E(RHF) =  -492.850164366     A.U. after   11 cycles
 SCF Done:  E(RHF) =  -492.850166624     A.U. after   10 cycles
 SCF Done:  E(RHF) =  -492.850167854     A.U. after    9 cycles
 SCF Done:  E(RHF) =  -492.850168312     A.U. after    8 cycles
 SCF Done:  E(RHF) =  -492.850168545     A.U. after    8 cycles
 SCF Done:  E(RHF) =  -492.850168653     A.U. after    8 cycles
 Optimization completed.
    -- Stationary point found.

                         Standard orientation:
 ---------------------------------------------------------------------
 Center     Atomic      Atomic             Coordinates (Angstroms)
 Number     Number       Type             X           Y           Z
 ---------------------------------------------------------------------
      1          1           0       -3.531582   -1.384263    0.772443
      2          6           0       -3.014466   -1.040508   -0.111327
      3          1           0       -3.697986   -0.486059   -0.745183
      4          1           0       -2.652304   -1.901340   -0.664806
      5          6           0       -1.826851   -0.205572    0.301938
      6          8           0       -1.360103   -0.242701    1.403401
      7          7           0       -1.336896    0.638136   -0.668145
      8          1           0       -1.649779    0.405336   -1.585299
      9          6           0        0.062253    1.028706   -0.627162
     10          1           0        0.319614    1.339769   -1.634555
     11          6           0        0.271424    2.223820    0.308312
     12          1           0        0.125178    1.937551    1.341030
     13          1           0        1.258745    2.659965    0.190496
     14          1           0       -0.451523    2.991260    0.061991
     15          6           0        0.960195   -0.191448   -0.350313
     16          8           0        0.584904   -1.300547   -0.615026
     17          7           0        2.233188    0.068662    0.021604
     18          1           0        2.436783    0.949348    0.430861
     19          6           0        3.148119   -1.019872    0.303245
     20          1           0        3.168335   -1.702233   -0.533371
     21          1           0        4.138779   -0.608847    0.446908
     22          1           0        2.859238   -1.572838    1.190113
 ---------------------------------------------------------------------

 The electronic state is 1-A.
 Alpha  occ. eigenvalues --  -20.52133 -20.52076 -15.58418 -15.57762 -11.34351
 Alpha  occ. eigenvalues --  -11.34213 -11.28368 -11.25453 -11.22437 -11.22412
 Alpha  occ. eigenvalues --   -1.39802  -1.38247  -1.23338  -1.23064  -1.05201
 Alpha  occ. eigenvalues --   -0.98822  -0.95185  -0.88318  -0.79705  -0.77150
 Alpha  occ. eigenvalues --   -0.71181  -0.69646  -0.64810  -0.63742  -0.61741
 Alpha  occ. eigenvalues --   -0.61500  -0.59776  -0.58228  -0.56326  -0.55974
 Alpha  occ. eigenvalues --   -0.55208  -0.54100  -0.53159  -0.51084  -0.49157
 Alpha  occ. eigenvalues --   -0.42500  -0.41351  -0.39247  -0.38930
 Alpha virt. eigenvalues --    0.19237   0.20439   0.22067   0.23485   0.26460
 Alpha virt. eigenvalues --    0.27600   0.29856   0.30933   0.31303   0.32336
 Alpha virt. eigenvalues --    0.33040   0.34283   0.34357   0.35277   0.37086

 Mulliken atomic charges:
              1
     1  H    0.211120
     2  C   -0.599872
     3  H    0.176740
     4  H    0.212819
     5  C    0.760248
     6  O   -0.601206
     7  N   -0.758096
     8  H    0.377335
     9  C   -0.060697
    10  H    0.206904
    11  C   -0.502799
    12  H    0.216687
    13  H    0.145265
    14  H    0.189438
    15  C    0.787690
    16  O   -0.628311
    17  N   -0.800956
    18  H    0.392008
    19  C   -0.276488
    20  H    0.201262
    21  H    0.165895
    22  H    0.185013
 Sum of Mulliken atomic charges =   0.00000

 Dipole moment (field-independent basis, Debye):
    X=              1.2234    Y=              2.5281    Z=             -2.2186  Tot=              3.5791
 Quadrupole moment (field-independent basis, Debye-Ang):
   XX=            -48.4711   YY=            -61.5312   ZZ=            -62.3576
   XY=              3.4288   XZ=              7.2263   YZ=             -0.9301

 Normal termination of Gaussian 09 at Thu Feb  9 17:37:05 2017.
