 Gaussian 09, Revision A.02,
 Gaussian 09:  EM64L-G09RevA.02 11-Jun-2009

 -------------------------------------------
 # HF/6-31G* Opt=(ModRedundant) geom=nocrowd
 -------------------------------------------

 ------------------
 Phi Psi fixed scan
 ------------------
 Symbolic Z-matrix:
 Charge =  0 Multiplicity = 1

 SCF Done:  E(RHF) =  -492.832182287     A.U. after   15 cycles
 SCF Done:  E(RHF) =  -492.842815582     A.U. after   14 cycles
 SCF Done:  E(RHF) =  -492.844516753     A.U. after   13 cycles
 SCF Done:  E(RHF) =  -492.844967670     A.U. after   13 cycles
 SCF Done:  E(RHF) =  -492.845299194     A.U. after   13 cycles
 SCF Done:  E(RHF) =  -492.845569802     A.U. after   14 cycles
 SCF Done:  E(RHF) =  -492.845937718     A.U. after   13 cycles
 SCF Done:  E(RHF) =  -492.846129531     A.U. after   13 cycles
 SCF Done:  E(RHF) =  -492.846231426     A.U. after   11 cycles
 SCF Done:  E(RHF) =  -492.846347481     A.U. after   12 cycles
 SCF Done:  E(RHF) =  -492.846591109     A.U. after   12 cycles
 SCF Done:  E(RHF) =  -492.846853029     A.U. after   13 cycles
 SCF Done:  E(RHF) =  -492.846875422     A.U. after   12 cycles
 SCF Done:  E(RHF) =  -492.846887573     A.U. after   12 cycles
 SCF Done:  E(RHF) =  -492.846889706     A.U. after   11 cycles
 SCF Done:  E(RHF) =  -492.846891601     A.U. after   10 cycles
 SCF Done:  E(RHF) =  -492.846891661     A.U. after    8 cycles
 Optimization completed.
    -- Stationary point found.

                         Standard orientation:
 ---------------------------------------------------------------------
 Center     Atomic      Atomic             Coordinates (Angstroms)
 Number     Number       Type             X           Y           Z
 ---------------------------------------------------------------------
      1          1           0       -3.276761   -1.969030    0.481121
      2          6           0       -3.087612   -1.095928   -0.125804
      3          1           0       -3.813731   -0.330609    0.131784
      4          1           0       -3.214687   -1.344671   -1.173719
      5          6           0       -1.693397   -0.585194    0.174820
      6          8           0       -1.105171   -0.881738    1.173233
      7          7           0       -1.165332    0.224918   -0.785441
      8          1           0       -1.777755    0.499002   -1.520616
      9          6           0        0.018961    1.066132   -0.626777
     10          1           0        0.354815    1.294725   -1.631962
     11          6           0       -0.301606    2.363473    0.109852
     12          1           0       -0.608114    2.151503    1.125065
     13          1           0        0.568057    3.007939    0.149116
     14          1           0       -1.100508    2.891665   -0.402389
     15          6           0        1.179910    0.329343    0.064897
     16          8           0        1.588795    0.650214    1.139788
     17          7           0        1.820685   -0.567522   -0.731811
     18          1           0        1.291824   -0.942340   -1.487882
     19          6           0        2.845615   -1.425963   -0.171711
     20          1           0        3.577726   -0.819066    0.339028
     21          1           0        2.439428   -2.142250    0.534888
     22          1           0        3.332019   -1.957618   -0.979511
 ---------------------------------------------------------------------

 The electronic state is 1-A.
 Alpha  occ. eigenvalues --  -20.52881 -20.51664 -15.59475 -15.57526 -11.35433
 Alpha  occ. eigenvalues --  -11.33836 -11.28394 -11.24701 -11.23851 -11.21387
 Alpha  occ. eigenvalues --   -1.40003  -1.38479  -1.24656  -1.22058  -1.05424
 Alpha  occ. eigenvalues --   -0.99448  -0.95298  -0.87335  -0.80892  -0.76791
 Alpha  occ. eigenvalues --   -0.70970  -0.69362  -0.64975  -0.64292  -0.62441
 Alpha  occ. eigenvalues --   -0.61170  -0.60114  -0.58581  -0.57653  -0.56099
 Alpha  occ. eigenvalues --   -0.54253  -0.52912  -0.52102  -0.51374  -0.50971
 Alpha  occ. eigenvalues --   -0.42497  -0.41251  -0.39323  -0.38275
 Alpha virt. eigenvalues --    0.18574   0.19776   0.22270   0.24111   0.26221
 Alpha virt. eigenvalues --    0.27777   0.28563   0.30007   0.31403   0.31655
 Alpha virt. eigenvalues --    0.32584   0.33563   0.33691   0.34771   0.37859

 Mulliken atomic charges:
              1
     1  H    0.218855
     2  C   -0.590888
     3  H    0.198102
     4  H    0.176323
     5  C    0.740924
     6  O   -0.581255
     7  N   -0.812695
     8  H    0.380130
     9  C   -0.058997
    10  H    0.196054
    11  C   -0.466604
    12  H    0.209869
    13  H    0.180776
    14  H    0.144600
    15  C    0.797359
    16  O   -0.594928
    17  N   -0.779600
    18  H    0.375442
    19  C   -0.283450
    20  H    0.204486
    21  H    0.182088
    22  H    0.163410
 Sum of Mulliken atomic charges =   0.00000

 Dipole moment (field-independent basis, Debye):
    X=             -2.6653    Y=             -0.2761    Z=             -5.7468  Tot=              6.3408
 Quadrupole moment (field-independent basis, Debye-Ang):
   XX=            -53.2461   YY=            -57.9378   ZZ=            -63.7181
   XY=             -4.4128   XZ=             -0.0208   YZ=              0.5466

 Normal termination of Gaussian 09 at Thu Feb  9 17:10:31 2017.
