 Gaussian 09, Revision A.02,
 Gaussian 09:  EM64L-G09RevA.02 11-Jun-2009

 -------------------------------------------
 # HF/6-31G* Opt=(ModRedundant) geom=nocrowd
 -------------------------------------------

 ------------------
 Phi Psi fixed scan
 ------------------
 Symbolic Z-matrix:
 Charge =  0 Multiplicity = 1

 SCF Done:  E(RHF) =  -492.791511022     A.U. after   16 cycles
 SCF Done:  E(RHF) =  -492.828742332     A.U. after   14 cycles
 SCF Done:  E(RHF) =  -492.833310239     A.U. after   14 cycles
 SCF Done:  E(RHF) =  -492.833698261     A.U. after   13 cycles
 SCF Done:  E(RHF) =  -492.834434661     A.U. after   13 cycles
 SCF Done:  E(RHF) =  -492.834908630     A.U. after   13 cycles
 SCF Done:  E(RHF) =  -492.835441639     A.U. after   14 cycles
 SCF Done:  E(RHF) =  -492.835793632     A.U. after   13 cycles
 SCF Done:  E(RHF) =  -492.835998032     A.U. after   13 cycles
 SCF Done:  E(RHF) =  -492.836057698     A.U. after   11 cycles
 SCF Done:  E(RHF) =  -492.836425536     A.U. after    9 cycles
 SCF Done:  E(RHF) =  -492.836439157     A.U. after   12 cycles
 SCF Done:  E(RHF) =  -492.835944878     A.U. after   14 cycles
 SCF Done:  E(RHF) =  -492.836466117     A.U. after   13 cycles
 SCF Done:  E(RHF) =  -492.836472716     A.U. after   12 cycles
 SCF Done:  E(RHF) =  -492.836457162     A.U. after   12 cycles
 SCF Done:  E(RHF) =  -492.836475674     A.U. after   12 cycles
 SCF Done:  E(RHF) =  -492.836476731     A.U. after   10 cycles
 SCF Done:  E(RHF) =  -492.836476928     A.U. after    8 cycles
 SCF Done:  E(RHF) =  -492.836476964     A.U. after    7 cycles
 Optimization completed.
    -- Stationary point found.

                         Standard orientation:
 ---------------------------------------------------------------------
 Center     Atomic      Atomic             Coordinates (Angstroms)
 Number     Number       Type             X           Y           Z
 ---------------------------------------------------------------------
      1          1           0       -3.632059   -1.633980    0.208508
      2          6           0       -2.912128   -1.319823   -0.532279
      3          1           0       -3.431261   -0.904151   -1.390018
      4          1           0       -2.348218   -2.185983   -0.866451
      5          6           0       -1.974721   -0.306340    0.094970
      6          8           0       -1.959733   -0.096678    1.266537
      7          7           0       -1.212054    0.388309   -0.824839
      8          1           0       -1.305614    0.018485   -1.745609
      9          6           0        0.124669    0.940861   -0.602634
     10          1           0        0.502117    1.156883   -1.594689
     11          6           0        0.049019    2.248326    0.190824
     12          1           0       -0.349785    2.053785    1.175953
     13          1           0        1.034707    2.693242    0.293028
     14          1           0       -0.597772    2.950144   -0.322499
     15          6           0        1.106032   -0.000858    0.113340
     16          8           0        0.932050   -0.427414    1.216432
     17          7           0        2.219218   -0.296829   -0.603461
     18          1           0        2.381588    0.165254   -1.466734
     19          6           0        3.302732   -1.058867   -0.019385
     20          1           0        3.810878   -0.502690    0.760672
     21          1           0        2.920036   -1.973130    0.410756
     22          1           0        4.013081   -1.305279   -0.797593
 ---------------------------------------------------------------------

 The electronic state is 1-A.
 Alpha  occ. eigenvalues --  -20.52038 -20.51992 -15.58850 -15.58347 -11.34271
 Alpha  occ. eigenvalues --  -11.34261 -11.28704 -11.25880 -11.22908 -11.21405
 Alpha  occ. eigenvalues --   -1.39494  -1.38432  -1.23815  -1.22888  -1.05284
 Alpha  occ. eigenvalues --   -0.98870  -0.95893  -0.87349  -0.80254  -0.77232
 Alpha  occ. eigenvalues --   -0.70921  -0.69252  -0.65130  -0.63475  -0.62428
 Alpha  occ. eigenvalues --   -0.61579  -0.59873  -0.58704  -0.56312  -0.56164
 Alpha  occ. eigenvalues --   -0.55500  -0.53251  -0.51958  -0.50904  -0.49925
 Alpha  occ. eigenvalues --   -0.43836  -0.41093  -0.39105  -0.37258
 Alpha virt. eigenvalues --    0.18911   0.19394   0.21419   0.23264   0.26098
 Alpha virt. eigenvalues --    0.27904   0.28824   0.30675   0.31244   0.31886
 Alpha virt. eigenvalues --    0.33224   0.33873   0.34373   0.34723   0.37610

 Mulliken atomic charges:
              1
     1  H    0.217818
     2  C   -0.598422
     3  H    0.179511
     4  H    0.188674
     5  C    0.744573
     6  O   -0.551250
     7  N   -0.794986
     8  H    0.369172
     9  C   -0.037145
    10  H    0.170642
    11  C   -0.485797
    12  H    0.236649
    13  H    0.155401
    14  H    0.172922
    15  C    0.761448
    16  O   -0.581983
    17  N   -0.804848
    18  H    0.380767
    19  C   -0.272525
    20  H    0.181447
    21  H    0.203127
    22  H    0.164804
 Sum of Mulliken atomic charges =   0.00000

 Dipole moment (field-independent basis, Debye):
    X=              2.1579    Y=              0.1005    Z=             -6.4972  Tot=              6.8469
 Quadrupole moment (field-independent basis, Debye-Ang):
   XX=            -52.3979   YY=            -58.3212   ZZ=            -63.2593
   XY=              2.8414   XZ=              1.9296   YZ=              1.4717

 Normal termination of Gaussian 09 at Thu Feb  9 17:21:20 2017.
