 Gaussian 09, Revision A.02,
 Gaussian 09:  EM64L-G09RevA.02 11-Jun-2009

 -------------------------------------------
 # HF/6-31G* Opt=(ModRedundant) geom=nocrowd
 -------------------------------------------

 ------------------
 Phi Psi fixed scan
 ------------------
 Symbolic Z-matrix:
 Charge =  0 Multiplicity = 1

 SCF Done:  E(RHF) =  -492.812974669     A.U. after   15 cycles
 SCF Done:  E(RHF) =  -492.833408285     A.U. after   14 cycles
 SCF Done:  E(RHF) =  -492.841210524     A.U. after   15 cycles
 SCF Done:  E(RHF) =  -492.843174128     A.U. after   14 cycles
 SCF Done:  E(RHF) =  -492.844785648     A.U. after   14 cycles
 SCF Done:  E(RHF) =  -492.845972499     A.U. after   13 cycles
 SCF Done:  E(RHF) =  -492.846491349     A.U. after   13 cycles
 SCF Done:  E(RHF) =  -492.846594880     A.U. after   13 cycles
 SCF Done:  E(RHF) =  -492.846735499     A.U. after   12 cycles
 SCF Done:  E(RHF) =  -492.846769157     A.U. after   10 cycles
 SCF Done:  E(RHF) =  -492.846866304     A.U. after   15 cycles
 SCF Done:  E(RHF) =  -492.847316210     A.U. after   13 cycles
 SCF Done:  E(RHF) =  -492.847251659     A.U. after   12 cycles
 SCF Done:  E(RHF) =  -492.847337482     A.U. after   11 cycles
 SCF Done:  E(RHF) =  -492.847333080     A.U. after   11 cycles
 SCF Done:  E(RHF) =  -492.847348592     A.U. after   10 cycles
 SCF Done:  E(RHF) =  -492.847359959     A.U. after   11 cycles
 SCF Done:  E(RHF) =  -492.847361752     A.U. after   10 cycles
 SCF Done:  E(RHF) =  -492.847361820     A.U. after    7 cycles
 SCF Done:  E(RHF) =  -492.847361826     A.U. after    7 cycles
 Optimization completed.
    -- Stationary point found.

                         Standard orientation:
 ---------------------------------------------------------------------
 Center     Atomic      Atomic             Coordinates (Angstroms)
 Number     Number       Type             X           Y           Z
 ---------------------------------------------------------------------
      1          1           0       -3.575971   -1.416904    0.580585
      2          6           0       -2.979779   -1.084939   -0.256544
      3          1           0       -3.613312   -0.587606   -0.983543
      4          1           0       -2.522969   -1.948020   -0.730284
      5          6           0       -1.882221   -0.177840    0.245541
      6          8           0       -1.567628   -0.118777    1.396791
      7          7           0       -1.306227    0.630118   -0.716711
      8          1           0       -1.544856    0.345517   -1.642219
      9          6           0        0.094168    1.002261   -0.607067
     10          1           0        0.406877    1.301034   -1.602093
     11          6           0        0.267967    2.202940    0.332351
     12          1           0        0.041905    1.925482    1.352281
     13          1           0        1.272136    2.613310    0.289393
     14          1           0       -0.416813    2.985331    0.030186
     15          6           0        0.974664   -0.206984   -0.240494
     16          8           0        0.543254   -1.326004   -0.230402
     17          7           0        2.297390    0.051941   -0.117836
     18          1           0        2.590169    0.988288    0.032225
     19          6           0        3.226662   -1.003321    0.233125
     20          1           0        3.095450   -1.840386   -0.436378
     21          1           0        4.234572   -0.623555    0.129321
     22          1           0        3.080907   -1.351350    1.249772
 ---------------------------------------------------------------------

 The electronic state is 1-A.
 Alpha  occ. eigenvalues --  -20.52549 -20.51715 -15.58624 -15.57617 -11.34539
 Alpha  occ. eigenvalues --  -11.33981 -11.28489 -11.25711 -11.22392 -11.22186
 Alpha  occ. eigenvalues --   -1.39923  -1.38119  -1.23443  -1.23012  -1.05143
 Alpha  occ. eigenvalues --   -0.98645  -0.95412  -0.88153  -0.79759  -0.77156
 Alpha  occ. eigenvalues --   -0.71041  -0.69479  -0.64965  -0.63527  -0.61984
 Alpha  occ. eigenvalues --   -0.61590  -0.59638  -0.58255  -0.56226  -0.56148
 Alpha  occ. eigenvalues --   -0.55332  -0.53859  -0.53285  -0.50974  -0.49060
 Alpha  occ. eigenvalues --   -0.43055  -0.41058  -0.39343  -0.38535
 Alpha virt. eigenvalues --    0.19245   0.20528   0.21328   0.23189   0.26341
 Alpha virt. eigenvalues --    0.27612   0.30111   0.31017   0.31624   0.32363
 Alpha virt. eigenvalues --    0.32840   0.34221   0.34405   0.35375   0.37026

 Mulliken atomic charges:
              1
     1  H    0.211015
     2  C   -0.601959
     3  H    0.174640
     4  H    0.211601
     5  C    0.765835
     6  O   -0.593426
     7  N   -0.759034
     8  H    0.372596
     9  C   -0.070129
    10  H    0.202234
    11  C   -0.489239
    12  H    0.222960
    13  H    0.138440
    14  H    0.187878
    15  C    0.778342
    16  O   -0.618600
    17  N   -0.798642
    18  H    0.388078
    19  C   -0.274466
    20  H    0.202156
    21  H    0.166395
    22  H    0.183325
 Sum of Mulliken atomic charges =   0.00000

 Dipole moment (field-independent basis, Debye):
    X=              2.0349    Y=              2.2734    Z=             -3.1441  Tot=              4.3812
 Quadrupole moment (field-independent basis, Debye-Ang):
   XX=            -48.9242   YY=            -61.4512   ZZ=            -62.2277
   XY=              4.1001   XZ=              6.7430   YZ=             -0.1512

 Normal termination of Gaussian 09 at Thu Feb  9 17:33:59 2017.
