 Gaussian 09, Revision A.02,
 Gaussian 09:  EM64L-G09RevA.02 11-Jun-2009

 -------------------------------------------
 # HF/6-31G* Opt=(ModRedundant) geom=nocrowd
 -------------------------------------------

 ------------------
 Phi Psi fixed scan
 ------------------
 Symbolic Z-matrix:
 Charge =  0 Multiplicity = 1

 SCF Done:  E(RHF) =  -492.776890665     A.U. after   16 cycles
 SCF Done:  E(RHF) =  -492.826247129     A.U. after   15 cycles
 SCF Done:  E(RHF) =  -492.827351515     A.U. after   14 cycles
 SCF Done:  E(RHF) =  -492.829046001     A.U. after   14 cycles
 SCF Done:  E(RHF) =  -492.831791407     A.U. after   13 cycles
 SCF Done:  E(RHF) =  -492.834099396     A.U. after   15 cycles
 SCF Done:  E(RHF) =  -492.834816854     A.U. after   13 cycles
 SCF Done:  E(RHF) =  -492.835927794     A.U. after   14 cycles
 SCF Done:  E(RHF) =  -492.836764674     A.U. after   14 cycles
 SCF Done:  E(RHF) =  -492.836877506     A.U. after   12 cycles
 SCF Done:  E(RHF) =  -492.837344178     A.U. after   14 cycles
 SCF Done:  E(RHF) =  -492.837261017     A.U. after   15 cycles
 SCF Done:  E(RHF) =  -492.837327617     A.U. after   11 cycles
 SCF Done:  E(RHF) =  -492.837336932     A.U. after    8 cycles
 SCF Done:  E(RHF) =  -492.837429611     A.U. after   11 cycles
 SCF Done:  E(RHF) =  -492.837454455     A.U. after   11 cycles
 SCF Done:  E(RHF) =  -492.837455456     A.U. after   11 cycles
 SCF Done:  E(RHF) =  -492.837460666     A.U. after   10 cycles
 SCF Done:  E(RHF) =  -492.837460699     A.U. after    8 cycles
 SCF Done:  E(RHF) =  -492.837460714     A.U. after    8 cycles
 Optimization completed.
    -- Stationary point found.

                         Standard orientation:
 ---------------------------------------------------------------------
 Center     Atomic      Atomic             Coordinates (Angstroms)
 Number     Number       Type             X           Y           Z
 ---------------------------------------------------------------------
      1          1           0       -3.598784   -1.627052    0.143571
      2          6           0       -2.861010   -1.291114   -0.569618
      3          1           0       -3.358677   -0.907528   -1.454820
      4          1           0       -2.245088   -2.135029   -0.866258
      5          6           0       -1.991156   -0.236542    0.081494
      6          8           0       -2.026053   -0.015917    1.250524
      7          7           0       -1.226994    0.500840   -0.813795
      8          1           0       -1.307529    0.140531   -1.740630
      9          6           0        0.136523    0.958694   -0.561495
     10          1           0        0.523959    1.238854   -1.533543
     11          6           0        0.141406    2.196507    0.344395
     12          1           0       -0.271488    1.945878    1.311094
     13          1           0        1.151427    2.573442    0.478534
     14          1           0       -0.463177    2.976245   -0.103137
     15          6           0        1.064431   -0.099741    0.052702
     16          8           0        0.743360   -0.836524    0.938352
     17          7           0        2.291259   -0.158432   -0.525880
     18          1           0        2.555760    0.558811   -1.160684
     19          6           0        3.341664   -0.983830    0.033501
     20          1           0        2.960547   -1.977259    0.216775
     21          1           0        4.153952   -1.043283   -0.679021
     22          1           0        3.719648   -0.584764    0.968966
 ---------------------------------------------------------------------

 The electronic state is 1-A.
 Alpha  occ. eigenvalues --  -20.52427 -20.51872 -15.58951 -15.58005 -11.34514
 Alpha  occ. eigenvalues --  -11.34115 -11.28700 -11.25958 -11.22664 -11.21785
 Alpha  occ. eigenvalues --   -1.39755  -1.38330  -1.23782  -1.22926  -1.05272
 Alpha  occ. eigenvalues --   -0.98822  -0.95872  -0.87499  -0.80099  -0.77130
 Alpha  occ. eigenvalues --   -0.70788  -0.69320  -0.65253  -0.63320  -0.62435
 Alpha  occ. eigenvalues --   -0.61722  -0.59749  -0.58689  -0.56485  -0.56103
 Alpha  occ. eigenvalues --   -0.55535  -0.53450  -0.52568  -0.50889  -0.49521
 Alpha  occ. eigenvalues --   -0.44108  -0.40993  -0.39322  -0.37411
 Alpha virt. eigenvalues --    0.18607   0.19672   0.21687   0.23080   0.26122
 Alpha virt. eigenvalues --    0.27985   0.28853   0.30557   0.31330   0.31760
 Alpha virt. eigenvalues --    0.33398   0.33948   0.34299   0.34546   0.37155

 Mulliken atomic charges:
              1
     1  H    0.216298
     2  C   -0.600429
     3  H    0.176853
     4  H    0.194347
     5  C    0.755584
     6  O   -0.557537
     7  N   -0.781884
     8  H    0.366757
     9  C   -0.052967
    10  H    0.175991
    11  C   -0.485134
    12  H    0.234533
    13  H    0.151443
    14  H    0.179258
    15  C    0.755022
    16  O   -0.587534
    17  N   -0.796720
    18  H    0.380005
    19  C   -0.276567
    20  H    0.207325
    21  H    0.167099
    22  H    0.178260
 Sum of Mulliken atomic charges =   0.00000

 Dipole moment (field-independent basis, Debye):
    X=              2.7955    Y=              0.9363    Z=             -5.6415  Tot=              6.3654
 Quadrupole moment (field-independent basis, Debye-Ang):
   XX=            -51.9521   YY=            -59.3279   ZZ=            -62.7554
   XY=              4.3593   XZ=              3.6729   YZ=              1.5613

 Normal termination of Gaussian 09 at Thu Feb  9 17:24:54 2017.
