 Gaussian 09, Revision A.02,
 Gaussian 09:  EM64L-G09RevA.02 11-Jun-2009

 -------------------------------------------
 # HF/6-31G* Opt=(ModRedundant) geom=nocrowd
 -------------------------------------------

 ------------------
 Phi Psi fixed scan
 ------------------
 Symbolic Z-matrix:
 Charge =  0 Multiplicity = 1

 SCF Done:  E(RHF) =  -492.837364894     A.U. after   15 cycles
 SCF Done:  E(RHF) =  -492.847283741     A.U. after   13 cycles
 SCF Done:  E(RHF) =  -492.848474574     A.U. after   13 cycles
 SCF Done:  E(RHF) =  -492.848839203     A.U. after   13 cycles
 SCF Done:  E(RHF) =  -492.849322334     A.U. after   11 cycles
 SCF Done:  E(RHF) =  -492.849414897     A.U. after   12 cycles
 SCF Done:  E(RHF) =  -492.849598757     A.U. after   13 cycles
 SCF Done:  E(RHF) =  -492.849712376     A.U. after   11 cycles
 SCF Done:  E(RHF) =  -492.849896791     A.U. after   13 cycles
 SCF Done:  E(RHF) =  -492.849981844     A.U. after   11 cycles
 SCF Done:  E(RHF) =  -492.850525126     A.U. after   11 cycles
 SCF Done:  E(RHF) =  -492.850530698     A.U. after   10 cycles
 SCF Done:  E(RHF) =  -492.850535504     A.U. after   11 cycles
 SCF Done:  E(RHF) =  -492.850540797     A.U. after   11 cycles
 SCF Done:  E(RHF) =  -492.850543702     A.U. after   10 cycles
 SCF Done:  E(RHF) =  -492.850547691     A.U. after   10 cycles
 SCF Done:  E(RHF) =  -492.850551287     A.U. after    9 cycles
 SCF Done:  E(RHF) =  -492.850552239     A.U. after   10 cycles
 SCF Done:  E(RHF) =  -492.850552704     A.U. after    9 cycles
 SCF Done:  E(RHF) =  -492.850552934     A.U. after    9 cycles
 Optimization completed.
    -- Stationary point found.

                         Standard orientation:
 ---------------------------------------------------------------------
 Center     Atomic      Atomic             Coordinates (Angstroms)
 Number     Number       Type             X           Y           Z
 ---------------------------------------------------------------------
      1          1           0       -3.228923   -1.912728    0.313291
      2          6           0       -3.090293   -0.943361   -0.143186
      3          1           0       -3.821106   -0.259916    0.277680
      4          1           0       -3.265224   -1.013621   -1.210813
      5          6           0       -1.700911   -0.440659    0.190238
      6          8           0       -1.114121   -0.801705    1.173687
      7          7           0       -1.189511    0.461336   -0.681968
      8          1           0       -1.746985    0.708945   -1.466579
      9          6           0        0.085019    1.160720   -0.551335
     10          1           0        0.331972    1.498992   -1.552712
     11          6           0       -0.051440    2.380170    0.361758
     12          1           0       -0.291993    2.066664    1.370300
     13          1           0        0.869520    2.943465    0.388275
     14          1           0       -0.849326    3.019395   -0.002477
     15          6           0        1.297931    0.313266   -0.132910
     16          8           0        2.236287    0.857265    0.379749
     17          7           0        1.319028   -0.987970   -0.495631
     18          1           0        0.443034   -1.431357   -0.632168
     19          6           0        2.399799   -1.837536   -0.037436
     20          1           0        3.347287   -1.387573   -0.292482
     21          1           0        2.367276   -1.990694    1.036028
     22          1           0        2.319885   -2.795206   -0.535415
 ---------------------------------------------------------------------

 The electronic state is 1-A.
 Alpha  occ. eigenvalues --  -20.53483 -20.51732 -15.60057 -15.57116 -11.36166
 Alpha  occ. eigenvalues --  -11.34038 -11.28644 -11.24493 -11.24443 -11.21176
 Alpha  occ. eigenvalues --   -1.40541  -1.38641  -1.25169  -1.21953  -1.05687
 Alpha  occ. eigenvalues --   -0.99816  -0.95065  -0.87736  -0.81209  -0.77196
 Alpha  occ. eigenvalues --   -0.72083  -0.70011  -0.64967  -0.64455  -0.62420
 Alpha  occ. eigenvalues --   -0.61385  -0.60257  -0.58968  -0.57954  -0.55915
 Alpha  occ. eigenvalues --   -0.54339  -0.53170  -0.52210  -0.51844  -0.50227
 Alpha  occ. eigenvalues --   -0.43046  -0.42311  -0.39669  -0.37859
 Alpha virt. eigenvalues --    0.18565   0.18896   0.21781   0.25569   0.25935
 Alpha virt. eigenvalues --    0.28723   0.29299   0.29745   0.30354   0.31892
 Alpha virt. eigenvalues --    0.33123   0.33447   0.34108   0.34871   0.37314

 Mulliken atomic charges:
              1
     1  H    0.216640
     2  C   -0.584878
     3  H    0.207042
     4  H    0.173070
     5  C    0.729643
     6  O   -0.603630
     7  N   -0.823151
     8  H    0.388199
     9  C   -0.034614
    10  H    0.207396
    11  C   -0.468872
    12  H    0.193706
    13  H    0.203595
    14  H    0.149164
    15  C    0.784253
    16  O   -0.617367
    17  N   -0.775507
    18  H    0.391560
    19  C   -0.281577
    20  H    0.199331
    21  H    0.183001
    22  H    0.162997
 Sum of Mulliken atomic charges =   0.00000

 Dipole moment (field-independent basis, Debye):
    X=             -4.1846    Y=             -0.7369    Z=             -4.0806  Tot=              5.8911
 Quadrupole moment (field-independent basis, Debye-Ang):
   XX=            -59.2666   YY=            -57.1554   ZZ=            -62.2304
   XY=             -5.6143   XZ=              2.4176   YZ=             -0.2183

 Normal termination of Gaussian 09 at Thu Feb  9 17:03:43 2017.
