 Gaussian 09, Revision A.02,
 Gaussian 09:  EM64L-G09RevA.02 11-Jun-2009

 -------------------------------------------
 # HF/6-31G* Opt=(ModRedundant) geom=nocrowd
 -------------------------------------------

 ------------------
 Phi Psi fixed scan
 ------------------
 Symbolic Z-matrix:
 Charge =  0 Multiplicity = 1

 SCF Done:  E(RHF) =  -492.794708346     A.U. after   16 cycles
 SCF Done:  E(RHF) =  -492.829078465     A.U. after   15 cycles
 SCF Done:  E(RHF) =  -492.835753290     A.U. after   14 cycles
 SCF Done:  E(RHF) =  -492.839141933     A.U. after   15 cycles
 SCF Done:  E(RHF) =  -492.840806895     A.U. after   15 cycles
 SCF Done:  E(RHF) =  -492.842458577     A.U. after   13 cycles
 SCF Done:  E(RHF) =  -492.842920802     A.U. after   13 cycles
 SCF Done:  E(RHF) =  -492.843326249     A.U. after   13 cycles
 SCF Done:  E(RHF) =  -492.843436518     A.U. after   11 cycles
 SCF Done:  E(RHF) =  -492.843482404     A.U. after   11 cycles
 SCF Done:  E(RHF) =  -492.843620331     A.U. after   11 cycles
 SCF Done:  E(RHF) =  -492.843782863     A.U. after   11 cycles
 SCF Done:  E(RHF) =  -492.843904004     A.U. after   12 cycles
 SCF Done:  E(RHF) =  -492.843922046     A.U. after   11 cycles
 SCF Done:  E(RHF) =  -492.843950532     A.U. after   12 cycles
 SCF Done:  E(RHF) =  -492.843954339     A.U. after   11 cycles
 SCF Done:  E(RHF) =  -492.843955739     A.U. after    9 cycles
 SCF Done:  E(RHF) =  -492.843956098     A.U. after    9 cycles
 SCF Done:  E(RHF) =  -492.843956325     A.U. after    8 cycles
 SCF Done:  E(RHF) =  -492.843956457     A.U. after    9 cycles
 Optimization completed.
    -- Stationary point found.

                         Standard orientation:
 ---------------------------------------------------------------------
 Center     Atomic      Atomic             Coordinates (Angstroms)
 Number     Number       Type             X           Y           Z
 ---------------------------------------------------------------------
      1          1           0       -3.589831   -1.487764    0.377806
      2          6           0       -2.922181   -1.153663   -0.402467
      3          1           0       -3.496760   -0.715930   -1.212552
      4          1           0       -2.374875   -2.006711   -0.790789
      5          6           0       -1.934403   -0.169779    0.179194
      6          8           0       -1.783073   -0.027274    1.353981
      7          7           0       -1.274754    0.614177   -0.757101
      8          1           0       -1.445043    0.296804   -1.687586
      9          6           0        0.120314    0.984520   -0.580227
     10          1           0        0.476626    1.286504   -1.558747
     11          6           0        0.252676    2.180175    0.374446
     12          1           0       -0.079997    1.907190    1.365770
     13          1           0        1.275671    2.538826    0.432720
     14          1           0       -0.368276    2.991200    0.014566
     15          6           0        0.997036   -0.199512   -0.136453
     16          8           0        0.549809   -1.269039    0.165662
     17          7           0        2.329952    0.011086   -0.267709
     18          1           0        2.655672    0.942185   -0.386963
     19          6           0        3.288598   -0.982379    0.171986
     20          1           0        3.019969   -1.946522   -0.232890
     21          1           0        4.267513   -0.705472   -0.196778
     22          1           0        3.326820   -1.062812    1.253097
 ---------------------------------------------------------------------

 The electronic state is 1-A.
 Alpha  occ. eigenvalues --  -20.52823 -20.51562 -15.58809 -15.57621 -11.34673
 Alpha  occ. eigenvalues --  -11.33913 -11.28583 -11.25901 -11.22257 -11.22168
 Alpha  occ. eigenvalues --   -1.40034  -1.38062  -1.23632  -1.22940  -1.05160
 Alpha  occ. eigenvalues --   -0.98612  -0.95618  -0.87927  -0.79843  -0.77136
 Alpha  occ. eigenvalues --   -0.70892  -0.69395  -0.65114  -0.63356  -0.62216
 Alpha  occ. eigenvalues --   -0.61753  -0.59519  -0.58385  -0.56432  -0.56034
 Alpha  occ. eigenvalues --   -0.55447  -0.53628  -0.53384  -0.50951  -0.49069
 Alpha  occ. eigenvalues --   -0.43661  -0.40871  -0.39378  -0.38113
 Alpha virt. eigenvalues --    0.18894   0.20559   0.21154   0.22884   0.26270
 Alpha virt. eigenvalues --    0.27627   0.30117   0.30765   0.31788   0.32159
 Alpha virt. eigenvalues --    0.33129   0.33988   0.34428   0.35175   0.37078

 Mulliken atomic charges:
              1
     1  H    0.212046
     2  C   -0.603119
     3  H    0.173471
     4  H    0.207945
     5  C    0.769074
     6  O   -0.582872
     7  N   -0.763625
     8  H    0.368774
     9  C   -0.073987
    10  H    0.194144
    11  C   -0.482673
    12  H    0.228050
    13  H    0.140271
    14  H    0.185053
    15  C    0.766710
    16  O   -0.606132
    17  N   -0.794125
    18  H    0.383085
    19  C   -0.275191
    20  H    0.205405
    21  H    0.167501
    22  H    0.180195
 Sum of Mulliken atomic charges =   0.00000

 Dipole moment (field-independent basis, Debye):
    X=              2.6479    Y=              1.9140    Z=             -3.9832  Tot=              5.1518
 Quadrupole moment (field-independent basis, Debye-Ang):
   XX=            -49.9968   YY=            -61.0769   ZZ=            -62.1888
   XY=              4.6095   XZ=              6.1210   YZ=              0.5461

 Normal termination of Gaussian 09 at Thu Feb  9 17:30:38 2017.
