 Gaussian 09, Revision A.02,
 Gaussian 09:  EM64L-G09RevA.02 11-Jun-2009

 -------------------------------------------
 # HF/6-31G* Opt=(ModRedundant) geom=nocrowd
 -------------------------------------------

 ------------------
 Phi Psi fixed scan
 ------------------
 Symbolic Z-matrix:
 Charge =  0 Multiplicity = 1

 SCF Done:  E(RHF) =  -492.823287872     A.U. after   15 cycles
 SCF Done:  E(RHF) =  -492.843063028     A.U. after   14 cycles
 SCF Done:  E(RHF) =  -492.846645336     A.U. after   13 cycles
 SCF Done:  E(RHF) =  -492.846991893     A.U. after   13 cycles
 SCF Done:  E(RHF) =  -492.847682015     A.U. after   12 cycles
 SCF Done:  E(RHF) =  -492.848125558     A.U. after   13 cycles
 SCF Done:  E(RHF) =  -492.848089567     A.U. after   14 cycles
 SCF Done:  E(RHF) =  -492.848764015     A.U. after   13 cycles
 SCF Done:  E(RHF) =  -492.848968059     A.U. after   12 cycles
 SCF Done:  E(RHF) =  -492.849147203     A.U. after   12 cycles
 SCF Done:  E(RHF) =  -492.849877982     A.U. after   10 cycles
 SCF Done:  E(RHF) =  -492.849905813     A.U. after   12 cycles
 SCF Done:  E(RHF) =  -492.849894120     A.U. after   11 cycles
 SCF Done:  E(RHF) =  -492.849910797     A.U. after   11 cycles
 SCF Done:  E(RHF) =  -492.849905159     A.U. after   11 cycles
 SCF Done:  E(RHF) =  -492.849919402     A.U. after   11 cycles
 SCF Done:  E(RHF) =  -492.849922985     A.U. after   10 cycles
 SCF Done:  E(RHF) =  -492.849922229     A.U. after    9 cycles
 SCF Done:  E(RHF) =  -492.849923095     A.U. after    9 cycles
 SCF Done:  E(RHF) =  -492.849923099     A.U. after    8 cycles
 Optimization completed.
    -- Stationary point found.

                         Standard orientation:
 ---------------------------------------------------------------------
 Center     Atomic      Atomic             Coordinates (Angstroms)
 Number     Number       Type             X           Y           Z
 ---------------------------------------------------------------------
      1          1           0       -3.336789   -1.858701    0.027217
      2          6           0       -3.179481   -0.824259   -0.243013
      3          1           0       -3.875501   -0.216586    0.326247
      4          1           0       -3.387189   -0.687487   -1.297720
      5          6           0       -1.768539   -0.430610    0.141255
      6          8           0       -1.218950   -0.922559    1.093831
      7          7           0       -1.203051    0.519586   -0.631272
      8          1           0       -1.732705    0.832222   -1.411840
      9          6           0        0.101559    1.161745   -0.475245
     10          1           0        0.334604    1.569316   -1.452182
     11          6           0        0.007786    2.315993    0.528327
     12          1           0       -0.237049    1.934289    1.513007
     13          1           0        0.945523    2.848162    0.584604
     14          1           0       -0.774621    3.003221    0.223690
     15          6           0        1.335458    0.297634   -0.158744
     16          8           0        2.357194    0.878268    0.091330
     17          7           0        1.279814   -1.040945   -0.324451
     18          1           0        0.408988   -1.469609   -0.112356
     19          6           0        2.458535   -1.828048   -0.016939
     20          1           0        3.298172   -1.467084   -0.592028
     21          1           0        2.719306   -1.781699    1.035135
     22          1           0        2.262060   -2.856931   -0.288848
 ---------------------------------------------------------------------

 The electronic state is 1-A.
 Alpha  occ. eigenvalues --  -20.53641 -20.51806 -15.60260 -15.56822 -11.36507
 Alpha  occ. eigenvalues --  -11.34140 -11.28855 -11.24521 -11.24386 -11.21476
 Alpha  occ. eigenvalues --   -1.40671  -1.38745  -1.25296  -1.21892  -1.05869
 Alpha  occ. eigenvalues --   -0.99957  -0.94868  -0.88068  -0.81360  -0.76892
 Alpha  occ. eigenvalues --   -0.72301  -0.70257  -0.64960  -0.64360  -0.62473
 Alpha  occ. eigenvalues --   -0.61433  -0.60419  -0.59008  -0.58079  -0.55973
 Alpha  occ. eigenvalues --   -0.54451  -0.53675  -0.52158  -0.51808  -0.49928
 Alpha  occ. eigenvalues --   -0.43305  -0.42489  -0.39840  -0.37901
 Alpha virt. eigenvalues --    0.18460   0.18614   0.21636   0.25864   0.26175
 Alpha virt. eigenvalues --    0.28698   0.29236   0.30326   0.31191   0.31886
 Alpha virt. eigenvalues --    0.33472   0.33533   0.34195   0.34990   0.37756

 Mulliken atomic charges:
              1
     1  H    0.215202
     2  C   -0.580862
     3  H    0.209160
     4  H    0.172879
     5  C    0.744814
     6  O   -0.626848
     7  N   -0.817250
     8  H    0.389435
     9  C   -0.023996
    10  H    0.211677
    11  C   -0.477937
    12  H    0.188688
    13  H    0.210114
    14  H    0.153768
    15  C    0.767263
    16  O   -0.617055
    17  N   -0.794964
    18  H    0.419411
    19  C   -0.282098
    20  H    0.194922
    21  H    0.178289
    22  H    0.165388
 Sum of Mulliken atomic charges =   0.00000

 Dipole moment (field-independent basis, Debye):
    X=             -4.2409    Y=             -0.2912    Z=             -3.1517  Tot=              5.2919
 Quadrupole moment (field-independent basis, Debye-Ang):
   XX=            -60.1706   YY=            -57.8640   ZZ=            -61.5748
   XY=             -6.7375   XZ=              3.9667   YZ=             -0.1266

 Normal termination of Gaussian 09 at Thu Feb  9 17:00:54 2017.
