 Gaussian 09, Revision A.02,
 Gaussian 09:  EM64L-G09RevA.02 11-Jun-2009

 -------------------------------------------
 # HF/6-31G* Opt=(ModRedundant) geom=nocrowd
 -------------------------------------------

 ------------------
 Phi Psi fixed scan
 ------------------
 Symbolic Z-matrix:
 Charge =  0 Multiplicity = 1

 SCF Done:  E(RHF) =  -492.823502816     A.U. after   15 cycles
 SCF Done:  E(RHF) =  -492.840670875     A.U. after   15 cycles
 SCF Done:  E(RHF) =  -492.846360136     A.U. after   13 cycles
 SCF Done:  E(RHF) =  -492.848746324     A.U. after   13 cycles
 SCF Done:  E(RHF) =  -492.849511918     A.U. after   14 cycles
 SCF Done:  E(RHF) =  -492.850195882     A.U. after   12 cycles
 SCF Done:  E(RHF) =  -492.850363565     A.U. after   13 cycles
 SCF Done:  E(RHF) =  -492.850686425     A.U. after   13 cycles
 SCF Done:  E(RHF) =  -492.850843766     A.U. after   11 cycles
 SCF Done:  E(RHF) =  -492.851107862     A.U. after   13 cycles
 SCF Done:  E(RHF) =  -492.851429456     A.U. after   12 cycles
 SCF Done:  E(RHF) =  -492.851591109     A.U. after   12 cycles
 SCF Done:  E(RHF) =  -492.851605131     A.U. after   11 cycles
 SCF Done:  E(RHF) =  -492.851615375     A.U. after   11 cycles
 SCF Done:  E(RHF) =  -492.851619639     A.U. after   10 cycles
 SCF Done:  E(RHF) =  -492.851620741     A.U. after    9 cycles
 SCF Done:  E(RHF) =  -492.851620896     A.U. after    8 cycles
 Optimization completed.
    -- Stationary point found.

                         Standard orientation:
 ---------------------------------------------------------------------
 Center     Atomic      Atomic             Coordinates (Angstroms)
 Number     Number       Type             X           Y           Z
 ---------------------------------------------------------------------
      1          1           0        3.467891   -1.674375   -0.284257
      2          6           0        3.030267   -0.991560    0.428975
      3          1           0        3.734573   -0.199884    0.657530
      4          1           0        2.819143   -1.535135    1.344950
      5          6           0        1.734147   -0.455718   -0.138218
      6          8           0        1.133878   -1.037179   -1.003665
      7          7           0        1.320601    0.725217    0.385126
      8          1           0        1.824132    1.038162    1.184218
      9          6           0       -0.028382    1.285987    0.262870
     10          1           0       -0.127012    1.974427    1.088293
     11          6           0       -0.181312    2.056577   -1.049412
     12          1           0       -0.008431    1.418834   -1.906676
     13          1           0       -1.175681    2.481480   -1.131676
     14          1           0        0.542759    2.863037   -1.081048
     15          6           0       -1.156579    0.265818    0.517083
     16          8           0       -1.618492    0.181100    1.624489
     17          7           0       -1.632736   -0.432181   -0.534069
     18          1           0       -0.983306   -0.593269   -1.271386
     19          6           0       -2.626146   -1.462443   -0.311210
     20          1           0       -3.468391   -1.046668    0.221716
     21          1           0       -2.963309   -1.828115   -1.272112
     22          1           0       -2.232480   -2.293087    0.265928
 ---------------------------------------------------------------------

 The electronic state is 1-A.
 Alpha  occ. eigenvalues --  -20.53819 -20.51950 -15.59829 -15.56732 -11.36251
 Alpha  occ. eigenvalues --  -11.33757 -11.28456 -11.24413 -11.24143 -11.22256
 Alpha  occ. eigenvalues --   -1.40610  -1.38530  -1.24814  -1.21986  -1.05896
 Alpha  occ. eigenvalues --   -0.99967  -0.94425  -0.88613  -0.80802  -0.76418
 Alpha  occ. eigenvalues --   -0.71999  -0.70241  -0.65073  -0.63826  -0.62817
 Alpha  occ. eigenvalues --   -0.61640  -0.60286  -0.58061  -0.57492  -0.56445
 Alpha  occ. eigenvalues --   -0.54542  -0.53852  -0.52275  -0.51712  -0.51092
 Alpha  occ. eigenvalues --   -0.43706  -0.42989  -0.39286  -0.37488
 Alpha virt. eigenvalues --    0.18512   0.19131   0.21915   0.25298   0.25827
 Alpha virt. eigenvalues --    0.27753   0.29332   0.30102   0.31157   0.32293
 Alpha virt. eigenvalues --    0.32697   0.33870   0.34055   0.35786   0.38131

 Mulliken atomic charges:
              1
     1  H    0.217920
     2  C   -0.592547
     3  H    0.182516
     4  H    0.205033
     5  C    0.756206
     6  O   -0.626245
     7  N   -0.799015
     8  H    0.389547
     9  C   -0.042958
    10  H    0.218886
    11  C   -0.474946
    12  H    0.184785
    13  H    0.176829
    14  H    0.169792
    15  C    0.739269
    16  O   -0.614982
    17  N   -0.772822
    18  H    0.425489
    19  C   -0.279505
    20  H    0.195504
    21  H    0.168498
    22  H    0.172746
 Sum of Mulliken atomic charges =   0.00000

 Dipole moment (field-independent basis, Debye):
    X=              2.8660    Y=              1.1362    Z=             -0.3132  Tot=              3.0989
 Quadrupole moment (field-independent basis, Debye-Ang):
   XX=            -55.1101   YY=            -57.7310   ZZ=            -65.7982
   XY=              2.9552   XZ=             10.3630   YZ=             -0.5406

 Normal termination of Gaussian 09 at Thu Feb  9 17:49:13 2017.
