 Gaussian 09, Revision A.02,
 Gaussian 09:  EM64L-G09RevA.02 11-Jun-2009

 -------------------------------------------
 # HF/6-31G* Opt=(ModRedundant) geom=nocrowd
 -------------------------------------------

 ------------------
 Phi Psi fixed scan
 ------------------
 Symbolic Z-matrix:
 Charge =  0 Multiplicity = 1

 SCF Done:  E(RHF) =  -492.840726667     A.U. after   15 cycles
 SCF Done:  E(RHF) =  -492.849090522     A.U. after   14 cycles
 SCF Done:  E(RHF) =  -492.850163951     A.U. after   13 cycles
 SCF Done:  E(RHF) =  -492.850372727     A.U. after   13 cycles
 SCF Done:  E(RHF) =  -492.850667909     A.U. after   12 cycles
 SCF Done:  E(RHF) =  -492.850896186     A.U. after   13 cycles
 SCF Done:  E(RHF) =  -492.851041393     A.U. after   13 cycles
 SCF Done:  E(RHF) =  -492.851178930     A.U. after   12 cycles
 SCF Done:  E(RHF) =  -492.851285168     A.U. after   11 cycles
 SCF Done:  E(RHF) =  -492.851403877     A.U. after   11 cycles
 SCF Done:  E(RHF) =  -492.851625205     A.U. after   12 cycles
 SCF Done:  E(RHF) =  -492.851923893     A.U. after   13 cycles
 SCF Done:  E(RHF) =  -492.851937936     A.U. after   11 cycles
 SCF Done:  E(RHF) =  -492.851940829     A.U. after   11 cycles
 SCF Done:  E(RHF) =  -492.851942890     A.U. after   10 cycles
 SCF Done:  E(RHF) =  -492.851947390     A.U. after   11 cycles
 SCF Done:  E(RHF) =  -492.851950235     A.U. after   10 cycles
 SCF Done:  E(RHF) =  -492.851951051     A.U. after   10 cycles
 Optimization completed.
    -- Stationary point found.

                         Standard orientation:
 ---------------------------------------------------------------------
 Center     Atomic      Atomic             Coordinates (Angstroms)
 Number     Number       Type             X           Y           Z
 ---------------------------------------------------------------------
      1          1           0       -3.104139   -2.006502    0.459801
      2          6           0       -3.011804   -1.063704   -0.059607
      3          1           0       -3.760981   -0.382715    0.332312
      4          1           0       -3.202747   -1.208130   -1.117039
      5          6           0       -1.636885   -0.489837    0.210687
      6          8           0       -1.012972   -0.765843    1.196722
      7          7           0       -1.171913    0.368820   -0.733605
      8          1           0       -1.780431    0.610037   -1.482000
      9          6           0        0.052566    1.152639   -0.608753
     10          1           0        0.326266    1.433626   -1.621073
     11          6           0       -0.166051    2.415312    0.221185
     12          1           0       -0.420394    2.155324    1.240641
     13          1           0        0.729566    3.020275    0.239768
     14          1           0       -0.976168    2.998310   -0.206256
     15          6           0        1.248304    0.348019   -0.076134
     16          8           0        2.033631    0.847657    0.676847
     17          7           0        1.429262   -0.875338   -0.628016
     18          1           0        0.632447   -1.298916   -1.043017
     19          6           0        2.432124   -1.768780   -0.085687
     20          1           0        3.379235   -1.254175   -0.027944
     21          1           0        2.166600   -2.119454    0.906075
     22          1           0        2.534513   -2.618466   -0.748618
 ---------------------------------------------------------------------

 The electronic state is 1-A.
 Alpha  occ. eigenvalues --  -20.53401 -20.51647 -15.59964 -15.57034 -11.35993
 Alpha  occ. eigenvalues --  -11.33845 -11.28442 -11.24424 -11.24340 -11.21182
 Alpha  occ. eigenvalues --   -1.40477  -1.38468  -1.25122  -1.21815  -1.05587
 Alpha  occ. eigenvalues --   -0.99746  -0.95099  -0.87489  -0.81186  -0.76950
 Alpha  occ. eigenvalues --   -0.71706  -0.69862  -0.64769  -0.64667  -0.62407
 Alpha  occ. eigenvalues --   -0.61230  -0.60136  -0.58871  -0.57886  -0.56026
 Alpha  occ. eigenvalues --   -0.54143  -0.52681  -0.52431  -0.51747  -0.50526
 Alpha  occ. eigenvalues --   -0.42833  -0.41996  -0.39502  -0.37960
 Alpha virt. eigenvalues --    0.18649   0.19107   0.22284   0.25163   0.25981
 Alpha virt. eigenvalues --    0.28443   0.28981   0.29506   0.30603   0.31840
 Alpha virt. eigenvalues --    0.32916   0.33477   0.33894   0.34897   0.37487

 Mulliken atomic charges:
              1
     1  H    0.217789
     2  C   -0.586350
     3  H    0.205125
     4  H    0.173358
     5  C    0.736237
     6  O   -0.594136
     7  N   -0.825005
     8  H    0.386248
     9  C   -0.044529
    10  H    0.203831
    11  C   -0.464114
    12  H    0.199086
    13  H    0.195117
    14  H    0.145592
    15  C    0.788932
    16  O   -0.611707
    17  N   -0.772746
    18  H    0.381769
    19  C   -0.282324
    20  H    0.201296
    21  H    0.184890
    22  H    0.161642
 Sum of Mulliken atomic charges =   0.00000

 Dipole moment (field-independent basis, Debye):
    X=             -4.0202    Y=             -0.8479    Z=             -4.7449  Tot=              6.2766
 Quadrupole moment (field-independent basis, Debye-Ang):
   XX=            -57.5070   YY=            -57.0412   ZZ=            -62.8265
   XY=             -4.8598   XZ=              0.9921   YZ=             -0.3171

 Normal termination of Gaussian 09 at Thu Feb  9 17:05:57 2017.
