 Gaussian 09, Revision A.02,
 Gaussian 09:  EM64L-G09RevA.02 11-Jun-2009

 -------------------------------------------
 # HF/6-31G* Opt=(ModRedundant) geom=nocrowd
 -------------------------------------------

 ------------------
 Phi Psi fixed scan
 ------------------
 Symbolic Z-matrix:
 Charge =  0 Multiplicity = 1

 SCF Done:  E(RHF) =  -492.674021026     A.U. after   15 cycles
 SCF Done:  E(RHF) =  -492.762795127     A.U. after   13 cycles
 SCF Done:  E(RHF) =  -492.806368011     A.U. after   14 cycles
 SCF Done:  E(RHF) =  -492.816172222     A.U. after   13 cycles
 SCF Done:  E(RHF) =  -492.828166353     A.U. after   14 cycles
 SCF Done:  E(RHF) =  -492.835687983     A.U. after   12 cycles
 SCF Done:  E(RHF) =  -492.845947946     A.U. after   13 cycles
 SCF Done:  E(RHF) =  -492.848599949     A.U. after   13 cycles
 SCF Done:  E(RHF) =  -492.849505197     A.U. after   12 cycles
 SCF Done:  E(RHF) =  -492.850106901     A.U. after   13 cycles
 SCF Done:  E(RHF) =  -492.851334137     A.U. after   15 cycles
 SCF Done:  E(RHF) =  -492.851369438     A.U. after   12 cycles
 SCF Done:  E(RHF) =  -492.851372928     A.U. after   12 cycles
 SCF Done:  E(RHF) =  -492.851478631     A.U. after   11 cycles
 SCF Done:  E(RHF) =  -492.851537812     A.U. after   12 cycles
 SCF Done:  E(RHF) =  -492.851564324     A.U. after   11 cycles
 SCF Done:  E(RHF) =  -492.851574940     A.U. after   11 cycles
 SCF Done:  E(RHF) =  -492.851580297     A.U. after   10 cycles
 SCF Done:  E(RHF) =  -492.851583527     A.U. after   10 cycles
 SCF Done:  E(RHF) =  -492.851583731     A.U. after    9 cycles
 Optimization completed.
    -- Stationary point found.

                         Standard orientation:
 ---------------------------------------------------------------------
 Center     Atomic      Atomic             Coordinates (Angstroms)
 Number     Number       Type             X           Y           Z
 ---------------------------------------------------------------------
      1          1           0       -3.763095   -1.271895    0.129638
      2          6           0       -3.173312   -0.707872   -0.578011
      3          1           0       -3.720683    0.174554   -0.887914
      4          1           0       -3.000667   -1.328834   -1.451765
      5          6           0       -1.839626   -0.376142    0.057759
      6          8           0       -1.380957   -1.073199    0.928504
      7          7           0       -1.248891    0.744426   -0.411773
      8          1           0       -1.717745    1.166140   -1.180951
      9          6           0        0.120409    1.246748   -0.230052
     10          1           0        0.267802    1.954876   -1.029782
     11          6           0        0.246527    1.981366    1.111919
     12          1           0        0.067043    1.302077    1.936568
     13          1           0        1.238962    2.404377    1.215721
     14          1           0       -0.481248    2.783220    1.164604
     15          6           0        1.321542    0.295053   -0.375658
     16          8           0        2.287536    0.725284   -0.956333
     17          7           0        1.296599   -0.912023    0.194518
     18          1           0        0.480904   -1.201418    0.687740
     19          6           0        2.455901   -1.774918    0.141834
     20          1           0        2.750559   -1.964785   -0.882334
     21          1           0        3.299616   -1.333629    0.658858
     22          1           0        2.203320   -2.713597    0.616281
 ---------------------------------------------------------------------

 The electronic state is 1-A.
 Alpha  occ. eigenvalues --  -20.54147 -20.51017 -15.60410 -15.56566 -11.36884
 Alpha  occ. eigenvalues --  -11.33594 -11.28718 -11.24550 -11.24537 -11.22292
 Alpha  occ. eigenvalues --   -1.40904  -1.37963  -1.25312  -1.21822  -1.06176
 Alpha  occ. eigenvalues --   -1.00216  -0.94838  -0.88600  -0.81230  -0.77136
 Alpha  occ. eigenvalues --   -0.72436  -0.70591  -0.64973  -0.63666  -0.62223
 Alpha  occ. eigenvalues --   -0.61670  -0.60609  -0.58800  -0.58027  -0.56759
 Alpha  occ. eigenvalues --   -0.54609  -0.54330  -0.52475  -0.51906  -0.49863
 Alpha  occ. eigenvalues --   -0.44035  -0.42837  -0.38712  -0.37414
 Alpha virt. eigenvalues --    0.18150   0.19868   0.21063   0.25577   0.26352
 Alpha virt. eigenvalues --    0.27979   0.29056   0.30633   0.31518   0.32521
 Alpha virt. eigenvalues --    0.32644   0.33809   0.34499   0.35877   0.37652

 Mulliken atomic charges:
              1
     1  H    0.219790
     2  C   -0.589534
     3  H    0.179854
     4  H    0.204880
     5  C    0.769963
     6  O   -0.641163
     7  N   -0.814987
     8  H    0.390296
     9  C   -0.029401
    10  H    0.219691
    11  C   -0.487269
    12  H    0.191909
    13  H    0.191617
    14  H    0.170790
    15  C    0.745392
    16  O   -0.630418
    17  N   -0.827522
    18  H    0.468958
    19  C   -0.266438
    20  H    0.184380
    21  H    0.180876
    22  H    0.168335
 Sum of Mulliken atomic charges =   0.00000

 Dipole moment (field-independent basis, Debye):
    X=             -3.9245    Y=              0.3493    Z=             -0.8715  Tot=              4.0353
 Quadrupole moment (field-independent basis, Debye-Ang):
   XX=            -61.2665   YY=            -57.9691   ZZ=            -62.0764
   XY=             -7.2943   XZ=             10.4279   YZ=              1.9755

 Normal termination of Gaussian 09 at Thu Feb  9 17:59:54 2017.
