 Gaussian 09, Revision A.02,
 Gaussian 09:  EM64L-G09RevA.02 11-Jun-2009

 -------------------------------------------
 # HF/6-31G* Opt=(ModRedundant) geom=nocrowd
 -------------------------------------------

 ------------------
 Phi Psi fixed scan
 ------------------
 Symbolic Z-matrix:
 Charge =  0 Multiplicity = 1

 SCF Done:  E(RHF) =  -492.822801662     A.U. after   15 cycles
 SCF Done:  E(RHF) =  -492.837587970     A.U. after   14 cycles
 SCF Done:  E(RHF) =  -492.840192325     A.U. after   13 cycles
 SCF Done:  E(RHF) =  -492.840496546     A.U. after   13 cycles
 SCF Done:  E(RHF) =  -492.840674685     A.U. after   12 cycles
 SCF Done:  E(RHF) =  -492.840774745     A.U. after   12 cycles
 SCF Done:  E(RHF) =  -492.840906642     A.U. after   12 cycles
 SCF Done:  E(RHF) =  -492.841042089     A.U. after   13 cycles
 SCF Done:  E(RHF) =  -492.841248927     A.U. after   13 cycles
 SCF Done:  E(RHF) =  -492.841357257     A.U. after   13 cycles
 SCF Done:  E(RHF) =  -492.841838109     A.U. after   13 cycles
 SCF Done:  E(RHF) =  -492.841912949     A.U. after   12 cycles
 SCF Done:  E(RHF) =  -492.841943012     A.U. after   12 cycles
 SCF Done:  E(RHF) =  -492.841958576     A.U. after   12 cycles
 SCF Done:  E(RHF) =  -492.841968791     A.U. after   12 cycles
 SCF Done:  E(RHF) =  -492.841969671     A.U. after   10 cycles
 SCF Done:  E(RHF) =  -492.841970107     A.U. after    9 cycles
 SCF Done:  E(RHF) =  -492.841970695     A.U. after   10 cycles
 SCF Done:  E(RHF) =  -492.841971182     A.U. after   10 cycles
 SCF Done:  E(RHF) =  -492.841971317     A.U. after    9 cycles
 Optimization completed.
    -- Stationary point found.

                         Standard orientation:
 ---------------------------------------------------------------------
 Center     Atomic      Atomic             Coordinates (Angstroms)
 Number     Number       Type             X           Y           Z
 ---------------------------------------------------------------------
      1          1           0       -3.468548   -1.858095    0.333545
      2          6           0       -3.185674   -1.007300   -0.268449
      3          1           0       -3.889937   -0.201303   -0.084515
      4          1           0       -3.239550   -1.270401   -1.319386
      5          6           0       -1.793118   -0.565120    0.138232
      6          8           0       -1.293500   -0.904856    1.168588
      7          7           0       -1.175691    0.238031   -0.774977
      8          1           0       -1.730373    0.525304   -1.549438
      9          6           0        0.045598    1.018304   -0.589047
     10          1           0        0.393106    1.251991   -1.588506
     11          6           0       -0.226261    2.318023    0.165936
     12          1           0       -0.548122    2.099360    1.174663
     13          1           0        0.669205    2.926851    0.220644
     14          1           0       -0.998746    2.887226   -0.342288
     15          6           0        1.177330    0.243420    0.113205
     16          8           0        1.417999    0.365524    1.275480
     17          7           0        2.001546   -0.425515   -0.738194
     18          1           0        1.628065   -0.671520   -1.627425
     19          6           0        3.052024   -1.275226   -0.214137
     20          1           0        3.643802   -0.713969    0.492977
     21          1           0        2.658781   -2.152713    0.288678
     22          1           0        3.685956   -1.588305   -1.033726
 ---------------------------------------------------------------------

 The electronic state is 1-A.
 Alpha  occ. eigenvalues --  -20.52308 -20.51756 -15.59154 -15.57952 -11.34981
 Alpha  occ. eigenvalues --  -11.33943 -11.28545 -11.25000 -11.23478 -11.21471
 Alpha  occ. eigenvalues --   -1.39561  -1.38523  -1.24337  -1.22337  -1.05386
 Alpha  occ. eigenvalues --   -0.99186  -0.95470  -0.87386  -0.80754  -0.77026
 Alpha  occ. eigenvalues --   -0.70708  -0.69125  -0.64967  -0.64131  -0.62339
 Alpha  occ. eigenvalues --   -0.61302  -0.60013  -0.58457  -0.57439  -0.56090
 Alpha  occ. eigenvalues --   -0.54535  -0.53198  -0.52004  -0.51157  -0.50832
 Alpha  occ. eigenvalues --   -0.42479  -0.40749  -0.38970  -0.38376
 Alpha virt. eigenvalues --    0.18505   0.20302   0.21724   0.23573   0.26356
 Alpha virt. eigenvalues --    0.27484   0.28775   0.30327   0.31404   0.32144
 Alpha virt. eigenvalues --    0.32514   0.33442   0.33890   0.34660   0.37670

 Mulliken atomic charges:
              1
     1  H    0.218332
     2  C   -0.592162
     3  H    0.194920
     4  H    0.174978
     5  C    0.740547
     6  O   -0.573028
     7  N   -0.815486
     8  H    0.378985
     9  C   -0.048903
    10  H    0.188692
    11  C   -0.473022
    12  H    0.217136
    13  H    0.174093
    14  H    0.147571
    15  C    0.793849
    16  O   -0.583672
    17  N   -0.785999
    18  H    0.374489
    19  C   -0.282150
    20  H    0.206347
    21  H    0.180116
    22  H    0.164368
 Sum of Mulliken atomic charges =   0.00000

 Dipole moment (field-independent basis, Debye):
    X=             -1.6178    Y=              0.4138    Z=             -6.2619  Tot=              6.4807
 Quadrupole moment (field-independent basis, Debye-Ang):
   XX=            -51.7886   YY=            -58.4334   ZZ=            -63.5992
   XY=             -4.1881   XZ=              0.1153   YZ=              1.4597

 Normal termination of Gaussian 09 at Thu Feb  9 17:13:18 2017.
