 Gaussian 09, Revision A.02,
 Gaussian 09:  EM64L-G09RevA.02 11-Jun-2009

 -------------------------------------------
 # HF/6-31G* Opt=(ModRedundant) geom=nocrowd
 -------------------------------------------

 ------------------
 Phi Psi fixed scan
 ------------------
 Symbolic Z-matrix:
 Charge =  0 Multiplicity = 1

 SCF Done:  E(RHF) =  -492.778121590     A.U. after   16 cycles
 SCF Done:  E(RHF) =  -492.826333422     A.U. after   15 cycles
 SCF Done:  E(RHF) =  -492.832113996     A.U. after   14 cycles
 SCF Done:  E(RHF) =  -492.834984099     A.U. after   14 cycles
 SCF Done:  E(RHF) =  -492.837240210     A.U. after   15 cycles
 SCF Done:  E(RHF) =  -492.838722087     A.U. after   13 cycles
 SCF Done:  E(RHF) =  -492.839587372     A.U. after   13 cycles
 SCF Done:  E(RHF) =  -492.839771520     A.U. after   12 cycles
 SCF Done:  E(RHF) =  -492.839795776     A.U. after   13 cycles
 SCF Done:  E(RHF) =  -492.839867450     A.U. after   12 cycles
 SCF Done:  E(RHF) =  -492.840084179     A.U. after   13 cycles
 SCF Done:  E(RHF) =  -492.840097273     A.U. after   13 cycles
 SCF Done:  E(RHF) =  -492.840174547     A.U. after   11 cycles
 SCF Done:  E(RHF) =  -492.840219927     A.U. after   11 cycles
 SCF Done:  E(RHF) =  -492.840215751     A.U. after   14 cycles
 SCF Done:  E(RHF) =  -492.840318299     A.U. after   12 cycles
 SCF Done:  E(RHF) =  -492.840321691     A.U. after   10 cycles
 SCF Done:  E(RHF) =  -492.840324833     A.U. after   11 cycles
 SCF Done:  E(RHF) =  -492.840325540     A.U. after    9 cycles
 SCF Done:  E(RHF) =  -492.840325581     A.U. after    9 cycles
 Optimization completed.
    -- Stationary point found.

                         Standard orientation:
 ---------------------------------------------------------------------
 Center     Atomic      Atomic             Coordinates (Angstroms)
 Number     Number       Type             X           Y           Z
 ---------------------------------------------------------------------
      1          1           0       -3.578605   -1.577068    0.216604
      2          6           0       -2.858396   -1.238608   -0.513281
      3          1           0       -3.376649   -0.856680   -1.387307
      4          1           0       -2.243141   -2.078646   -0.820769
      5          6           0       -1.973265   -0.187026    0.116438
      6          8           0       -1.958761    0.019118    1.289646
      7          7           0       -1.247982    0.577250   -0.792131
      8          1           0       -1.358480    0.232326   -1.722105
      9          6           0        0.134629    0.972681   -0.560209
     10          1           0        0.517738    1.275325   -1.527649
     11          6           0        0.212524    2.174070    0.392989
     12          1           0       -0.181676    1.904989    1.362626
     13          1           0        1.236333    2.516773    0.510739
     14          1           0       -0.379083    2.988619   -0.006758
     15          6           0        1.024532   -0.165639   -0.037396
     16          8           0        0.609437   -1.114609    0.562274
     17          7           0        2.325929   -0.058422   -0.408656
     18          1           0        2.641331    0.807178   -0.782733
     19          6           0        3.328387   -0.966794    0.109733
     20          1           0        2.975680   -1.982352    0.012440
     21          1           0        4.234912   -0.851142   -0.469808
     22          1           0        3.550139   -0.779298    1.155234
 ---------------------------------------------------------------------

 The electronic state is 1-A.
 Alpha  occ. eigenvalues --  -20.52795 -20.51663 -15.58950 -15.57735 -11.34689
 Alpha  occ. eigenvalues --  -11.33976 -11.28653 -11.25987 -11.22356 -11.22076
 Alpha  occ. eigenvalues --   -1.40000  -1.38162  -1.23767  -1.22917  -1.05216
 Alpha  occ. eigenvalues --   -0.98704  -0.95790  -0.87692  -0.79950  -0.77112
 Alpha  occ. eigenvalues --   -0.70781  -0.69366  -0.65232  -0.63304  -0.62315
 Alpha  occ. eigenvalues --   -0.61883  -0.59572  -0.58579  -0.56543  -0.55993
 Alpha  occ. eigenvalues --   -0.55535  -0.53562  -0.53118  -0.50936  -0.49204
 Alpha  occ. eigenvalues --   -0.44072  -0.40857  -0.39436  -0.37736
 Alpha virt. eigenvalues --    0.18539   0.20148   0.21640   0.22740   0.26212
 Alpha virt. eigenvalues --    0.27768   0.29315   0.30750   0.31553   0.31895
 Alpha virt. eigenvalues --    0.33522   0.33969   0.34242   0.34799   0.37059

 Mulliken atomic charges:
              1
     1  H    0.213919
     2  C   -0.602746
     3  H    0.174005
     4  H    0.202293
     5  C    0.765995
     6  O   -0.570079
     7  N   -0.770573
     8  H    0.366433
     9  C   -0.068743
    10  H    0.185021
    11  C   -0.482783
    12  H    0.231409
    13  H    0.146098
    14  H    0.183117
    15  C    0.757356
    16  O   -0.595397
    17  N   -0.792006
    18  H    0.379925
    19  C   -0.277528
    20  H    0.208223
    21  H    0.168245
    22  H    0.177815
 Sum of Mulliken atomic charges =   0.00000

 Dipole moment (field-independent basis, Debye):
    X=              2.9644    Y=              1.4729    Z=             -4.7523  Tot=              5.7915
 Quadrupole moment (field-independent basis, Debye-Ang):
   XX=            -51.2501   YY=            -60.3386   ZZ=            -62.3283
   XY=              4.8649   XZ=              5.1967   YZ=              1.1609

 Normal termination of Gaussian 09 at Thu Feb  9 17:27:47 2017.
