 Gaussian 09, Revision A.02,
 Gaussian 09:  EM64L-G09RevA.02 11-Jun-2009

 -------------------------------------------
 # HF/6-31G* Opt=(ModRedundant) geom=nocrowd
 -------------------------------------------

 ------------------
 Phi Psi fixed scan
 ------------------
 Symbolic Z-matrix:
 Charge =  0 Multiplicity = 1

 SCF Done:  E(RHF) =  -492.805488838     A.U. after   15 cycles
 SCF Done:  E(RHF) =  -492.832619203     A.U. after   16 cycles
 SCF Done:  E(RHF) =  -492.844026171     A.U. after   14 cycles
 SCF Done:  E(RHF) =  -492.848835515     A.U. after   16 cycles
 SCF Done:  E(RHF) =  -492.849208783     A.U. after   16 cycles
 SCF Done:  E(RHF) =  -492.850341334     A.U. after   16 cycles
 SCF Done:  E(RHF) =  -492.850616746     A.U. after   13 cycles
 SCF Done:  E(RHF) =  -492.850692408     A.U. after   13 cycles
 SCF Done:  E(RHF) =  -492.850809399     A.U. after   11 cycles
 SCF Done:  E(RHF) =  -492.850993383     A.U. after   13 cycles
 SCF Done:  E(RHF) =  -492.851529988     A.U. after   12 cycles
 SCF Done:  E(RHF) =  -492.851628078     A.U. after   12 cycles
 SCF Done:  E(RHF) =  -492.851650045     A.U. after   11 cycles
 SCF Done:  E(RHF) =  -492.851663319     A.U. after   11 cycles
 SCF Done:  E(RHF) =  -492.851663755     A.U. after    9 cycles
 SCF Done:  E(RHF) =  -492.851664001     A.U. after    8 cycles
 SCF Done:  E(RHF) =  -492.851664204     A.U. after    8 cycles
 SCF Done:  E(RHF) =  -492.851664409     A.U. after    9 cycles
 SCF Done:  E(RHF) =  -492.851664487     A.U. after    8 cycles
 SCF Done:  E(RHF) =  -492.851664503     A.U. after    7 cycles
 Optimization completed.
    -- Stationary point found.

                         Standard orientation:
 ---------------------------------------------------------------------
 Center     Atomic      Atomic             Coordinates (Angstroms)
 Number     Number       Type             X           Y           Z
 ---------------------------------------------------------------------
      1          1           0        3.589691   -1.545449   -0.108213
      2          6           0        3.086252   -0.860781    0.558253
      3          1           0        3.733866   -0.019123    0.775181
      4          1           0        2.874628   -1.377452    1.489558
      5          6           0        1.780900   -0.432612   -0.077053
      6          8           0        1.249242   -1.101682   -0.925420
      7          7           0        1.291689    0.750804    0.364048
      8          1           0        1.779021    1.143380    1.137526
      9          6           0       -0.066244    1.283271    0.192867
     10          1           0       -0.180874    2.018405    0.973745
     11          6           0       -0.211043    1.970358   -1.167830
     12          1           0       -0.040262    1.273558   -1.978210
     13          1           0       -1.205223    2.389936   -1.278707
     14          1           0        0.513472    2.772773   -1.250819
     15          6           0       -1.227349    0.304163    0.458318
     16          8           0       -1.908576    0.475947    1.436380
     17          7           0       -1.494280   -0.638549   -0.461923
     18          1           0       -0.744801   -0.907119   -1.060824
     19          6           0       -2.552466   -1.597526   -0.226948
     20          1           0       -3.478745   -1.081380   -0.019650
     21          1           0       -2.675232   -2.197375   -1.118881
     22          1           0       -2.333036   -2.251297    0.611100
 ---------------------------------------------------------------------

 The electronic state is 1-A.
 Alpha  occ. eigenvalues --  -20.54073 -20.51680 -15.60150 -15.56551 -11.36600
 Alpha  occ. eigenvalues --  -11.33661 -11.28559 -11.24446 -11.24362 -11.22288
 Alpha  occ. eigenvalues --   -1.40804  -1.38327  -1.25080  -1.21864  -1.06055
 Alpha  occ. eigenvalues --   -1.00124  -0.94540  -0.88635  -0.81030  -0.76593
 Alpha  occ. eigenvalues --   -0.72177  -0.70448  -0.65055  -0.63687  -0.62781
 Alpha  occ. eigenvalues --   -0.61665  -0.60499  -0.58205  -0.57726  -0.56727
 Alpha  occ. eigenvalues --   -0.54571  -0.53887  -0.52510  -0.51569  -0.50946
 Alpha  occ. eigenvalues --   -0.44038  -0.43010  -0.39019  -0.37371
 Alpha virt. eigenvalues --    0.18450   0.19267   0.21495   0.25459   0.26043
 Alpha virt. eigenvalues --    0.27819   0.29158   0.30297   0.31315   0.32454
 Alpha virt. eigenvalues --    0.32642   0.33770   0.34147   0.36005   0.37514

 Mulliken atomic charges:
              1
     1  H    0.219112
     2  C   -0.592096
     3  H    0.182292
     4  H    0.204270
     5  C    0.762141
     6  O   -0.631656
     7  N   -0.807738
     8  H    0.389942
     9  C   -0.042882
    10  H    0.221830
    11  C   -0.476680
    12  H    0.189285
    13  H    0.178296
    14  H    0.169420
    15  C    0.740828
    16  O   -0.619931
    17  N   -0.790952
    18  H    0.445533
    19  C   -0.274987
    20  H    0.193671
    21  H    0.168938
    22  H    0.171365
 Sum of Mulliken atomic charges =   0.00000

 Dipole moment (field-independent basis, Debye):
    X=              3.3359    Y=              0.7833    Z=              0.0076  Tot=              3.4267
 Quadrupole moment (field-independent basis, Debye-Ang):
   XX=            -57.4456   YY=            -57.8049   ZZ=            -64.7885
   XY=              4.9353   XZ=             10.9696   YZ=             -1.7300

 Normal termination of Gaussian 09 at Thu Feb  9 17:52:05 2017.
