 Gaussian 09, Revision A.02,
 Gaussian 09:  EM64L-G09RevA.02 11-Jun-2009

 -------------------------------------------
 # HF/6-31G* Opt=(ModRedundant) geom=nocrowd
 -------------------------------------------

 ------------------
 Phi Psi fixed scan
 ------------------
 Symbolic Z-matrix:
 Charge =  0 Multiplicity = 1

 SCF Done:  E(RHF) =  -492.809247902     A.U. after   16 cycles
 SCF Done:  E(RHF) =  -492.832735597     A.U. after   14 cycles
 SCF Done:  E(RHF) =  -492.836264182     A.U. after   14 cycles
 SCF Done:  E(RHF) =  -492.836551810     A.U. after   13 cycles
 SCF Done:  E(RHF) =  -492.836904239     A.U. after   13 cycles
 SCF Done:  E(RHF) =  -492.836990231     A.U. after   13 cycles
 SCF Done:  E(RHF) =  -492.837005916     A.U. after   13 cycles
 SCF Done:  E(RHF) =  -492.837156529     A.U. after   12 cycles
 SCF Done:  E(RHF) =  -492.837263702     A.U. after   13 cycles
 SCF Done:  E(RHF) =  -492.837346644     A.U. after   13 cycles
 SCF Done:  E(RHF) =  -492.837775183     A.U. after   12 cycles
 SCF Done:  E(RHF) =  -492.837798409     A.U. after   11 cycles
 SCF Done:  E(RHF) =  -492.837812817     A.U. after   12 cycles
 SCF Done:  E(RHF) =  -492.837824393     A.U. after   12 cycles
 SCF Done:  E(RHF) =  -492.837826775     A.U. after   11 cycles
 SCF Done:  E(RHF) =  -492.837827031     A.U. after    9 cycles
 SCF Done:  E(RHF) =  -492.837827056     A.U. after    7 cycles
 SCF Done:  E(RHF) =  -492.837827087     A.U. after    8 cycles
 SCF Done:  E(RHF) =  -492.837827162     A.U. after    9 cycles
 SCF Done:  E(RHF) =  -492.837827172     A.U. after    8 cycles
 Optimization completed.
    -- Stationary point found.

                         Standard orientation:
 ---------------------------------------------------------------------
 Center     Atomic      Atomic             Coordinates (Angstroms)
 Number     Number       Type             X           Y           Z
 ---------------------------------------------------------------------
      1          1           0       -3.676981   -1.561384    0.387686
      2          6           0       -3.021186   -1.264386   -0.417046
      3          1           0       -3.591844   -0.736166   -1.173820
      4          1           0       -2.599222   -2.155377   -0.873046
      5          6           0       -1.911533   -0.400296    0.153737
      6          8           0       -1.716790   -0.310717    1.326575
      7          7           0       -1.195393    0.272420   -0.799952
      8          1           0       -1.424182    0.034508   -1.738088
      9          6           0        0.096288    0.942670   -0.648582
     10          1           0        0.455348    1.090803   -1.659681
     11          6           0       -0.069252    2.306302    0.022208
     12          1           0       -0.432371    2.173348    1.031134
     13          1           0        0.879560    2.831764    0.062837
     14          1           0       -0.776668    2.906886   -0.538538
     15          6           0        1.155496    0.137598    0.127599
     16          8           0        1.198985    0.084880    1.319505
     17          7           0        2.124852   -0.407342   -0.654374
     18          1           0        1.968551   -0.474075   -1.632971
     19          6           0        3.167755   -1.230763   -0.079804
     20          1           0        3.604831   -0.720414    0.765467
     21          1           0        2.790769   -2.190119    0.259239
     22          1           0        3.933023   -1.395367   -0.827249
 ---------------------------------------------------------------------

 The electronic state is 1-A.
 Alpha  occ. eigenvalues --  -20.51967 -20.51897 -15.58812 -15.58558 -11.34545
 Alpha  occ. eigenvalues --  -11.34049 -11.28674 -11.25592 -11.23189 -11.21078
 Alpha  occ. eigenvalues --   -1.39379  -1.38483  -1.24029  -1.22710  -1.05321
 Alpha  occ. eigenvalues --   -0.98955  -0.95747  -0.87289  -0.80475  -0.77343
 Alpha  occ. eigenvalues --   -0.71089  -0.69202  -0.64860  -0.64080  -0.62037
 Alpha  occ. eigenvalues --   -0.61581  -0.59960  -0.58617  -0.56544  -0.56187
 Alpha  occ. eigenvalues --   -0.55112  -0.53113  -0.51499  -0.51115  -0.50427
 Alpha  occ. eigenvalues --   -0.43264  -0.40980  -0.38767  -0.37648
 Alpha virt. eigenvalues --    0.18504   0.20089   0.21056   0.23601   0.26227
 Alpha virt. eigenvalues --    0.27575   0.28740   0.30579   0.31230   0.32405
 Alpha virt. eigenvalues --    0.33076   0.33822   0.34214   0.34583   0.37539

 Mulliken atomic charges:
              1
     1  H    0.218983
     2  C   -0.594589
     3  H    0.178916
     4  H    0.186451
     5  C    0.741751
     6  O   -0.559448
     7  N   -0.817556
     8  H    0.375512
     9  C   -0.029721
    10  H    0.176379
    11  C   -0.479557
    12  H    0.232098
    13  H    0.163146
    14  H    0.161908
    15  C    0.771856
    16  O   -0.575029
    17  N   -0.799051
    18  H    0.374257
    19  C   -0.275851
    20  H    0.208051
    21  H    0.176677
    22  H    0.164817
 Sum of Mulliken atomic charges =   0.00000

 Dipole moment (field-independent basis, Debye):
    X=              0.4990    Y=             -0.9044    Z=             -7.0396  Tot=              7.1150
 Quadrupole moment (field-independent basis, Debye-Ang):
   XX=            -53.6412   YY=            -57.5919   ZZ=            -63.3211
   XY=             -0.6775   XZ=              1.3746   YZ=              1.6828

 Normal termination of Gaussian 09 at Thu Feb  9 17:16:15 2017.
