 Gaussian 09, Revision A.02,
 Gaussian 09:  EM64L-G09RevA.02 11-Jun-2009

 -------------------------------------------
 # HF/6-31G* Opt=(ModRedundant) geom=nocrowd
 -------------------------------------------

 ------------------
 Phi Psi fixed scan
 ------------------
 Symbolic Z-matrix:
 Charge =  0 Multiplicity = 1

 SCF Done:  E(RHF) =  -492.655865715     A.U. after   15 cycles
 SCF Done:  E(RHF) =  -492.748559099     A.U. after   13 cycles
 SCF Done:  E(RHF) =  -492.799353442     A.U. after   14 cycles
 SCF Done:  E(RHF) =  -492.812172146     A.U. after   13 cycles
 SCF Done:  E(RHF) =  -492.829696851     A.U. after   14 cycles
 SCF Done:  E(RHF) =  -492.836803078     A.U. after   12 cycles
 SCF Done:  E(RHF) =  -492.845200720     A.U. after   13 cycles
 SCF Done:  E(RHF) =  -492.847138931     A.U. after   12 cycles
 SCF Done:  E(RHF) =  -492.848668157     A.U. after   13 cycles
 SCF Done:  E(RHF) =  -492.849419042     A.U. after   13 cycles
 SCF Done:  E(RHF) =  -492.849810335     A.U. after   15 cycles
 SCF Done:  E(RHF) =  -492.851267472     A.U. after   15 cycles
 SCF Done:  E(RHF) =  -492.851334786     A.U. after   11 cycles
 SCF Done:  E(RHF) =  -492.851358574     A.U. after   11 cycles
 SCF Done:  E(RHF) =  -492.851367733     A.U. after   11 cycles
 SCF Done:  E(RHF) =  -492.851371520     A.U. after   10 cycles
 SCF Done:  E(RHF) =  -492.851373056     A.U. after    9 cycles
 SCF Done:  E(RHF) =  -492.851374460     A.U. after    9 cycles
 SCF Done:  E(RHF) =  -492.851375219     A.U. after    8 cycles
 SCF Done:  E(RHF) =  -492.851375353     A.U. after    8 cycles
 Optimization completed.
    -- Stationary point found.

                         Standard orientation:
 ---------------------------------------------------------------------
 Center     Atomic      Atomic             Coordinates (Angstroms)
 Number     Number       Type             X           Y           Z
 ---------------------------------------------------------------------
      1          1           0       -3.795371   -1.178898    0.227803
      2          6           0       -3.189002   -0.701311   -0.528015
      3          1           0       -3.708026    0.166517   -0.917324
      4          1           0       -3.039737   -1.405886   -1.340400
      5          6           0       -1.842375   -0.361759    0.075620
      6          8           0       -1.387346   -1.021725    0.977464
      7          7           0       -1.232130    0.715257   -0.461421
      8          1           0       -1.701246    1.110760   -1.244001
      9          6           0        0.134053    1.227347   -0.289292
     10          1           0        0.298528    1.877228   -1.134714
     11          6           0        0.229249    2.061440    0.996997
     12          1           0        0.042640    1.439447    1.864900
     13          1           0        1.213937    2.502710    1.084376
     14          1           0       -0.511022    2.853359    0.979700
     15          6           0        1.347683    0.281751   -0.331831
     16          8           0        2.383138    0.768557   -0.712999
     17          7           0        1.243466   -0.990969    0.062558
     18          1           0        0.414897   -1.279301    0.534989
     19          6           0        2.418618   -1.833600    0.116253
     20          1           0        2.918011   -1.843602   -0.842560
     21          1           0        3.126594   -1.490690    0.862787
     22          1           0        2.105739   -2.839523    0.362381
 ---------------------------------------------------------------------

 The electronic state is 1-A.
 Alpha  occ. eigenvalues --  -20.54060 -20.51056 -15.60449 -15.56624 -11.36895
 Alpha  occ. eigenvalues --  -11.33736 -11.28800 -11.24562 -11.24523 -11.22146
 Alpha  occ. eigenvalues --   -1.40879  -1.38080  -1.25360  -1.21868  -1.06144
 Alpha  occ. eigenvalues --   -1.00181  -0.94882  -0.88523  -0.81268  -0.77173
 Alpha  occ. eigenvalues --   -0.72499  -0.70574  -0.64976  -0.63732  -0.62150
 Alpha  occ. eigenvalues --   -0.61640  -0.60603  -0.59061  -0.58062  -0.56548
 Alpha  occ. eigenvalues --   -0.54588  -0.54414  -0.52278  -0.52001  -0.49626
 Alpha  occ. eigenvalues --   -0.43833  -0.42818  -0.38957  -0.37556
 Alpha virt. eigenvalues --    0.18025   0.19799   0.20933   0.25625   0.26474
 Alpha virt. eigenvalues --    0.28169   0.29082   0.30953   0.31501   0.32451
 Alpha virt. eigenvalues --    0.33043   0.33813   0.34644   0.35502   0.37986

 Mulliken atomic charges:
              1
     1  H    0.219713
     2  C   -0.587898
     3  H    0.178358
     4  H    0.205426
     5  C    0.769729
     6  O   -0.643121
     7  N   -0.815800
     8  H    0.390401
     9  C   -0.021387
    10  H    0.216850
    11  C   -0.488398
    12  H    0.190831
    13  H    0.199300
    14  H    0.168645
    15  C    0.745724
    16  O   -0.630257
    17  N   -0.830433
    18  H    0.466845
    19  C   -0.270000
    20  H    0.190532
    21  H    0.176851
    22  H    0.168090
 Sum of Mulliken atomic charges =   0.00000

 Dipole moment (field-independent basis, Debye):
    X=             -4.0671    Y=              0.1905    Z=             -1.4266  Tot=              4.3142
 Quadrupole moment (field-independent basis, Debye-Ang):
   XX=            -62.1496   YY=            -57.9416   ZZ=            -61.2876
   XY=             -7.5004   XZ=              9.3043   YZ=              1.5048

 Normal termination of Gaussian 09 at Thu Feb  9 18:03:40 2017.
