 Gaussian 09, Revision A.02,
 Gaussian 09:  EM64L-G09RevA.02 11-Jun-2009

 -------------------------------------------
 # HF/6-31G* Opt=(ModRedundant) geom=nocrowd
 -------------------------------------------

 ------------------
 Phi Psi fixed scan
 ------------------
 Symbolic Z-matrix:
 Charge =  0 Multiplicity = 1

 SCF Done:  E(RHF) =  -492.789730985     A.U. after   15 cycles
 SCF Done:  E(RHF) =  -492.832358932     A.U. after   14 cycles
 SCF Done:  E(RHF) =  -492.840461404     A.U. after   14 cycles
 SCF Done:  E(RHF) =  -492.847611942     A.U. after   13 cycles
 SCF Done:  E(RHF) =  -492.848224813     A.U. after   12 cycles
 SCF Done:  E(RHF) =  -492.848900567     A.U. after   13 cycles
 SCF Done:  E(RHF) =  -492.849141991     A.U. after   12 cycles
 SCF Done:  E(RHF) =  -492.849216825     A.U. after   13 cycles
 SCF Done:  E(RHF) =  -492.849364248     A.U. after   11 cycles
 SCF Done:  E(RHF) =  -492.849557025     A.U. after   12 cycles
 SCF Done:  E(RHF) =  -492.850332317     A.U. after   11 cycles
 SCF Done:  E(RHF) =  -492.850361675     A.U. after   11 cycles
 SCF Done:  E(RHF) =  -492.850365989     A.U. after   10 cycles
 SCF Done:  E(RHF) =  -492.850367902     A.U. after    9 cycles
 SCF Done:  E(RHF) =  -492.850369006     A.U. after   10 cycles
 SCF Done:  E(RHF) =  -492.850369444     A.U. after   10 cycles
 SCF Done:  E(RHF) =  -492.850369685     A.U. after    9 cycles
 SCF Done:  E(RHF) =  -492.850369716     A.U. after    7 cycles
 SCF Done:  E(RHF) =  -492.850369713     A.U. after    7 cycles
 SCF Done:  E(RHF) =  -492.850369725     A.U. after    7 cycles
 Optimization completed.
    -- Stationary point found.

                         Standard orientation:
 ---------------------------------------------------------------------
 Center     Atomic      Atomic             Coordinates (Angstroms)
 Number     Number       Type             X           Y           Z
 ---------------------------------------------------------------------
      1          1           0       -3.782498   -1.067545    0.485651
      2          6           0       -3.183573   -0.774974   -0.365009
      3          1           0       -3.688154    0.012744   -0.911449
      4          1           0       -3.080604   -1.636489   -1.017103
      5          6           0       -1.809736   -0.373101    0.129019
      6          8           0       -1.307159   -0.922182    1.078551
      7          7           0       -1.209741    0.609559   -0.570407
      8          1           0       -1.706622    0.941415   -1.364708
      9          6           0        0.128564    1.185495   -0.415333
     10          1           0        0.337755    1.667883   -1.360968
     11          6           0        0.116526    2.254218    0.685688
     12          1           0       -0.112267    1.800352    1.643430
     13          1           0        1.078632    2.741642    0.748089
     14          1           0       -0.645166    2.995569    0.469905
     15          6           0        1.355011    0.275928   -0.216008
     16          8           0        2.423738    0.828533   -0.198678
     17          7           0        1.224521   -1.062595   -0.180087
     18          1           0        0.367901   -1.415006    0.184260
     19          6           0        2.405856   -1.875507    0.032157
     20          1           0        3.148494   -1.646308   -0.717870
     21          1           0        2.846705   -1.709811    1.009527
     22          1           0        2.123844   -2.916356   -0.057365
 ---------------------------------------------------------------------

 The electronic state is 1-A.
 Alpha  occ. eigenvalues --  -20.53760 -20.51567 -15.60399 -15.56739 -11.36704
 Alpha  occ. eigenvalues --  -11.34064 -11.28897 -11.24559 -11.24430 -11.21679
 Alpha  occ. eigenvalues --   -1.40743  -1.38567  -1.25365  -1.21910  -1.05978
 Alpha  occ. eigenvalues --   -1.00042  -0.94862  -0.88261  -0.81360  -0.76962
 Alpha  occ. eigenvalues --   -0.72456  -0.70400  -0.65009  -0.64085  -0.62390
 Alpha  occ. eigenvalues --   -0.61512  -0.60517  -0.59116  -0.58052  -0.56102
 Alpha  occ. eigenvalues --   -0.54572  -0.54037  -0.52093  -0.51861  -0.49707
 Alpha  occ. eigenvalues --   -0.43392  -0.42718  -0.39642  -0.37832
 Alpha virt. eigenvalues --    0.17907   0.19293   0.21187   0.25647   0.26483
 Alpha virt. eigenvalues --    0.28546   0.29102   0.30930   0.31555   0.32045
 Alpha virt. eigenvalues --    0.33545   0.33967   0.34357   0.35118   0.37882

 Mulliken atomic charges:
              1
     1  H    0.219046
     2  C   -0.583528
     3  H    0.175028
     4  H    0.205397
     5  C    0.757836
     6  O   -0.637310
     7  N   -0.816388
     8  H    0.390349
     9  C   -0.018747
    10  H    0.213008
    11  C   -0.483268
    12  H    0.189188
    13  H    0.209233
    14  H    0.159386
    15  C    0.756731
    16  O   -0.621139
    17  N   -0.814045
    18  H    0.441260
    19  C   -0.279131
    20  H    0.193859
    21  H    0.176739
    22  H    0.166498
 Sum of Mulliken atomic charges =   0.00000

 Dipole moment (field-independent basis, Debye):
    X=             -4.1929    Y=             -0.1678    Z=             -2.6111  Tot=              4.9423
 Quadrupole moment (field-independent basis, Debye-Ang):
   XX=            -61.7494   YY=            -57.7578   ZZ=            -61.0533
   XY=             -6.9202   XZ=              6.0512   YZ=              0.3382

 Normal termination of Gaussian 09 at Thu Feb  9 16:57:01 2017.
