 Gaussian 09, Revision A.02,
 Gaussian 09:  EM64L-G09RevA.02 11-Jun-2009

 -------------------------------------------
 # HF/6-31G* Opt=(ModRedundant) geom=nocrowd
 -------------------------------------------

 ------------------
 Phi Psi fixed scan
 ------------------
 Symbolic Z-matrix:
 Charge =  0 Multiplicity = 1

 SCF Done:  E(RHF) =  -492.829442229     A.U. after   15 cycles
 SCF Done:  E(RHF) =  -492.842435924     A.U. after   14 cycles
 SCF Done:  E(RHF) =  -492.846879863     A.U. after   14 cycles
 SCF Done:  E(RHF) =  -492.847529177     A.U. after   13 cycles
 SCF Done:  E(RHF) =  -492.849470227     A.U. after   13 cycles
 SCF Done:  E(RHF) =  -492.850245532     A.U. after   13 cycles
 SCF Done:  E(RHF) =  -492.851018111     A.U. after   13 cycles
 SCF Done:  E(RHF) =  -492.851208742     A.U. after   12 cycles
 SCF Done:  E(RHF) =  -492.851278439     A.U. after   11 cycles
 SCF Done:  E(RHF) =  -492.851363064     A.U. after   12 cycles
 SCF Done:  E(RHF) =  -492.851711784     A.U. after   12 cycles
 SCF Done:  E(RHF) =  -492.851891082     A.U. after   12 cycles
 SCF Done:  E(RHF) =  -492.851951493     A.U. after   11 cycles
 SCF Done:  E(RHF) =  -492.851961064     A.U. after   12 cycles
 SCF Done:  E(RHF) =  -492.852018388     A.U. after   12 cycles
 SCF Done:  E(RHF) =  -492.852039117     A.U. after   11 cycles
 SCF Done:  E(RHF) =  -492.852045706     A.U. after   11 cycles
 SCF Done:  E(RHF) =  -492.852048859     A.U. after   11 cycles
 SCF Done:  E(RHF) =  -492.852049485     A.U. after    8 cycles
 SCF Done:  E(RHF) =  -492.852049880     A.U. after    9 cycles
 Optimization completed.
    -- Stationary point found.

                         Standard orientation:
 ---------------------------------------------------------------------
 Center     Atomic      Atomic             Coordinates (Angstroms)
 Number     Number       Type             X           Y           Z
 ---------------------------------------------------------------------
      1          1           0       -3.460018   -1.410850    0.907760
      2          6           0       -3.019215   -1.032184   -0.002776
      3          1           0       -3.741452   -0.425114   -0.537092
      4          1           0       -2.741793   -1.871788   -0.632931
      5          6           0       -1.769851   -0.255904    0.336575
      6          8           0       -1.181137   -0.395480    1.371398
      7          7           0       -1.359387    0.642479   -0.612456
      8          1           0       -1.747476    0.488316   -1.516667
      9          6           0        0.029762    1.072611   -0.627670
     10          1           0        0.226992    1.423525   -1.635062
     11          6           0        0.253613    2.240114    0.334989
     12          1           0        0.121416    1.928402    1.363060
     13          1           0        1.241531    2.672725    0.211260
     14          1           0       -0.471636    3.015662    0.121986
     15          6           0        0.960496   -0.142159   -0.457665
     16          8           0        0.674654   -1.185988   -0.978819
     17          7           0        2.146510    0.065241    0.152245
     18          1           0        2.223513    0.837538    0.770995
     19          6           0        3.049754   -1.046493    0.374837
     20          1           0        3.226923   -1.560379   -0.558001
     21          1           0        3.988788   -0.658749    0.747610
     22          1           0        2.647857   -1.757479    1.088197
 ---------------------------------------------------------------------

 The electronic state is 1-A.
 Alpha  occ. eigenvalues --  -20.52469 -20.51745 -15.58150 -15.58045 -11.34547
 Alpha  occ. eigenvalues --  -11.34140 -11.28256 -11.25161 -11.22747 -11.22419
 Alpha  occ. eigenvalues --   -1.39803  -1.38281  -1.23482  -1.22902  -1.05297
 Alpha  occ. eigenvalues --   -0.99058  -0.94953  -0.88415  -0.79747  -0.77121
 Alpha  occ. eigenvalues --   -0.71310  -0.69824  -0.64694  -0.63882  -0.61721
 Alpha  occ. eigenvalues --   -0.61451  -0.59796  -0.58173  -0.56516  -0.55843
 Alpha  occ. eigenvalues --   -0.55026  -0.54286  -0.53044  -0.51267  -0.49357
 Alpha  occ. eigenvalues --   -0.42183  -0.41638  -0.39396  -0.38783
 Alpha virt. eigenvalues --    0.19018   0.20459   0.22683   0.23743   0.26491
 Alpha virt. eigenvalues --    0.27599   0.29828   0.30646   0.31179   0.32090
 Alpha virt. eigenvalues --    0.33401   0.33622   0.34449   0.35024   0.37546

 Mulliken atomic charges:
              1
     1  H    0.211999
     2  C   -0.597055
     3  H    0.178728
     4  H    0.212108
     5  C    0.755625
     6  O   -0.607444
     7  N   -0.760821
     8  H    0.382010
     9  C   -0.052029
    10  H    0.208083
    11  C   -0.510391
    12  H    0.209165
    13  H    0.155766
    14  H    0.187548
    15  C    0.791479
    16  O   -0.633002
    17  N   -0.799771
    18  H    0.394246
    19  C   -0.278619
    20  H    0.200969
    21  H    0.165561
    22  H    0.185846
 Sum of Mulliken atomic charges =   0.00000

 Dipole moment (field-independent basis, Debye):
    X=              0.3216    Y=              2.6467    Z=             -1.2884  Tot=              2.9611
 Quadrupole moment (field-independent basis, Debye-Ang):
   XX=            -48.6681   YY=            -61.1888   ZZ=            -62.7470
   XY=              2.6775   XZ=              7.5807   YZ=             -1.7112

 Normal termination of Gaussian 09 at Thu Feb  9 17:39:47 2017.
