 Gaussian 09, Revision A.02,
 Gaussian 09:  EM64L-G09RevA.02 11-Jun-2009

 -------------------
 #SP MP2/aug-cc-pVDZ
 -------------------

 -------------------------------
 Single Point calculation at MP2
 -------------------------------
 Symbolic Z-matrix:
 Charge =  0 Multiplicity = 1

                         Standard orientation:
 ---------------------------------------------------------------------
 Center     Atomic      Atomic             Coordinates (Angstroms)
 Number     Number       Type             X           Y           Z
 ---------------------------------------------------------------------
      1          1           0       -3.455792   -1.925720    0.092104
      2          6           0       -3.213597   -0.862319    0.056004
      3          1           0       -3.556298   -0.401021    0.990204
      4          1           0       -3.754298   -0.393522   -0.773696
      5          6           0       -1.701697   -0.708413   -0.059696
      6          8           0       -0.927694   -1.566410    0.333404
      7          7           0       -1.294602    0.451088   -0.687996
      8          1           0       -2.042604    1.100285   -0.902296
      9          6           0        0.003195    1.127594   -0.522496
     10          1           0        0.365194    1.384795   -1.527696
     11          6           0       -0.160510    2.417093    0.289304
     12          1           0       -0.421009    2.171592    1.321704
     13          1           0        0.775688    2.984997    0.298104
     14          1           0       -0.939412    3.055190   -0.145896
     15          6           0        1.075799    0.241698    0.162004
     16          8           0        1.169799    0.173898    1.377304
     17          7           0        2.030201   -0.248298   -0.689096
     18          1           0        1.767201   -0.345899   -1.661296
     19          6           0        3.040905   -1.169494   -0.187996
     20          1           0        3.415903   -0.785093    0.761804
     21          1           0        2.632409   -2.173296   -0.014696
     22          1           0        3.862405   -1.228691   -0.907096
 ---------------------------------------------------------------------

 SCF Done:  E(RHF) =  -492.909807224     A.U. after   15 cycles
 E2 =    -0.1604219839D+01 EUMP2 =    -0.49451402706321D+03

 The electronic state is 1-A.
 Alpha  occ. eigenvalues --  -20.53157 -20.52145 -15.60036 -15.58842 -11.36450
 Alpha  occ. eigenvalues --  -11.35495 -11.29842 -11.25805 -11.24860 -11.23656
 Alpha  occ. eigenvalues --   -1.38881  -1.37396  -1.24078  -1.22269  -1.05468
 Alpha  occ. eigenvalues --   -0.99192  -0.95216  -0.87203  -0.80738  -0.76913
 Alpha  occ. eigenvalues --   -0.69847  -0.68901  -0.66278  -0.63354  -0.61973
 Alpha  occ. eigenvalues --   -0.61149  -0.59770  -0.58154  -0.57563  -0.55397
 Alpha  occ. eigenvalues --   -0.53980  -0.53590  -0.53042  -0.51172  -0.50048
 Alpha  occ. eigenvalues --   -0.42366  -0.41656  -0.39643  -0.38679
 Alpha virt. eigenvalues --    0.02515   0.03585   0.04238   0.04639   0.05698
 Alpha virt. eigenvalues --    0.05960   0.06585   0.06986   0.07164   0.08349
 Alpha virt. eigenvalues --    0.08961   0.09093   0.11305   0.11498   0.12518

 Mulliken atomic charges:
              1
     1  H   -0.026054
     2  C    0.367537
     3  H    0.058712
     4  H   -0.053530
     5  C    0.724757
     6  O   -0.804763
     7  N   -0.444177
     8  H   -0.068085
     9  C   -0.241660
    10  H   -0.309638
    11  C    0.664146
    12  H    0.015437
    13  H   -0.024454
    14  H   -0.051799
    15  C    1.216681
    16  O   -0.862912
    17  N   -0.485593
    18  H   -0.087088
    19  C    0.746241
    20  H   -0.103820
    21  H   -0.045818
    22  H   -0.184118
 Sum of Mulliken atomic charges =   0.00000

 Dipole moment (field-independent basis, Debye):
    X=             -1.9658    Y=              2.5536    Z=             -4.2710  Tot=              5.3504
 Quadrupole moment (field-independent basis, Debye-Ang):
   XX=            -48.8620   YY=            -62.0238   ZZ=            -63.6490
   XY=             -4.6037   XZ=             -3.7662   YZ=              0.7090

 Normal termination of Gaussian 09 at Sun Feb 12 18:43:13 2017.
