 Gaussian 09, Revision A.02,
 Gaussian 09:  EM64L-G09RevA.02 11-Jun-2009

 -------------------
 #SP MP2/aug-cc-pVDZ
 -------------------

 -------------------------------
 Single Point calculation at MP2
 -------------------------------
 Symbolic Z-matrix:
 Charge =  0 Multiplicity = 1

                         Standard orientation:
 ---------------------------------------------------------------------
 Center     Atomic      Atomic             Coordinates (Angstroms)
 Number     Number       Type             X           Y           Z
 ---------------------------------------------------------------------
      1          1           0       -3.774810   -1.391073    0.070794
      2          6           0       -3.129808   -0.804675   -0.585006
      3          1           0       -3.721906   -0.018574   -1.069206
      4          1           0       -2.732110   -1.460976   -1.368806
      5          6           0       -1.975507   -0.241078    0.231494
      6          8           0       -1.705908   -0.635278    1.347694
      7          7           0       -1.324704    0.850321   -0.370006
      8          1           0       -1.738104    1.049822   -1.274206
      9          6           0        0.133896    1.048118   -0.451106
     10          1           0        0.358597    1.296117   -1.495606
     11          6           0        0.524099    2.251717    0.434694
     12          1           0        0.362898    2.004117    1.488194
     13          1           0        1.565499    2.569014    0.301194
     14          1           0       -0.112399    3.106218    0.187294
     15          6           0        0.984593   -0.212984   -0.141006
     16          8           0        0.521591   -1.339083   -0.063406
     17          7           0        2.338494    0.005013   -0.225206
     18          1           0        2.684496    0.948412   -0.130006
     19          6           0        3.282991   -1.076690    0.010594
     20          1           0        2.848489   -1.999189   -0.376806
     21          1           0        4.217292   -0.862692   -0.516306
     22          1           0        3.498491   -1.220090    1.077694
 ---------------------------------------------------------------------

 SCF Done:  E(RHF) =  -492.897092901     A.U. after   15 cycles
 E2 =    -0.1604371725D+01 EUMP2 =    -0.49450146462601D+03

 The electronic state is 1-A.
 Alpha  occ. eigenvalues --  -20.53136 -20.52223 -15.59443 -15.58629 -11.36194
 Alpha  occ. eigenvalues --  -11.35292 -11.30464 -11.26717 -11.24349 -11.23848
 Alpha  occ. eigenvalues --   -1.39065  -1.37112  -1.23309  -1.22512  -1.05319
 Alpha  occ. eigenvalues --   -0.98607  -0.95199  -0.88194  -0.79879  -0.76985
 Alpha  occ. eigenvalues --   -0.70082  -0.68935  -0.64876  -0.63805  -0.61446
 Alpha  occ. eigenvalues --   -0.61194  -0.60211  -0.57978  -0.56557  -0.56284
 Alpha  occ. eigenvalues --   -0.54926  -0.53805  -0.53554  -0.51448  -0.48508
 Alpha  occ. eigenvalues --   -0.43156  -0.41367  -0.39613  -0.38344
 Alpha virt. eigenvalues --    0.02468   0.03526   0.04290   0.04690   0.05660
 Alpha virt. eigenvalues --    0.05868   0.06210   0.07017   0.07402   0.08077
 Alpha virt. eigenvalues --    0.08919   0.09087   0.11278   0.11822   0.12717

 Mulliken atomic charges:
              1
     1  H   -0.050597
     2  C    0.299379
     3  H   -0.012825
     4  H    0.056078
     5  C    0.828980
     6  O   -0.813027
     7  N   -0.568793
     8  H   -0.025245
     9  C    0.097081
    10  H   -0.092069
    11  C    0.690023
    12  H   -0.018016
    13  H   -0.126543
    14  H   -0.084465
    15  C    0.838530
    16  O   -0.762461
    17  N   -0.525248
    18  H   -0.098367
    19  C    0.727012
    20  H   -0.115088
    21  H   -0.181659
    22  H   -0.062681
 Sum of Mulliken atomic charges =   0.00000

 Dipole moment (field-independent basis, Debye):
    X=              2.0538    Y=              3.7944    Z=             -3.7579  Tot=              5.7216
 Quadrupole moment (field-independent basis, Debye-Ang):
   XX=            -48.7116   YY=            -62.4676   ZZ=            -63.6414
   XY=              1.0891   XZ=              7.6812   YZ=              0.7237

 Normal termination of Gaussian 09 at Sun Feb 12 20:16:22 2017.
