 Gaussian 09, Revision A.02,
 Gaussian 09:  EM64L-G09RevA.02 11-Jun-2009

 -------------------
 #SP MP2/aug-cc-pVDZ
 -------------------

 -------------------------------
 Single Point calculation at MP2
 -------------------------------
 Symbolic Z-matrix:
 Charge =  0 Multiplicity = 1

                         Standard orientation:
 ---------------------------------------------------------------------
 Center     Atomic      Atomic             Coordinates (Angstroms)
 Number     Number       Type             X           Y           Z
 ---------------------------------------------------------------------
      1          1           0       -3.267897   -2.087300    0.018501
      2          6           0       -3.126199   -1.005500    0.062701
      3          1           0       -3.543199   -0.651701    1.013001
      4          1           0       -3.681199   -0.532801   -0.754499
      5          6           0       -1.631899   -0.707798    0.034301
      6          8           0       -0.815398   -1.450197    0.560701
      7          7           0       -1.289301    0.434802   -0.648299
      8          1           0       -2.059901    1.001301   -0.979499
      9          6           0       -0.014101    1.165704   -0.558199
     10          1           0        0.309898    1.375004   -1.586999
     11          6           0       -0.199503    2.489504    0.187601
     12          1           0       -0.419303    2.295703    1.239901
     13          1           0        0.715996    3.087305    0.137201
     14          1           0       -1.014104    3.074303   -0.256799
     15          6           0        1.108900    0.338205    0.122601
     16          8           0        1.404699    0.501406    1.295301
     17          7           0        1.856001   -0.417094   -0.743299
     18          1           0        1.395401   -0.684594   -1.604399
     19          6           0        2.812302   -1.376293   -0.205399
     20          1           0        3.400301   -0.880592    0.568301
     21          1           0        2.309703   -2.242193    0.244101
     22          1           0        3.476002   -1.710992   -1.007299
 ---------------------------------------------------------------------

 SCF Done:  E(RHF) =  -492.913148681     A.U. after   15 cycles
 E2 =    -0.1603707134D+01 EUMP2 =    -0.49451685581507D+03

 The electronic state is 1-A.
 Alpha  occ. eigenvalues --  -20.53401 -20.52294 -15.60531 -15.58368 -11.36887
 Alpha  occ. eigenvalues --  -11.35440 -11.29830 -11.25433 -11.25177 -11.23362
 Alpha  occ. eigenvalues --   -1.39138  -1.37502  -1.24469  -1.21994  -1.05562
 Alpha  occ. eigenvalues --   -0.99380  -0.94952  -0.87132  -0.81071  -0.76636
 Alpha  occ. eigenvalues --   -0.70288  -0.69190  -0.66240  -0.63315  -0.62131
 Alpha  occ. eigenvalues --   -0.60918  -0.59994  -0.58263  -0.57621  -0.55564
 Alpha  occ. eigenvalues --   -0.53628  -0.53257  -0.52804  -0.51080  -0.50610
 Alpha  occ. eigenvalues --   -0.42584  -0.41771  -0.39997  -0.38525
 Alpha virt. eigenvalues --    0.02413   0.03685   0.04068   0.04726   0.05661
 Alpha virt. eigenvalues --    0.06002   0.06490   0.06956   0.07203   0.08514
 Alpha virt. eigenvalues --    0.08979   0.09116   0.11167   0.11559   0.12596

 Mulliken atomic charges:
              1
     1  H    0.001771
     2  C    0.406000
     3  H    0.059568
     4  H   -0.098237
     5  C    0.658944
     6  O   -0.821548
     7  N   -0.404379
     8  H   -0.105737
     9  C   -0.236311
    10  H   -0.245212
    11  C    0.673725
    12  H    0.012444
    13  H   -0.025291
    14  H   -0.044150
    15  C    1.202811
    16  O   -0.868102
    17  N   -0.496973
    18  H   -0.074287
    19  C    0.739893
    20  H   -0.106679
    21  H   -0.043495
    22  H   -0.184758
 Sum of Mulliken atomic charges =   0.00000

 Dipole moment (field-independent basis, Debye):
    X=             -3.0372    Y=              1.4419    Z=             -4.5707  Tot=              5.6740
 Quadrupole moment (field-independent basis, Debye-Ang):
   XX=            -51.6103   YY=            -60.7766   ZZ=            -63.8192
   XY=             -4.7001   XZ=             -2.9133   YZ=              0.5250

 Normal termination of Gaussian 09 at Sun Feb 12 20:57:53 2017.
