 Gaussian 09, Revision A.02,
 Gaussian 09:  EM64L-G09RevA.02 11-Jun-2009

 -------------------
 #SP MP2/aug-cc-pVDZ
 -------------------

 -------------------------------
 Single Point calculation at MP2
 -------------------------------
 Symbolic Z-matrix:
 Charge =  0 Multiplicity = 1

                         Standard orientation:
 ---------------------------------------------------------------------
 Center     Atomic      Atomic             Coordinates (Angstroms)
 Number     Number       Type             X           Y           Z
 ---------------------------------------------------------------------
      1          1           0        3.569022   -1.463760   -0.733504
      2          6           0        3.182416   -0.809763    0.049796
      3          1           0        3.864809    0.035943    0.190096
      4          1           0        3.143822   -1.378664    0.986696
      5          6           0        1.774712   -0.372776   -0.322204
      6          8           0        1.064618   -1.011483   -1.082804
      7          7           0        1.375801    0.835620    0.221296
      8          1           0        2.013398    1.205626    0.915596
      9          6           0       -0.032602    1.165407    0.496396
     10          1           0       -0.083305    1.481407    1.545196
     11          6           0       -0.483012    2.335703   -0.390404
     12          1           0       -0.443110    2.058204   -1.450004
     13          1           0       -1.496415    2.666294   -0.137204
     14          1           0        0.191180    3.187309   -0.253404
     15          6           0       -0.931490   -0.099501    0.462196
     16          8           0       -0.670681   -1.047198    1.190096
     17          7           0       -2.113391    0.007188   -0.214604
     18          1           0       -2.162597    0.678188   -0.967704
     19          6           0       -2.995681   -1.148020   -0.304304
     20          1           0       -3.076176   -1.601920    0.684696
     21          1           0       -3.983884   -0.818629   -0.636504
     22          1           0       -2.611174   -1.906516   -0.998004
 ---------------------------------------------------------------------

 SCF Done:  E(RHF) =  -492.911571028     A.U. after   14 cycles
 E2 =    -0.1604440302D+01 EUMP2 =    -0.49451601133058D+03

 The electronic state is 1-A.
 Alpha  occ. eigenvalues --  -20.52983 -20.52040 -15.59512 -15.58898 -11.36034
 Alpha  occ. eigenvalues --  -11.35592 -11.29918 -11.25976 -11.24398 -11.24272
 Alpha  occ. eigenvalues --   -1.38896  -1.37183  -1.23548  -1.22483  -1.05491
 Alpha  occ. eigenvalues --   -0.99101  -0.94586  -0.88433  -0.80081  -0.77024
 Alpha  occ. eigenvalues --   -0.70681  -0.69205  -0.64559  -0.64164  -0.61688
 Alpha  occ. eigenvalues --   -0.60894  -0.59806  -0.57521  -0.56868  -0.56125
 Alpha  occ. eigenvalues --   -0.54611  -0.54122  -0.52986  -0.51987  -0.48839
 Alpha  occ. eigenvalues --   -0.42122  -0.41971  -0.39742  -0.38750
 Alpha virt. eigenvalues --    0.02826   0.03660   0.04394   0.04583   0.05713
 Alpha virt. eigenvalues --    0.06132   0.06277   0.06952   0.07438   0.07895
 Alpha virt. eigenvalues --    0.08910   0.09679   0.10402   0.11948   0.12691

 Mulliken atomic charges:
              1
     1  H   -0.024926
     2  C    0.326035
     3  H   -0.049786
     4  H    0.076069
     5  C    0.744083
     6  O   -0.835848
     7  N   -0.460883
     8  H   -0.051414
     9  C   -0.247726
    10  H   -0.059283
    11  C    0.756816
    12  H    0.005401
    13  H    0.023451
    14  H   -0.172441
    15  C    1.175540
    16  O   -0.923081
    17  N   -0.538465
    18  H   -0.130094
    19  C    0.719561
    20  H   -0.097680
    21  H   -0.197869
    22  H   -0.037460
 Sum of Mulliken atomic charges =   0.00000

 Dipole moment (field-independent basis, Debye):
    X=              0.4631    Y=              4.1854    Z=              0.2188  Tot=              4.2166
 Quadrupole moment (field-independent basis, Debye-Ang):
   XX=            -47.2629   YY=            -62.0533   ZZ=            -64.5755
   XY=              0.5215   XZ=              7.3853   YZ=              1.8172

 Normal termination of Gaussian 09 at Sun Feb 12 19:49:56 2017.
