 Gaussian 09, Revision A.02,
 Gaussian 09:  EM64L-G09RevA.02 11-Jun-2009

 -------------------
 #SP MP2/aug-cc-pVDZ
 -------------------

 -------------------------------
 Single Point calculation at MP2
 -------------------------------
 Symbolic Z-matrix:
 Charge =  0 Multiplicity = 1

                         Standard orientation:
 ---------------------------------------------------------------------
 Center     Atomic      Atomic             Coordinates (Angstroms)
 Number     Number       Type             X           Y           Z
 ---------------------------------------------------------------------
      1          1           0       -3.671903   -1.678596    0.084208
      2          6           0       -3.314502   -0.647997    0.059608
      3          1           0       -3.560401   -0.173097    1.017308
      4          1           0       -3.836601   -0.100996   -0.733792
      5          6           0       -1.801802   -0.659398   -0.133192
      6          8           0       -1.119403   -1.635399    0.123108
      7          7           0       -1.295701    0.506601   -0.685392
      8          1           0       -1.993000    1.233502   -0.800392
      9          6           0        0.042500    1.083500   -0.478092
     10          1           0        0.418500    1.393300   -1.463292
     11          6           0       -0.042899    2.322500    0.425008
     12          1           0       -0.339599    2.021000    1.432908
     13          1           0        0.930501    2.820999    0.484308
     14          1           0       -0.768098    3.044501    0.029608
     15          6           0        1.067099    0.112199    0.154308
     16          8           0        1.008699   -0.206401    1.331108
     17          7           0        2.169499   -0.122002   -0.625192
     18          1           0        2.064999   -0.014102   -1.625192
     19          6           0        3.223098   -1.012103   -0.159792
     20          1           0        3.366898   -0.839103    0.907708
     21          1           0        2.966997   -2.069603   -0.304492
     22          1           0        4.149798   -0.787804   -0.695592
 ---------------------------------------------------------------------

 SCF Done:  E(RHF) =  -492.905506285     A.U. after   15 cycles
 E2 =    -0.1604710900D+01 EUMP2 =    -0.49451021718550D+03

 The electronic state is 1-A.
 Alpha  occ. eigenvalues --  -20.52816 -20.52201 -15.59621 -15.59233 -11.36041
 Alpha  occ. eigenvalues --  -11.35624 -11.29965 -11.26143 -11.24555 -11.24013
 Alpha  occ. eigenvalues --   -1.38648  -1.37371  -1.23786  -1.22510  -1.05477
 Alpha  occ. eigenvalues --   -0.99002  -0.95435  -0.87368  -0.80569  -0.77084
 Alpha  occ. eigenvalues --   -0.69532  -0.68661  -0.66287  -0.63434  -0.62015
 Alpha  occ. eigenvalues --   -0.61215  -0.59623  -0.58030  -0.57538  -0.55326
 Alpha  occ. eigenvalues --   -0.54296  -0.53984  -0.53144  -0.51359  -0.49601
 Alpha  occ. eigenvalues --   -0.42356  -0.41435  -0.39333  -0.38785
 Alpha virt. eigenvalues --    0.02542   0.03493   0.04409   0.04500   0.05741
 Alpha virt. eigenvalues --    0.05979   0.06500   0.06905   0.07218   0.08211
 Alpha virt. eigenvalues --    0.08947   0.09141   0.11261   0.11872   0.12477

 Mulliken atomic charges:
              1
     1  H   -0.041785
     2  C    0.343945
     3  H    0.054714
     4  H   -0.030519
     5  C    0.724546
     6  O   -0.790373
     7  N   -0.483046
     8  H   -0.034374
     9  C   -0.139931
    10  H   -0.326664
    11  C    0.656405
    12  H    0.020210
    13  H   -0.048600
    14  H   -0.068823
    15  C    1.192434
    16  O   -0.850992
    17  N   -0.493744
    18  H   -0.096829
    19  C    0.747373
    20  H   -0.107409
    21  H   -0.048449
    22  H   -0.178092
 Sum of Mulliken atomic charges =   0.00000

 Dipole moment (field-independent basis, Debye):
    X=             -0.8951    Y=              3.7653    Z=             -3.6833  Tot=              5.3428
 Quadrupole moment (field-independent basis, Debye-Ang):
   XX=            -47.0891   YY=            -63.2892   ZZ=            -63.1693
   XY=             -4.6768   XZ=             -4.2715   YZ=              0.8212

 Normal termination of Gaussian 09 at Sun Feb 12 21:07:04 2017.
