 Gaussian 09, Revision A.02,
 Gaussian 09:  EM64L-G09RevA.02 11-Jun-2009

 -------------------
 #SP MP2/aug-cc-pVDZ
 -------------------

 -------------------------------
 Single Point calculation at MP2
 -------------------------------
 Symbolic Z-matrix:
 Charge =  0 Multiplicity = 1

                         Standard orientation:
 ---------------------------------------------------------------------
 Center     Atomic      Atomic             Coordinates (Angstroms)
 Number     Number       Type             X           Y           Z
 ---------------------------------------------------------------------
      1          1           0        3.543615   -1.435695   -0.765101
      2          6           0        3.207013   -0.822796    0.074699
      3          1           0        3.827611    0.076906    0.136399
      4          1           0        3.350515   -1.408795    0.989299
      5          6           0        1.719813   -0.539199   -0.094801
      6          8           0        0.939015   -1.415801   -0.448301
      7          7           0        1.347910    0.751300    0.165599
      8          1           0        2.076409    1.371802    0.491499
      9          6           0       -0.015891    1.288997    0.317099
     10          1           0       -0.030092    1.827797    1.269399
     11          6           0       -0.333093    2.274897   -0.818501
     12          1           0       -0.298092    1.785197   -1.796801
     13          1           0       -1.328594    2.710495   -0.685901
     14          1           0        0.400005    3.090098   -0.829301
     15          6           0       -1.112089    0.209595    0.521899
     16          8           0       -1.485788   -0.055906    1.656099
     17          7           0       -1.711488   -0.289206   -0.602201
     18          1           0       -1.105488   -0.336005   -1.411501
     19          6           0       -2.621885   -1.418508   -0.458101
     20          1           0       -3.333186   -1.197810    0.338899
     21          1           0       -3.162285   -1.563009   -1.397401
     22          1           0       -2.084383   -2.339907   -0.199401
 ---------------------------------------------------------------------

 SCF Done:  E(RHF) =  -492.913994218     A.U. after   14 cycles
 E2 =    -0.1602550986D+01 EUMP2 =    -0.49451654520371D+03

 The electronic state is 1-A.
 Alpha  occ. eigenvalues --  -20.53643 -20.52909 -15.60910 -15.57697 -11.37331
 Alpha  occ. eigenvalues --  -11.35488 -11.29979 -11.25363 -11.25125 -11.24398
 Alpha  occ. eigenvalues --   -1.39328  -1.37854  -1.24701  -1.21824  -1.06014
 Alpha  occ. eigenvalues --   -0.99754  -0.94040  -0.88566  -0.81299  -0.76283
 Alpha  occ. eigenvalues --   -0.71177  -0.69516  -0.65183  -0.63942  -0.62526
 Alpha  occ. eigenvalues --   -0.61213  -0.59843  -0.58083  -0.57045  -0.56647
 Alpha  occ. eigenvalues --   -0.54500  -0.53651  -0.52599  -0.51639  -0.50587
 Alpha  occ. eigenvalues --   -0.43324  -0.42555  -0.40047  -0.38193
 Alpha virt. eigenvalues --    0.02514   0.03930   0.04038   0.04758   0.05598
 Alpha virt. eigenvalues --    0.06180   0.06445   0.06586   0.07462   0.08209
 Alpha virt. eigenvalues --    0.08535   0.09756   0.10833   0.12139   0.12580

 Mulliken atomic charges:
              1
     1  H    0.019348
     2  C    0.423903
     3  H   -0.139309
     4  H    0.064369
     5  C    0.592961
     6  O   -0.857544
     7  N   -0.408587
     8  H   -0.113579
     9  C    0.083732
    10  H   -0.161038
    11  C    0.773295
    12  H   -0.059070
    13  H   -0.010656
    14  H   -0.099149
    15  C    0.992940
    16  O   -0.915666
    17  N   -0.565977
    18  H    0.004948
    19  C    0.718852
    20  H   -0.114162
    21  H   -0.197826
    22  H   -0.031785
 Sum of Mulliken atomic charges =   0.00000

 Dipole moment (field-independent basis, Debye):
    X=              3.3619    Y=              2.9546    Z=             -2.1955  Tot=              4.9852
 Quadrupole moment (field-independent basis, Debye-Ang):
   XX=            -52.7792   YY=            -60.0036   ZZ=            -66.0031
   XY=              3.6632   XZ=              7.4074   YZ=              1.0477

 Normal termination of Gaussian 09 at Sun Feb 12 21:39:02 2017.
