 Gaussian 09, Revision A.02,
 Gaussian 09:  EM64L-G09RevA.02 11-Jun-2009

 -------------------
 #SP MP2/aug-cc-pVDZ
 -------------------

 -------------------------------
 Single Point calculation at MP2
 -------------------------------
 Symbolic Z-matrix:
 Charge =  0 Multiplicity = 1

                         Standard orientation:
 ---------------------------------------------------------------------
 Center     Atomic      Atomic             Coordinates (Angstroms)
 Number     Number       Type             X           Y           Z
 ---------------------------------------------------------------------
      1          1           0       -3.667101   -1.400997    0.562206
      2          6           0       -3.190200   -0.781897   -0.199294
      3          1           0       -3.853999    0.049304   -0.463194
      4          1           0       -3.032801   -1.392798   -1.096594
      5          6           0       -1.841299   -0.311000    0.319506
      6          8           0       -1.250400   -0.869601    1.227306
      7          7           0       -1.364197    0.854900   -0.270294
      8          1           0       -1.929797    1.155901   -1.055194
      9          6           0        0.067103    1.116497   -0.495494
     10          1           0        0.174904    1.382797   -1.554694
     11          6           0        0.520505    2.314397    0.355006
     12          1           0        0.486805    2.064297    1.421106
     13          1           0        1.529806    2.648195    0.087706
     14          1           0       -0.157494    3.157998    0.193706
     15          6           0        0.930401   -0.165704   -0.356694
     16          8           0        0.562999   -1.219003   -0.857294
     17          7           0        2.213301    0.022794    0.081606
     18          1           0        2.397703    0.812094    0.683606
     19          6           0        3.110599   -1.118608    0.198606
     20          1           0        3.013098   -1.730907   -0.699094
     21          1           0        4.138700   -0.756509    0.284506
     22          1           0        2.872998   -1.746507    1.066806
 ---------------------------------------------------------------------

 SCF Done:  E(RHF) =  -492.907578134     A.U. after   15 cycles
 E2 =    -0.1604746567D+01 EUMP2 =    -0.49451232470101D+03

 The electronic state is 1-A.
 Alpha  occ. eigenvalues --  -20.52627 -20.52379 -15.59229 -15.59112 -11.35807
 Alpha  occ. eigenvalues --  -11.35665 -11.30106 -11.26296 -11.24298 -11.24094
 Alpha  occ. eigenvalues --   -1.38838  -1.37190  -1.23301  -1.22651  -1.05407
 Alpha  occ. eigenvalues --   -0.98875  -0.94813  -0.88422  -0.79879  -0.77086
 Alpha  occ. eigenvalues --   -0.70439  -0.69128  -0.64399  -0.64365  -0.61418
 Alpha  occ. eigenvalues --   -0.60999  -0.59961  -0.57629  -0.56682  -0.56125
 Alpha  occ. eigenvalues --   -0.54787  -0.54030  -0.53246  -0.51808  -0.48525
 Alpha  occ. eigenvalues --   -0.42315  -0.41768  -0.39742  -0.38795
 Alpha virt. eigenvalues --    0.02785   0.03590   0.04486   0.04550   0.05724
 Alpha virt. eigenvalues --    0.06137   0.06176   0.07008   0.07565   0.07731
 Alpha virt. eigenvalues --    0.09007   0.09598   0.10460   0.11933   0.12749

 Mulliken atomic charges:
              1
     1  H   -0.030124
     2  C    0.313879
     3  H   -0.037368
     4  H    0.074433
     5  C    0.777302
     6  O   -0.842625
     7  N   -0.484637
     8  H   -0.029939
     9  C   -0.118942
    10  H   -0.043777
    11  C    0.694596
    12  H   -0.009411
    13  H    0.021219
    14  H   -0.170103
    15  C    1.003711
    16  O   -0.869126
    17  N   -0.510414
    18  H   -0.128613
    19  C    0.737476
    20  H   -0.100903
    21  H   -0.201614
    22  H   -0.045020
 Sum of Mulliken atomic charges =   0.00000

 Dipole moment (field-independent basis, Debye):
    X=              0.4958    Y=              4.1749    Z=             -1.4343  Tot=              4.4422
 Quadrupole moment (field-independent basis, Debye-Ang):
   XX=            -46.9989   YY=            -62.5650   ZZ=            -64.0846
   XY=             -0.0638   XZ=              7.6754   YZ=             -1.0845

 Normal termination of Gaussian 09 at Sun Feb 12 19:11:16 2017.
