 Gaussian 09, Revision A.02,
 Gaussian 09:  EM64L-G09RevA.02 11-Jun-2009

 -------------------------------------------
 # HF/6-31G* Opt=(ModRedundant) geom=nocrowd
 -------------------------------------------

 ------------------
 Phi Psi fixed scan
 ------------------
 Symbolic Z-matrix:
 Charge =  0 Multiplicity = 1

 SCF Done:  E(RHF) =  -492.558679940     A.U. after   18 cycles
 SCF Done:  E(RHF) =  -492.652193244     A.U. after   15 cycles
 SCF Done:  E(RHF) =  -492.760410318     A.U. after   14 cycles
 SCF Done:  E(RHF) =  -492.814982707     A.U. after   14 cycles
 SCF Done:  E(RHF) =  -492.836126472     A.U. after   13 cycles
 SCF Done:  E(RHF) =  -492.841370292     A.U. after   13 cycles
 SCF Done:  E(RHF) =  -492.842689446     A.U. after   13 cycles
 SCF Done:  E(RHF) =  -492.843203619     A.U. after   12 cycles
 SCF Done:  E(RHF) =  -492.843375031     A.U. after   12 cycles
 SCF Done:  E(RHF) =  -492.843500480     A.U. after   12 cycles
 SCF Done:  E(RHF) =  -492.844801030     A.U. after   11 cycles
 SCF Done:  E(RHF) =  -492.844810235     A.U. after   11 cycles
 SCF Done:  E(RHF) =  -492.844814929     A.U. after   10 cycles
 SCF Done:  E(RHF) =  -492.844828453     A.U. after   11 cycles
 SCF Done:  E(RHF) =  -492.844842443     A.U. after   11 cycles
 SCF Done:  E(RHF) =  -492.844859549     A.U. after   11 cycles
 SCF Done:  E(RHF) =  -492.844865532     A.U. after   11 cycles
 SCF Done:  E(RHF) =  -492.844866305     A.U. after    9 cycles
 SCF Done:  E(RHF) =  -492.844866634     A.U. after   10 cycles
 SCF Done:  E(RHF) =  -492.844866754     A.U. after    8 cycles
 Optimization completed.
    -- Stationary point found.

                         Standard orientation:
 ---------------------------------------------------------------------
 Center     Atomic      Atomic             Coordinates (Angstroms)
 Number     Number       Type             X           Y           Z
 ---------------------------------------------------------------------
      1          1           0       -3.809476   -1.274104    0.323423
      2          6           0       -3.356562   -0.511762   -0.293505
      3          1           0       -3.844506    0.438909   -0.113355
      4          1           0       -3.505722   -0.782424   -1.334023
      5          6           0       -1.867760   -0.481347   -0.008453
      6          8           0       -1.300422   -1.484264    0.344727
      7          7           0       -1.290703    0.724626   -0.190292
      8          1           0       -1.922800    1.436391   -0.479610
      9          6           0        0.097032    1.216505   -0.227071
     10          1           0        0.161675    1.823374   -1.117552
     11          6           0        0.352402    2.108573    0.996572
     12          1           0        0.299299    1.525986    1.908851
     13          1           0        1.331493    2.566838    0.927397
     14          1           0       -0.392045    2.896633    1.050344
     15          6           0        1.309075    0.277710   -0.371721
     16          8           0        2.218522    0.696692   -1.042153
     17          7           0        1.388052   -0.845765    0.350661
     18          1           0        0.530684   -1.260748    0.647118
     19          6           0        2.557454   -1.691207    0.236461
     20          1           0        3.449990   -1.126182    0.465243
     21          1           0        2.461378   -2.502061    0.946062
     22          1           0        2.663954   -2.104893   -0.760767
 ---------------------------------------------------------------------

 The electronic state is 1-A.
 Alpha  occ. eigenvalues --  -20.53913 -20.51349 -15.60512 -15.56243 -11.36919
 Alpha  occ. eigenvalues --  -11.33971 -11.28991 -11.24435 -11.24242 -11.22832
 Alpha  occ. eigenvalues --   -1.40716  -1.38284  -1.25404  -1.21742  -1.06406
 Alpha  occ. eigenvalues --   -1.00176  -0.94658  -0.88516  -0.81875  -0.76871
 Alpha  occ. eigenvalues --   -0.71624  -0.70436  -0.65164  -0.63792  -0.62373
 Alpha  occ. eigenvalues --   -0.62060  -0.60382  -0.58570  -0.58058  -0.57085
 Alpha  occ. eigenvalues --   -0.54712  -0.53717  -0.52895  -0.52080  -0.50233
 Alpha  occ. eigenvalues --   -0.43477  -0.42167  -0.39441  -0.37409
 Alpha virt. eigenvalues --    0.18532   0.20158   0.20343   0.25460   0.26718
 Alpha virt. eigenvalues --    0.28105   0.29023   0.30380   0.30844   0.32257
 Alpha virt. eigenvalues --    0.32549   0.34232   0.34460   0.35720   0.37152

 Mulliken atomic charges:
              1
     1  H    0.217997
     2  C   -0.586727
     3  H    0.174010
     4  H    0.207043
     5  C    0.776415
     6  O   -0.638108
     7  N   -0.830595
     8  H    0.387280
     9  C   -0.014067
    10  H    0.219850
    11  C   -0.481677
    12  H    0.184502
    13  H    0.198530
    14  H    0.160614
    15  C    0.736908
    16  O   -0.624602
    17  N   -0.807973
    18  H    0.461501
    19  C   -0.275069
    20  H    0.190366
    21  H    0.168992
    22  H    0.174809
 Sum of Mulliken atomic charges =   0.00000

 Dipole moment (field-independent basis, Debye):
    X=             -4.1789    Y=              1.5000    Z=              0.6830  Tot=              4.4922
 Quadrupole moment (field-independent basis, Debye-Ang):
   XX=            -58.2830   YY=            -59.4440   ZZ=            -62.5806
   XY=             -8.8022   XZ=              7.5724   YZ=              1.4291

 Normal termination of Gaussian 09 at Thu Feb  9 15:08:49 2017.
