 Gaussian 09, Revision A.02,
 Gaussian 09:  EM64L-G09RevA.02 11-Jun-2009

 -------------------------------------------
 # HF/6-31G* Opt=(ModRedundant) geom=nocrowd
 -------------------------------------------

 ------------------
 Phi Psi fixed scan
 ------------------
 Symbolic Z-matrix:
 Charge =  0 Multiplicity = 1

 SCF Done:  E(RHF) =  -492.815832137     A.U. after   15 cycles
 SCF Done:  E(RHF) =  -492.835357025     A.U. after   15 cycles
 SCF Done:  E(RHF) =  -492.840628910     A.U. after   13 cycles
 SCF Done:  E(RHF) =  -492.842047295     A.U. after   13 cycles
 SCF Done:  E(RHF) =  -492.842648323     A.U. after   13 cycles
 SCF Done:  E(RHF) =  -492.843680518     A.U. after   13 cycles
 SCF Done:  E(RHF) =  -492.844267954     A.U. after   12 cycles
 SCF Done:  E(RHF) =  -492.844519603     A.U. after   12 cycles
 SCF Done:  E(RHF) =  -492.844761698     A.U. after   12 cycles
 SCF Done:  E(RHF) =  -492.845050942     A.U. after   11 cycles
 SCF Done:  E(RHF) =  -492.845356016     A.U. after   12 cycles
 SCF Done:  E(RHF) =  -492.845412093     A.U. after   11 cycles
 SCF Done:  E(RHF) =  -492.845423816     A.U. after   11 cycles
 SCF Done:  E(RHF) =  -492.845432800     A.U. after   10 cycles
 SCF Done:  E(RHF) =  -492.845439103     A.U. after   11 cycles
 SCF Done:  E(RHF) =  -492.845447178     A.U. after   11 cycles
 SCF Done:  E(RHF) =  -492.845452778     A.U. after   11 cycles
 SCF Done:  E(RHF) =  -492.845453988     A.U. after   10 cycles
 SCF Done:  E(RHF) =  -492.845454266     A.U. after    8 cycles
 SCF Done:  E(RHF) =  -492.845454465     A.U. after    9 cycles
 Optimization completed.
    -- Stationary point found.

                         Standard orientation:
 ---------------------------------------------------------------------
 Center     Atomic      Atomic             Coordinates (Angstroms)
 Number     Number       Type             X           Y           Z
 ---------------------------------------------------------------------
      1          1           0        3.466164   -1.646593   -0.562859
      2          6           0        3.187944   -0.823440    0.078990
      3          1           0        3.811413    0.036094   -0.139245
      4          1           0        3.359883   -1.118713    1.109382
      5          6           0        1.712413   -0.538220   -0.106932
      6          8           0        0.947699   -1.391785   -0.467035
      7          7           0        1.341083    0.736064    0.162533
      8          1           0        2.055023    1.338640    0.504373
      9          6           0       -0.011690    1.272689    0.320014
     10          1           0       -0.021913    1.802217    1.262366
     11          6           0       -0.326515    2.261283   -0.804959
     12          1           0       -0.281468    1.785554   -1.777394
     13          1           0       -1.314080    2.690145   -0.677163
     14          1           0        0.398329    3.069205   -0.798772
     15          6           0       -1.108000    0.207121    0.516362
     16          8           0       -1.458595   -0.061623    1.630477
     17          7           0       -1.715854   -0.282620   -0.592036
     18          1           0       -1.130322   -0.335423   -1.395041
     19          6           0       -2.626443   -1.400964   -0.438664
     20          1           0       -3.396248   -1.143792    0.273057
     21          1           0       -3.087772   -1.602685   -1.396767
     22          1           0       -2.114693   -2.292321   -0.091823
 ---------------------------------------------------------------------

 The electronic state is 1-A.
 Alpha  occ. eigenvalues --  -20.53017 -20.52089 -15.59757 -15.56665 -11.35910
 Alpha  occ. eigenvalues --  -11.34007 -11.28569 -11.23942 -11.23910 -11.22947
 Alpha  occ. eigenvalues --   -1.40125  -1.38633  -1.24735  -1.21862  -1.06048
 Alpha  occ. eigenvalues --   -0.99843  -0.94123  -0.88566  -0.81204  -0.76398
 Alpha  occ. eigenvalues --   -0.71402  -0.69399  -0.65307  -0.63900  -0.62773
 Alpha  occ. eigenvalues --   -0.61438  -0.59913  -0.58178  -0.57148  -0.56736
 Alpha  occ. eigenvalues --   -0.54587  -0.53747  -0.52795  -0.51808  -0.50759
 Alpha  occ. eigenvalues --   -0.42742  -0.42048  -0.39460  -0.37765
 Alpha virt. eigenvalues --    0.18745   0.19086   0.22129   0.24457   0.25939
 Alpha virt. eigenvalues --    0.28196   0.28964   0.30193   0.30830   0.31568
 Alpha virt. eigenvalues --    0.32688   0.34060   0.34296   0.35414   0.37384

 Mulliken atomic charges:
              1
     1  H    0.215819
     2  C   -0.587971
     3  H    0.173789
     4  H    0.207135
     5  C    0.758032
     6  O   -0.618684
     7  N   -0.814447
     8  H    0.385162
     9  C   -0.030987
    10  H    0.218150
    11  C   -0.468205
    12  H    0.168201
    13  H    0.183710
    14  H    0.161768
    15  C    0.755936
    16  O   -0.601916
    17  N   -0.752127
    18  H    0.388774
    19  C   -0.287413
    20  H    0.195976
    21  H    0.163962
    22  H    0.185336
 Sum of Mulliken atomic charges =   0.00000

 Dipole moment (field-independent basis, Debye):
    X=              3.1972    Y=              2.7202    Z=             -1.8930  Tot=              4.6049
 Quadrupole moment (field-independent basis, Debye-Ang):
   XX=            -52.3450   YY=            -59.3379   ZZ=            -64.7468
   XY=              3.7468   XZ=              7.0710   YZ=              1.3086

 Normal termination of Gaussian 09 at Thu Feb  9 14:59:20 2017.
