 Gaussian 09, Revision A.02,
 Gaussian 09:  EM64L-G09RevA.02 11-Jun-2009

 -------------------------------------------
 # HF/6-31G* Opt=(ModRedundant) geom=nocrowd
 -------------------------------------------

 ------------------
 Phi Psi fixed scan
 ------------------
 Symbolic Z-matrix:
 Charge =  0 Multiplicity = 1

 SCF Done:  E(RHF) =  -492.757892869     A.U. after   16 cycles
 SCF Done:  E(RHF) =  -492.825813767     A.U. after   15 cycles
 SCF Done:  E(RHF) =  -492.827219513     A.U. after   14 cycles
 SCF Done:  E(RHF) =  -492.829132154     A.U. after   13 cycles
 SCF Done:  E(RHF) =  -492.831842131     A.U. after   13 cycles
 SCF Done:  E(RHF) =  -492.833750202     A.U. after   13 cycles
 SCF Done:  E(RHF) =  -492.834578262     A.U. after   13 cycles
 SCF Done:  E(RHF) =  -492.835307759     A.U. after   13 cycles
 SCF Done:  E(RHF) =  -492.835943272     A.U. after   13 cycles
 SCF Done:  E(RHF) =  -492.836270443     A.U. after   12 cycles
 SCF Done:  E(RHF) =  -492.836473402     A.U. after   11 cycles
 SCF Done:  E(RHF) =  -492.836638654     A.U. after   13 cycles
 SCF Done:  E(RHF) =  -492.836819026     A.U. after   12 cycles
 SCF Done:  E(RHF) =  -492.836991853     A.U. after   12 cycles
 SCF Done:  E(RHF) =  -492.837027145     A.U. after   11 cycles
 SCF Done:  E(RHF) =  -492.837041538     A.U. after   11 cycles
 SCF Done:  E(RHF) =  -492.837082263     A.U. after   11 cycles
 SCF Done:  E(RHF) =  -492.837106194     A.U. after   11 cycles
 SCF Done:  E(RHF) =  -492.837108417     A.U. after   10 cycles
 SCF Done:  E(RHF) =  -492.837108605     A.U. after    9 cycles
 Optimization completed.
    -- Stationary point found.

                         Standard orientation:
 ---------------------------------------------------------------------
 Center     Atomic      Atomic             Coordinates (Angstroms)
 Number     Number       Type             X           Y           Z
 ---------------------------------------------------------------------
      1          1           0       -3.651761   -1.634321    0.246275
      2          6           0       -3.303892   -0.627851    0.067949
      3          1           0       -3.550164   -0.010544    0.926729
      4          1           0       -3.811517   -0.217141   -0.798935
      5          6           0       -1.801214   -0.655972   -0.126419
      6          8           0       -1.147068   -1.623957    0.115895
      7          7           0       -1.285456    0.494910   -0.669728
      8          1           0       -1.966642    1.210287   -0.803259
      9          6           0        0.045090    1.067225   -0.472163
     10          1           0        0.408357    1.367015   -1.449880
     11          6           0       -0.031997    2.311861    0.414868
     12          1           0       -0.361606    2.040284    1.408816
     13          1           0        0.940605    2.785876    0.490774
     14          1           0       -0.723249    3.036199   -0.007223
     15          6           0        1.075048    0.114169    0.151693
     16          8           0        1.015124   -0.204446    1.302591
     17          7           0        2.165862   -0.120167   -0.618595
     18          1           0        2.056341   -0.038389   -1.603736
     19          6           0        3.204203   -1.014851   -0.146472
     20          1           0        3.526217   -0.701656    0.835208
     21          1           0        2.859230   -2.041066   -0.083576
     22          1           0        4.043473   -0.960014   -0.827558
 ---------------------------------------------------------------------

 The electronic state is 1-A.
 Alpha  occ. eigenvalues --  -20.52123 -20.51586 -15.58499 -15.58228 -11.34628
 Alpha  occ. eigenvalues --  -11.34186 -11.28627 -11.25014 -11.23085 -11.22826
 Alpha  occ. eigenvalues --   -1.39462  -1.38267  -1.23855  -1.22652  -1.05575
 Alpha  occ. eigenvalues --   -0.99123  -0.95622  -0.87549  -0.80510  -0.77299
 Alpha  occ. eigenvalues --   -0.69531  -0.68849  -0.66351  -0.63632  -0.62191
 Alpha  occ. eigenvalues --   -0.61460  -0.59778  -0.58092  -0.57774  -0.55489
 Alpha  occ. eigenvalues --   -0.54638  -0.54263  -0.53370  -0.51481  -0.49778
 Alpha  occ. eigenvalues --   -0.41857  -0.40839  -0.38779  -0.38566
 Alpha virt. eigenvalues --    0.19712   0.20397   0.20969   0.22963   0.26761
 Alpha virt. eigenvalues --    0.27271   0.28429   0.30746   0.31140   0.32111
 Alpha virt. eigenvalues --    0.32255   0.33593   0.34106   0.35112   0.37727

 Mulliken atomic charges:
              1
     1  H    0.217079
     2  C   -0.594931
     3  H    0.193286
     4  H    0.177922
     5  C    0.750130
     6  O   -0.572195
     7  N   -0.805436
     8  H    0.371298
     9  C   -0.015125
    10  H    0.179724
    11  C   -0.497822
    12  H    0.208016
    13  H    0.181046
    14  H    0.154849
    15  C    0.788652
    16  O   -0.600127
    17  N   -0.789451
    18  H    0.379367
    19  C   -0.282899
    20  H    0.204222
    21  H    0.187253
    22  H    0.165142
 Sum of Mulliken atomic charges =   0.00000

 Dipole moment (field-independent basis, Debye):
    X=             -0.7822    Y=              3.5646    Z=             -3.5566  Tot=              5.0958
 Quadrupole moment (field-independent basis, Debye-Ang):
   XX=            -47.0641   YY=            -62.3276   ZZ=            -62.1788
   XY=             -4.9382   XZ=             -4.0851   YZ=              0.9960

 Normal termination of Gaussian 09 at Thu Feb  9 14:26:55 2017.
