 Gaussian 09, Revision A.02,
 Gaussian 09:  EM64L-G09RevA.02 11-Jun-2009

 -------------------------------------------
 # HF/6-31G* Opt=(ModRedundant) geom=nocrowd
 -------------------------------------------

 ------------------
 Phi Psi fixed scan
 ------------------
 Symbolic Z-matrix:
 Charge =  0 Multiplicity = 1

 SCF Done:  E(RHF) =  -492.811508652     A.U. after   15 cycles
 SCF Done:  E(RHF) =  -492.833142867     A.U. after   14 cycles
 SCF Done:  E(RHF) =  -492.840084675     A.U. after   14 cycles
 SCF Done:  E(RHF) =  -492.841401375     A.U. after   13 cycles
 SCF Done:  E(RHF) =  -492.842004498     A.U. after   13 cycles
 SCF Done:  E(RHF) =  -492.842981841     A.U. after   13 cycles
 SCF Done:  E(RHF) =  -492.843520944     A.U. after   13 cycles
 SCF Done:  E(RHF) =  -492.843589762     A.U. after   13 cycles
 SCF Done:  E(RHF) =  -492.843794489     A.U. after   12 cycles
 SCF Done:  E(RHF) =  -492.844009279     A.U. after   12 cycles
 SCF Done:  E(RHF) =  -492.844437534     A.U. after   15 cycles
 SCF Done:  E(RHF) =  -492.844578880     A.U. after   13 cycles
 SCF Done:  E(RHF) =  -492.844658243     A.U. after   11 cycles
 SCF Done:  E(RHF) =  -492.844724065     A.U. after   11 cycles
 SCF Done:  E(RHF) =  -492.844743901     A.U. after   11 cycles
 SCF Done:  E(RHF) =  -492.844758894     A.U. after   11 cycles
 SCF Done:  E(RHF) =  -492.844760152     A.U. after    9 cycles
 SCF Done:  E(RHF) =  -492.844760311     A.U. after    8 cycles
 Optimization completed.
    -- Stationary point found.

                         Standard orientation:
 ---------------------------------------------------------------------
 Center     Atomic      Atomic             Coordinates (Angstroms)
 Number     Number       Type             X           Y           Z
 ---------------------------------------------------------------------
      1          1           0        3.410770   -1.644154   -0.695030
      2          6           0        3.127158   -0.868283    0.000616
      3          1           0        3.826340   -0.042015   -0.067790
      4          1           0        3.170415   -1.269927    1.008471
      5          6           0        1.708632   -0.437302   -0.294599
      6          8           0        0.950116   -1.113644   -0.929090
      7          7           0        1.367246    0.798723    0.176337
      8          1           0        2.040468    1.216226    0.779628
      9          6           0       -0.006937    1.209408    0.463583
     10          1           0       -0.017375    1.584024    1.479372
     11          6           0       -0.424442    2.338701   -0.478694
     12          1           0       -0.368992    2.023972   -1.515619
     13          1           0       -1.429605    2.684576   -0.263946
     14          1           0        0.253749    3.176723   -0.361947
     15          6           0       -0.960570    0.001506    0.531437
     16          8           0       -0.836641   -0.777472    1.434892
     17          7           0       -1.993582   -0.037547   -0.338739
     18          1           0       -1.869380    0.436902   -1.203065
     19          6           0       -2.837151   -1.216617   -0.375917
     20          1           0       -3.225906   -1.411363    0.612129
     21          1           0       -3.663714   -1.028065   -1.048740
     22          1           0       -2.290356   -2.090686   -0.711613
 ---------------------------------------------------------------------

 The electronic state is 1-A.
 Alpha  occ. eigenvalues --  -20.52636 -20.51270 -15.58807 -15.57503 -11.35056
 Alpha  occ. eigenvalues --  -11.33976 -11.28423 -11.24458 -11.23294 -11.22850
 Alpha  occ. eigenvalues --   -1.39864  -1.38054  -1.23935  -1.22346  -1.05637
 Alpha  occ. eigenvalues --   -0.99436  -0.94472  -0.88464  -0.80296  -0.77025
 Alpha  occ. eigenvalues --   -0.71153  -0.69193  -0.64856  -0.63966  -0.62255
 Alpha  occ. eigenvalues --   -0.61152  -0.59825  -0.57691  -0.57083  -0.56282
 Alpha  occ. eigenvalues --   -0.54517  -0.54277  -0.52927  -0.52136  -0.49501
 Alpha  occ. eigenvalues --   -0.41911  -0.41522  -0.39322  -0.38208
 Alpha virt. eigenvalues --    0.18665   0.19635   0.22756   0.24211   0.26305
 Alpha virt. eigenvalues --    0.28069   0.29651   0.30193   0.30852   0.31711
 Alpha virt. eigenvalues --    0.31998   0.33877   0.34525   0.35194   0.38053

 Mulliken atomic charges:
              1
     1  H    0.215531
     2  C   -0.595069
     3  H    0.177244
     4  H    0.206269
     5  C    0.762151
     6  O   -0.604622
     7  N   -0.794425
     8  H    0.379221
     9  C   -0.022282
    10  H    0.209524
    11  C   -0.489971
    12  H    0.173239
    13  H    0.178156
    14  H    0.173713
    15  C    0.780305
    16  O   -0.620835
    17  N   -0.785202
    18  H    0.386859
    19  C   -0.283827
    20  H    0.200016
    21  H    0.163255
    22  H    0.190749
 Sum of Mulliken atomic charges =   0.00000

 Dipole moment (field-independent basis, Debye):
    X=              1.3365    Y=              3.5814    Z=             -0.6715  Tot=              3.8812
 Quadrupole moment (field-independent basis, Debye-Ang):
   XX=            -48.5618   YY=            -60.6453   ZZ=            -63.8045
   XY=              1.3186   XZ=              7.2258   YZ=              2.1868

 Normal termination of Gaussian 09 at Thu Feb  9 14:54:35 2017.
