 Gaussian 09, Revision A.02,
 Gaussian 09:  EM64L-G09RevA.02 11-Jun-2009

 -------------------------------------------
 # HF/6-31G* Opt=(ModRedundant) geom=nocrowd
 -------------------------------------------

 ------------------
 Phi Psi fixed scan
 ------------------
 Symbolic Z-matrix:
 Charge =  0 Multiplicity = 1

 SCF Done:  E(RHF) =  -492.748271107     A.U. after   16 cycles
 SCF Done:  E(RHF) =  -492.813865299     A.U. after   15 cycles
 SCF Done:  E(RHF) =  -492.817972820     A.U. after   14 cycles
 SCF Done:  E(RHF) =  -492.829142143     A.U. after   13 cycles
 SCF Done:  E(RHF) =  -492.833203671     A.U. after   14 cycles
 SCF Done:  E(RHF) =  -492.834861079     A.U. after   14 cycles
 SCF Done:  E(RHF) =  -492.836189648     A.U. after   13 cycles
 SCF Done:  E(RHF) =  -492.836774038     A.U. after   13 cycles
 SCF Done:  E(RHF) =  -492.837147796     A.U. after   13 cycles
 SCF Done:  E(RHF) =  -492.837381892     A.U. after   12 cycles
 SCF Done:  E(RHF) =  -492.838024617     A.U. after   13 cycles
 SCF Done:  E(RHF) =  -492.838088309     A.U. after   11 cycles
 SCF Done:  E(RHF) =  -492.838255832     A.U. after   13 cycles
 SCF Done:  E(RHF) =  -492.838264324     A.U. after   12 cycles
 SCF Done:  E(RHF) =  -492.838320750     A.U. after   11 cycles
 SCF Done:  E(RHF) =  -492.838326274     A.U. after   11 cycles
 SCF Done:  E(RHF) =  -492.838327462     A.U. after   10 cycles
 SCF Done:  E(RHF) =  -492.838327774     A.U. after    9 cycles
 SCF Done:  E(RHF) =  -492.838327879     A.U. after    8 cycles
 SCF Done:  E(RHF) =  -492.838327912     A.U. after    7 cycles
 Optimization completed.
    -- Stationary point found.

                         Standard orientation:
 ---------------------------------------------------------------------
 Center     Atomic      Atomic             Coordinates (Angstroms)
 Number     Number       Type             X           Y           Z
 ---------------------------------------------------------------------
      1          1           0       -3.583078   -1.499117    0.474276
      2          6           0       -3.143272   -0.809438   -0.230690
      3          1           0       -3.836861    0.001252   -0.429268
      4          1           0       -2.951156   -1.330747   -1.163498
      5          6           0       -1.832223   -0.303887    0.324331
      6          8           0       -1.282816   -0.817361    1.251534
      7          7           0       -1.352200    0.846602   -0.268531
      8          1           0       -1.899885    1.127357   -1.052334
      9          6           0        0.068915    1.104052   -0.495248
     10          1           0        0.181135    1.356118   -1.544509
     11          6           0        0.512771    2.307093    0.341400
     12          1           0        0.474367    2.073103    1.400045
     13          1           0        1.511668    2.640871    0.079666
     14          1           0       -0.164786    3.133525    0.164651
     15          6           0        0.932870   -0.160993   -0.352039
     16          8           0        0.559548   -1.196666   -0.826349
     17          7           0        2.204524    0.016117    0.076379
     18          1           0        2.396933    0.788425    0.669627
     19          6           0        3.084702   -1.130577    0.194458
     20          1           0        3.118652   -1.657189   -0.747381
     21          1           0        4.078199   -0.777013    0.437517
     22          1           0        2.752111   -1.820899    0.961538
 ---------------------------------------------------------------------

 The electronic state is 1-A.
 Alpha  occ. eigenvalues --  -20.51877 -20.51759 -15.58335 -15.57886 -11.34429
 Alpha  occ. eigenvalues --  -11.34202 -11.28738 -11.25221 -11.22916 -11.22592
 Alpha  occ. eigenvalues --   -1.39659  -1.38030  -1.23353  -1.22842  -1.05438
 Alpha  occ. eigenvalues --   -0.98947  -0.95031  -0.88513  -0.79815  -0.77411
 Alpha  occ. eigenvalues --   -0.70666  -0.69017  -0.64587  -0.64310  -0.61732
 Alpha  occ. eigenvalues --   -0.61333  -0.59978  -0.57795  -0.56736  -0.56187
 Alpha  occ. eigenvalues --   -0.55103  -0.54245  -0.53489  -0.51831  -0.48663
 Alpha  occ. eigenvalues --   -0.41830  -0.41213  -0.39242  -0.38537
 Alpha virt. eigenvalues --    0.18402   0.19959   0.22982   0.23596   0.26448
 Alpha virt. eigenvalues --    0.27747   0.29948   0.30056   0.30914   0.31508
 Alpha virt. eigenvalues --    0.32744   0.33310   0.34445   0.35272   0.37453

 Mulliken atomic charges:
              1
     1  H    0.213791
     2  C   -0.599996
     3  H    0.174466
     4  H    0.205544
     5  C    0.769728
     6  O   -0.586514
     7  N   -0.786560
     8  H    0.370766
     9  C   -0.028378
    10  H    0.207430
    11  C   -0.501240
    12  H    0.190047
    13  H    0.159130
    14  H    0.183863
    15  C    0.780552
    16  O   -0.617371
    17  N   -0.801742
    18  H    0.391139
    19  C   -0.279205
    20  H    0.202415
    21  H    0.165047
    22  H    0.187089
 Sum of Mulliken atomic charges =   0.00000

 Dipole moment (field-independent basis, Debye):
    X=              0.7018    Y=              3.7881    Z=             -1.5327  Tot=              4.1462
 Quadrupole moment (field-independent basis, Debye-Ang):
   XX=            -47.0902   YY=            -61.9458   ZZ=            -62.8204
   XY=             -0.1767   XZ=              7.7229   YZ=             -1.0855

 Normal termination of Gaussian 09 at Thu Feb  9 14:49:35 2017.
