 Gaussian 09, Revision A.02,
 Gaussian 09:  EM64L-G09RevA.02 11-Jun-2009

 -------------------------------------------
 # HF/6-31G* Opt=(ModRedundant) geom=nocrowd
 -------------------------------------------

 ------------------
 Phi Psi fixed scan
 ------------------
 Symbolic Z-matrix:
 Charge =  0 Multiplicity = 1

 SCF Done:  E(RHF) =  -492.521619503     A.U. after   19 cycles
 SCF Done:  E(RHF) =  -492.622331940     A.U. after   17 cycles
 SCF Done:  E(RHF) =  -492.744469303     A.U. after   14 cycles
 SCF Done:  E(RHF) =  -492.812582818     A.U. after   14 cycles
 SCF Done:  E(RHF) =  -492.835342597     A.U. after   14 cycles
 SCF Done:  E(RHF) =  -492.840651663     A.U. after   13 cycles
 SCF Done:  E(RHF) =  -492.841754575     A.U. after   12 cycles
 SCF Done:  E(RHF) =  -492.842112947     A.U. after   12 cycles
 SCF Done:  E(RHF) =  -492.842260867     A.U. after   12 cycles
 SCF Done:  E(RHF) =  -492.842351177     A.U. after   12 cycles
 SCF Done:  E(RHF) =  -492.843780384     A.U. after   11 cycles
 SCF Done:  E(RHF) =  -492.843786253     A.U. after   10 cycles
 SCF Done:  E(RHF) =  -492.843786400     A.U. after    8 cycles
 SCF Done:  E(RHF) =  -492.843786525     A.U. after    8 cycles
 SCF Done:  E(RHF) =  -492.843786620     A.U. after    8 cycles
 SCF Done:  E(RHF) =  -492.843786753     A.U. after    8 cycles
 SCF Done:  E(RHF) =  -492.843786907     A.U. after    8 cycles
 SCF Done:  E(RHF) =  -492.843787099     A.U. after    9 cycles
 SCF Done:  E(RHF) =  -492.843787178     A.U. after    8 cycles
 SCF Done:  E(RHF) =  -492.843787223     A.U. after    8 cycles
 Optimization completed.
    -- Stationary point found.

                         Standard orientation:
 ---------------------------------------------------------------------
 Center     Atomic      Atomic             Coordinates (Angstroms)
 Number     Number       Type             X           Y           Z
 ---------------------------------------------------------------------
      1          1           0       -3.819617   -1.011708    0.665598
      2          6           0       -3.340700   -0.546605   -0.184572
      3          1           0       -3.793734    0.419426   -0.371128
      4          1           0       -3.505938   -1.181016   -1.049058
      5          6           0       -1.849688   -0.482403    0.084035
      6          8           0       -1.304013   -1.403340    0.640534
      7          7           0       -1.248606    0.641724   -0.351825
      8          1           0       -1.868020    1.282556   -0.793390
      9          6           0        0.130389    1.162200   -0.380952
     10          1           0        0.284381    1.497886   -1.401112
     11          6           0        0.196030    2.383467    0.543475
     12          1           0        0.054018    2.080794    1.575252
     13          1           0        1.150941    2.876959    0.450952
     14          1           0       -0.590596    3.086998    0.287597
     15          6           0        1.373561    0.280034   -0.142629
     16          8           0        2.419578    0.871234   -0.051103
     17          7           0        1.295433   -1.053357   -0.187601
     18          1           0        0.416636   -1.473689    0.026735
     19          6           0        2.494050   -1.843377    0.002993
     20          1           0        3.246677   -1.558792   -0.718483
     21          1           0        2.910823   -1.716187    0.996320
     22          1           0        2.240259   -2.884848   -0.142859
 ---------------------------------------------------------------------

 The electronic state is 1-A.
 Alpha  occ. eigenvalues --  -20.53800 -20.51311 -15.60692 -15.56338 -11.37007
 Alpha  occ. eigenvalues --  -11.34236 -11.29346 -11.24506 -11.24268 -11.22101
 Alpha  occ. eigenvalues --   -1.40718  -1.38438  -1.25558  -1.21817  -1.06235
 Alpha  occ. eigenvalues --   -1.00006  -0.95012  -0.88114  -0.81981  -0.77066
 Alpha  occ. eigenvalues --   -0.71534  -0.70523  -0.65822  -0.64007  -0.62509
 Alpha  occ. eigenvalues --   -0.61141  -0.60506  -0.59137  -0.58381  -0.56231
 Alpha  occ. eigenvalues --   -0.54310  -0.53958  -0.52499  -0.51889  -0.50153
 Alpha  occ. eigenvalues --   -0.43321  -0.41250  -0.40397  -0.37640
 Alpha virt. eigenvalues --    0.18130   0.19188   0.21483   0.25867   0.26950
 Alpha virt. eigenvalues --    0.28514   0.28778   0.30403   0.31418   0.31775
 Alpha virt. eigenvalues --    0.33402   0.34024   0.34578   0.35534   0.38174

 Mulliken atomic charges:
              1
     1  H    0.217904
     2  C   -0.582355
     3  H    0.171020
     4  H    0.207874
     5  C    0.776514
     6  O   -0.643471
     7  N   -0.832242
     8  H    0.387543
     9  C   -0.019599
    10  H    0.214571
    11  C   -0.474808
    12  H    0.177704
    13  H    0.218696
    14  H    0.148180
    15  C    0.760651
    16  O   -0.629261
    17  N   -0.826613
    18  H    0.467644
    19  C   -0.275398
    20  H    0.190696
    21  H    0.176174
    22  H    0.168576
 Sum of Mulliken atomic charges =   0.00000

 Dipole moment (field-independent basis, Debye):
    X=             -4.3709    Y=              0.8696    Z=             -1.7658  Tot=              4.7937
 Quadrupole moment (field-independent basis, Debye-Ang):
   XX=            -60.4693   YY=            -59.7522   ZZ=            -60.4632
   XY=             -9.2786   XZ=              3.2927   YZ=              0.3048

 Normal termination of Gaussian 09 at Thu Feb  9 14:00:46 2017.
