 Gaussian 09, Revision A.02,
 Gaussian 09:  EM64L-G09RevA.02 11-Jun-2009

 -------------------------------------------
 # HF/6-31G* Opt=(ModRedundant) geom=nocrowd
 -------------------------------------------

 ------------------
 Phi Psi fixed scan
 ------------------
 Symbolic Z-matrix:
 Charge =  0 Multiplicity = 1

 SCF Done:  E(RHF) =  -492.682565860     A.U. after   18 cycles
 SCF Done:  E(RHF) =  -492.744674848     A.U. after   15 cycles
 SCF Done:  E(RHF) =  -492.802237305     A.U. after   14 cycles
 SCF Done:  E(RHF) =  -492.810572341     A.U. after   14 cycles
 SCF Done:  E(RHF) =  -492.823701002     A.U. after   14 cycles
 SCF Done:  E(RHF) =  -492.826797186     A.U. after   14 cycles
 SCF Done:  E(RHF) =  -492.828664032     A.U. after   13 cycles
 SCF Done:  E(RHF) =  -492.829371636     A.U. after   13 cycles
 SCF Done:  E(RHF) =  -492.829903404     A.U. after   13 cycles
 SCF Done:  E(RHF) =  -492.830404433     A.U. after   13 cycles
 SCF Done:  E(RHF) =  -492.831573667     A.U. after   13 cycles
 SCF Done:  E(RHF) =  -492.831917123     A.U. after   13 cycles
 SCF Done:  E(RHF) =  -492.832005238     A.U. after   12 cycles
 SCF Done:  E(RHF) =  -492.832123142     A.U. after   12 cycles
 SCF Done:  E(RHF) =  -492.832230741     A.U. after   11 cycles
 SCF Done:  E(RHF) =  -492.832297963     A.U. after   12 cycles
 SCF Done:  E(RHF) =  -492.832325184     A.U. after   11 cycles
 SCF Done:  E(RHF) =  -492.832342641     A.U. after   11 cycles
 SCF Done:  E(RHF) =  -492.832347607     A.U. after   11 cycles
 SCF Done:  E(RHF) =  -492.832348005     A.U. after   10 cycles
 Optimization completed.
    -- Stationary point found.

                         Standard orientation:
 ---------------------------------------------------------------------
 Center     Atomic      Atomic             Coordinates (Angstroms)
 Number     Number       Type             X           Y           Z
 ---------------------------------------------------------------------
      1          1           0       -3.827312   -1.386715    0.251882
      2          6           0       -3.380319   -0.414011    0.111353
      3          1           0       -3.517976    0.174585    1.013503
      4          1           0       -3.880662    0.098766   -0.704248
      5          6           0       -1.900153   -0.590867   -0.167528
      6          8           0       -1.356492   -1.644312   -0.052555
      7          7           0       -1.286903    0.548604   -0.641274
      8          1           0       -1.911360    1.323778   -0.695108
      9          6           0        0.081136    1.019414   -0.440676
     10          1           0        0.438610    1.366578   -1.404945
     11          6           0        0.098420    2.205207    0.531725
     12          1           0       -0.237038    1.886668    1.510439
     13          1           0        1.100297    2.610220    0.621930
     14          1           0       -0.551198    2.999133    0.173963
     15          6           0        1.079870   -0.008209    0.103486
     16          8           0        0.914616   -0.566628    1.146461
     17          7           0        2.275490   -0.008221   -0.541912
     18          1           0        2.285296    0.265033   -1.497868
     19          6           0        3.334588   -0.894426   -0.101756
     20          1           0        3.498653   -0.757997    0.956546
     21          1           0        3.095093   -1.937264   -0.279255
     22          1           0        4.241249   -0.640599   -0.635412
 ---------------------------------------------------------------------

 The electronic state is 1-A.
 Alpha  occ. eigenvalues --  -20.51855 -20.51784 -15.58403 -15.58189 -11.34346
 Alpha  occ. eigenvalues --  -11.34302 -11.28818 -11.25252 -11.23187 -11.22834
 Alpha  occ. eigenvalues --   -1.39441  -1.38191  -1.23688  -1.22753  -1.05680
 Alpha  occ. eigenvalues --   -0.98968  -0.95683  -0.87761  -0.80480  -0.77311
 Alpha  occ. eigenvalues --   -0.69304  -0.68649  -0.66350  -0.63727  -0.62404
 Alpha  occ. eigenvalues --   -0.61312  -0.59683  -0.57964  -0.57784  -0.55529
 Alpha  occ. eigenvalues --   -0.54861  -0.54667  -0.53452  -0.51650  -0.49477
 Alpha  occ. eigenvalues --   -0.42040  -0.40485  -0.38844  -0.38363
 Alpha virt. eigenvalues --    0.19727   0.20282   0.20757   0.22827   0.26924
 Alpha virt. eigenvalues --    0.27034   0.28219   0.30815   0.31132   0.31967
 Alpha virt. eigenvalues --    0.32286   0.33503   0.34106   0.34884   0.37725

 Mulliken atomic charges:
              1
     1  H    0.216582
     2  C   -0.596115
     3  H    0.190191
     4  H    0.177162
     5  C    0.750794
     6  O   -0.560934
     7  N   -0.807500
     8  H    0.369120
     9  C   -0.006326
    10  H    0.176027
    11  C   -0.501556
    12  H    0.205012
    13  H    0.183289
    14  H    0.159247
    15  C    0.771534
    16  O   -0.588259
    17  N   -0.790762
    18  H    0.378231
    19  C   -0.280496
    20  H    0.204728
    21  H    0.184303
    22  H    0.165729
 Sum of Mulliken atomic charges =   0.00000

 Dipole moment (field-independent basis, Debye):
    X=              0.0964    Y=              4.5744    Z=             -2.8264  Tot=              5.3780
 Quadrupole moment (field-independent basis, Debye-Ang):
   XX=            -46.4135   YY=            -63.5101   ZZ=            -61.4150
   XY=             -5.0139   XZ=             -4.4452   YZ=              0.8404

 Normal termination of Gaussian 09 at Thu Feb  9 14:29:50 2017.
