 Gaussian 09, Revision A.02,
 Gaussian 09:  EM64L-G09RevA.02 11-Jun-2009

 -------------------------------------------
 # HF/6-31G* Opt=(ModRedundant) geom=nocrowd
 -------------------------------------------

 ------------------
 Phi Psi fixed scan
 ------------------
 Symbolic Z-matrix:
 Charge =  0 Multiplicity = 1

 SCF Done:  E(RHF) =  -492.796275521     A.U. after   15 cycles
 SCF Done:  E(RHF) =  -492.835327890     A.U. after   15 cycles
 SCF Done:  E(RHF) =  -492.840591061     A.U. after   13 cycles
 SCF Done:  E(RHF) =  -492.841489921     A.U. after   16 cycles
 SCF Done:  E(RHF) =  -492.841950351     A.U. after   13 cycles
 SCF Done:  E(RHF) =  -492.842443053     A.U. after   12 cycles
 SCF Done:  E(RHF) =  -492.842838441     A.U. after   13 cycles
 SCF Done:  E(RHF) =  -492.843128013     A.U. after   16 cycles
 SCF Done:  E(RHF) =  -492.843350634     A.U. after   12 cycles
 SCF Done:  E(RHF) =  -492.843574216     A.U. after   13 cycles
 SCF Done:  E(RHF) =  -492.844205673     A.U. after   10 cycles
 SCF Done:  E(RHF) =  -492.844208330     A.U. after   10 cycles
 SCF Done:  E(RHF) =  -492.844211937     A.U. after   10 cycles
 SCF Done:  E(RHF) =  -492.844219838     A.U. after   10 cycles
 SCF Done:  E(RHF) =  -492.844229207     A.U. after   11 cycles
 SCF Done:  E(RHF) =  -492.844233464     A.U. after   10 cycles
 SCF Done:  E(RHF) =  -492.844233139     A.U. after   10 cycles
 SCF Done:  E(RHF) =  -492.844237260     A.U. after   11 cycles
 SCF Done:  E(RHF) =  -492.844238057     A.U. after    9 cycles
 SCF Done:  E(RHF) =  -492.844238228     A.U. after   10 cycles
 Optimization completed.
    -- Stationary point found.

                         Standard orientation:
 ---------------------------------------------------------------------
 Center     Atomic      Atomic             Coordinates (Angstroms)
 Number     Number       Type             X           Y           Z
 ---------------------------------------------------------------------
      1          1           0       -3.443257   -1.806730   -0.025521
      2          6           0       -3.238995   -0.745944   -0.049207
      3          1           0       -3.759250   -0.282467    0.782845
      4          1           0       -3.619968   -0.322591   -0.971178
      5          6           0       -1.748813   -0.536723    0.134905
      6          8           0       -1.094168   -1.303457    0.791545
      7          7           0       -1.259729    0.576863   -0.452907
      8          1           0       -1.917701    1.106617   -0.977966
      9          6           0        0.084912    1.161649   -0.486867
     10          1           0        0.288228    1.370077   -1.534042
     11          6           0        0.074562    2.483458    0.280426
     12          1           0       -0.078279    2.305272    1.337779
     13          1           0        1.009327    3.009250    0.154348
     14          1           0       -0.732402    3.113062   -0.083290
     15          6           0        1.293334    0.305744   -0.056805
     16          8           0        2.197234    0.841708    0.520482
     17          7           0        1.370968   -0.963533   -0.520733
     18          1           0        0.505470   -1.448412   -0.578434
     19          6           0        2.498215   -1.779490   -0.111093
     20          1           0        3.421166   -1.284985   -0.374786
     21          1           0        2.500528   -1.966438    0.957618
     22          1           0        2.443641   -2.724136   -0.636264
 ---------------------------------------------------------------------

 The electronic state is 1-A.
 Alpha  occ. eigenvalues --  -20.53400 -20.52300 -15.60361 -15.56483 -11.36505
 Alpha  occ. eigenvalues --  -11.34384 -11.29064 -11.24364 -11.24113 -11.21786
 Alpha  occ. eigenvalues --   -1.40486  -1.39060  -1.25308  -1.21782  -1.06039
 Alpha  occ. eigenvalues --   -0.99862  -0.94872  -0.87682  -0.81733  -0.76552
 Alpha  occ. eigenvalues --   -0.71398  -0.70115  -0.66088  -0.64130  -0.62709
 Alpha  occ. eigenvalues --   -0.61193  -0.60415  -0.58840  -0.58088  -0.55906
 Alpha  occ. eigenvalues --   -0.54143  -0.53174  -0.52290  -0.51977  -0.50751
 Alpha  occ. eigenvalues --   -0.43237  -0.41748  -0.40226  -0.37933
 Alpha virt. eigenvalues --    0.18205   0.19004   0.21862   0.25477   0.26543
 Alpha virt. eigenvalues --    0.28774   0.29131   0.29490   0.31034   0.31795
 Alpha virt. eigenvalues --    0.32848   0.33600   0.34389   0.34796   0.38471

 Mulliken atomic charges:
              1
     1  H    0.215612
     2  C   -0.581870
     3  H    0.208768
     4  H    0.170946
     5  C    0.751168
     6  O   -0.623691
     7  N   -0.824256
     8  H    0.386375
     9  C   -0.027865
    10  H    0.207099
    11  C   -0.458764
    12  H    0.185866
    13  H    0.201845
    14  H    0.143298
    15  C    0.762900
    16  O   -0.607082
    17  N   -0.775189
    18  H    0.410461
    19  C   -0.283894
    20  H    0.193669
    21  H    0.179236
    22  H    0.165368
 Sum of Mulliken atomic charges =   0.00000

 Dipole moment (field-independent basis, Debye):
    X=             -4.2147    Y=              0.5937    Z=             -3.1662  Tot=              5.3048
 Quadrupole moment (field-independent basis, Debye-Ang):
   XX=            -57.6162   YY=            -59.1359   ZZ=            -62.0401
   XY=             -6.9900   XZ=              0.4643   YZ=             -0.1478

 Normal termination of Gaussian 09 at Thu Feb  9 14:12:15 2017.
