 Gaussian 09, Revision A.02,
 Gaussian 09:  EM64L-G09RevA.02 11-Jun-2009

 -------------------------------------------
 # HF/6-31G* Opt=(ModRedundant) geom=nocrowd
 -------------------------------------------

 ------------------
 Phi Psi fixed scan
 ------------------
 Symbolic Z-matrix:
 Charge =  0 Multiplicity = 1

 SCF Done:  E(RHF) =  -492.719057441     A.U. after   17 cycles
 SCF Done:  E(RHF) =  -492.807317285     A.U. after   14 cycles
 SCF Done:  E(RHF) =  -492.831304648     A.U. after   15 cycles
 SCF Done:  E(RHF) =  -492.839993711     A.U. after   14 cycles
 SCF Done:  E(RHF) =  -492.841311091     A.U. after   13 cycles
 SCF Done:  E(RHF) =  -492.841877947     A.U. after   13 cycles
 SCF Done:  E(RHF) =  -492.842304060     A.U. after   12 cycles
 SCF Done:  E(RHF) =  -492.842486485     A.U. after   12 cycles
 SCF Done:  E(RHF) =  -492.842632156     A.U. after   16 cycles
 SCF Done:  E(RHF) =  -492.842769293     A.U. after   11 cycles
 SCF Done:  E(RHF) =  -492.843658628     A.U. after   12 cycles
 SCF Done:  E(RHF) =  -492.843654947     A.U. after   11 cycles
 SCF Done:  E(RHF) =  -492.843667440     A.U. after   11 cycles
 SCF Done:  E(RHF) =  -492.843668514     A.U. after   10 cycles
 SCF Done:  E(RHF) =  -492.843669603     A.U. after   10 cycles
 SCF Done:  E(RHF) =  -492.843670068     A.U. after    9 cycles
 SCF Done:  E(RHF) =  -492.843670204     A.U. after    9 cycles
 SCF Done:  E(RHF) =  -492.843670254     A.U. after    9 cycles
 SCF Done:  E(RHF) =  -492.843670265     A.U. after    7 cycles
 SCF Done:  E(RHF) =  -492.843670268     A.U. after    6 cycles
 Optimization completed on the basis of negligible forces.
    -- Stationary point found.

                         Standard orientation:
 ---------------------------------------------------------------------
 Center     Atomic      Atomic             Coordinates (Angstroms)
 Number     Number       Type             X           Y           Z
 ---------------------------------------------------------------------
      1          1           0       -3.763709   -1.043038    0.753193
      2          6           0       -3.303060   -0.630089   -0.133356
      3          1           0       -3.789079    0.302668   -0.392312
      4          1           0       -3.449351   -1.335572   -0.944515
      5          6           0       -1.814888   -0.493820    0.122084
      6          8           0       -1.226783   -1.350040    0.734119
      7          7           0       -1.252456    0.617029   -0.393633
      8          1           0       -1.884242    1.210075   -0.881765
      9          6           0        0.115552    1.156181   -0.428677
     10          1           0        0.295672    1.413404   -1.468697
     11          6           0        0.147275    2.442513    0.400658
     12          1           0       -0.003350    2.216869    1.450156
     13          1           0        1.094180    2.947087    0.287584
     14          1           0       -0.647396    3.109335    0.079114
     15          6           0        1.343149    0.284544   -0.090996
     16          8           0        2.348695    0.863588    0.222899
     17          7           0        1.312118   -1.037326   -0.341001
     18          1           0        0.437591   -1.490240   -0.192251
     19          6           0        2.497659   -1.825410   -0.067043
     20          1           0        3.339203   -1.427776   -0.615336
     21          1           0        2.750519   -1.832126    0.988003
     22          1           0        2.312900   -2.840506   -0.392918
 ---------------------------------------------------------------------

 The electronic state is 1-A.
 Alpha  occ. eigenvalues --  -20.53590 -20.51891 -15.60616 -15.56308 -11.36829
 Alpha  occ. eigenvalues --  -11.34370 -11.29291 -11.24467 -11.24170 -11.21935
 Alpha  occ. eigenvalues --   -1.40611  -1.38830  -1.25503  -1.21762  -1.06170
 Alpha  occ. eigenvalues --   -0.99959  -0.94917  -0.87941  -0.81931  -0.76697
 Alpha  occ. eigenvalues --   -0.71498  -0.70396  -0.66002  -0.64100  -0.62670
 Alpha  occ. eigenvalues --   -0.61137  -0.60507  -0.59010  -0.58237  -0.56069
 Alpha  occ. eigenvalues --   -0.54277  -0.53579  -0.52404  -0.51768  -0.50497
 Alpha  occ. eigenvalues --   -0.43336  -0.41481  -0.40408  -0.37848
 Alpha virt. eigenvalues --    0.17921   0.19206   0.21543   0.25701   0.26839
 Alpha virt. eigenvalues --    0.28510   0.28788   0.30311   0.31568   0.31849
 Alpha virt. eigenvalues --    0.33146   0.33948   0.34432   0.35231   0.38382

 Mulliken atomic charges:
              1
     1  H    0.218014
     2  C   -0.581816
     3  H    0.170981
     4  H    0.206827
     5  C    0.768630
     6  O   -0.637935
     7  N   -0.828606
     8  H    0.387409
     9  C   -0.024796
    10  H    0.212105
    11  C   -0.466811
    12  H    0.180473
    13  H    0.212991
    14  H    0.145189
    15  C    0.758927
    16  O   -0.616745
    17  N   -0.804168
    18  H    0.444586
    19  C   -0.280037
    20  H    0.191433
    21  H    0.176159
    22  H    0.167189
 Sum of Mulliken atomic charges =   0.00000

 Dipole moment (field-independent basis, Debye):
    X=             -4.2901    Y=              0.7482    Z=             -2.4753  Tot=              5.0092
 Quadrupole moment (field-independent basis, Debye-Ang):
   XX=            -59.3584   YY=            -59.4894   ZZ=            -61.1004
   XY=             -8.1871   XZ=              1.9283   YZ=             -0.0392

 Normal termination of Gaussian 09 at Thu Feb  9 14:06:28 2017.
