 Gaussian 09, Revision A.02,
 Gaussian 09:  EM64L-G09RevA.02 11-Jun-2009

 -------------------------------------------
 # HF/6-31G* Opt=(ModRedundant) geom=nocrowd
 -------------------------------------------

 ------------------
 Phi Psi fixed scan
 ------------------
 Symbolic Z-matrix:
 Charge =  0 Multiplicity = 1

 SCF Done:  E(RHF) =  -492.137124695     A.U. after   24 cycles
 SCF Done:  E(RHF) =  -492.352158822     A.U. after   21 cycles
 SCF Done:  E(RHF) =  -492.671960719     A.U. after   16 cycles
 SCF Done:  E(RHF) =  -492.790553856     A.U. after   14 cycles
 SCF Done:  E(RHF) =  -492.807227081     A.U. after   14 cycles
 SCF Done:  E(RHF) =  -492.815042876     A.U. after   13 cycles
 SCF Done:  E(RHF) =  -492.829826690     A.U. after   14 cycles
 SCF Done:  E(RHF) =  -492.839493787     A.U. after   13 cycles
 SCF Done:  E(RHF) =  -492.841950485     A.U. after   13 cycles
 SCF Done:  E(RHF) =  -492.842837054     A.U. after   12 cycles
 SCF Done:  E(RHF) =  -492.844739878     A.U. after   11 cycles
 SCF Done:  E(RHF) =  -492.844742957     A.U. after   10 cycles
 SCF Done:  E(RHF) =  -492.844746902     A.U. after   10 cycles
 SCF Done:  E(RHF) =  -492.844748968     A.U. after   10 cycles
 SCF Done:  E(RHF) =  -492.844749993     A.U. after   10 cycles
 SCF Done:  E(RHF) =  -492.844750712     A.U. after   10 cycles
 SCF Done:  E(RHF) =  -492.844751527     A.U. after    9 cycles
 SCF Done:  E(RHF) =  -492.844752726     A.U. after   10 cycles
 SCF Done:  E(RHF) =  -492.844753330     A.U. after    9 cycles
 SCF Done:  E(RHF) =  -492.844753389     A.U. after    8 cycles
 Optimization completed.
    -- Stationary point found.

                         Standard orientation:
 ---------------------------------------------------------------------
 Center     Atomic      Atomic             Coordinates (Angstroms)
 Number     Number       Type             X           Y           Z
 ---------------------------------------------------------------------
      1          1           0       -3.846983   -1.177097    0.385665
      2          6           0       -3.371239   -0.473735   -0.282190
      3          1           0       -3.830767    0.501101   -0.170252
      4          1           0       -3.528740   -0.813488   -1.300915
      5          6           0       -1.881607   -0.471963    0.002023
      6          8           0       -1.347066   -1.478862    0.395299
      7          7           0       -1.273373    0.708918   -0.230296
      8          1           0       -1.893102    1.420728   -0.545116
      9          6           0        0.117332    1.199525   -0.260203
     10          1           0        0.200024    1.759702   -1.180089
     11          6           0        0.329271    2.162380    0.918084
     12          1           0        0.266614    1.626582    1.858896
     13          1           0        1.299407    2.635218    0.843220
     14          1           0       -0.433832    2.934302    0.916273
     15          6           0        1.349299    0.277724   -0.319137
     16          8           0        2.337455    0.780690   -0.795949
     17          7           0        1.338285   -0.939762    0.218651
     18          1           0        0.463404   -1.347132    0.472631
     19          6           0        2.528489   -1.761355    0.184647
     20          1           0        3.350687   -1.263179    0.680879
     21          1           0        2.314983   -2.688800    0.698577
     22          1           0        2.831551   -1.982097   -0.832404
 ---------------------------------------------------------------------

 The electronic state is 1-A.
 Alpha  occ. eigenvalues --  -20.54022 -20.50889 -15.60610 -15.56338 -11.37053
 Alpha  occ. eigenvalues --  -11.33927 -11.29100 -11.24495 -11.24342 -11.22710
 Alpha  occ. eigenvalues --   -1.40800  -1.38026  -1.25483  -1.21798  -1.06391
 Alpha  occ. eigenvalues --   -1.00159  -0.94885  -0.88462  -0.81943  -0.77245
 Alpha  occ. eigenvalues --   -0.71599  -0.70557  -0.65262  -0.63821  -0.62176
 Alpha  occ. eigenvalues --   -0.61926  -0.60450  -0.58696  -0.58330  -0.56918
 Alpha  occ. eigenvalues --   -0.54649  -0.53905  -0.52854  -0.52199  -0.49902
 Alpha  occ. eigenvalues --   -0.43432  -0.41865  -0.39560  -0.37307
 Alpha virt. eigenvalues --    0.18505   0.19843   0.20868   0.25636   0.26813
 Alpha virt. eigenvalues --    0.28183   0.28919   0.30307   0.31010   0.31802
 Alpha virt. eigenvalues --    0.32963   0.34282   0.34792   0.35606   0.37578

 Mulliken atomic charges:
              1
     1  H    0.218252
     2  C   -0.585853
     3  H    0.173406
     4  H    0.207333
     5  C    0.779913
     6  O   -0.641823
     7  N   -0.833343
     8  H    0.387378
     9  C   -0.008027
    10  H    0.217953
    11  C   -0.482934
    12  H    0.181131
    13  H    0.207611
    14  H    0.158429
    15  C    0.742247
    16  O   -0.635751
    17  N   -0.828001
    18  H    0.477517
    19  C   -0.270348
    20  H    0.186741
    21  H    0.169558
    22  H    0.178610
 Sum of Mulliken atomic charges =   0.00000

 Dipole moment (field-independent basis, Debye):
    X=             -4.3364    Y=              1.2737    Z=              0.1419  Tot=              4.5218
 Quadrupole moment (field-independent basis, Debye-Ang):
   XX=            -59.8207   YY=            -59.5814   ZZ=            -61.4499
   XY=             -9.7059   XZ=              6.9257   YZ=              1.3910

 Normal termination of Gaussian 09 at Thu Feb  9 15:13:18 2017.
