 Gaussian 09, Revision A.02,
 Gaussian 09:  EM64L-G09RevA.02 11-Jun-2009

 -------------------------------------------
 # HF/6-31G* Opt=(ModRedundant) geom=nocrowd
 -------------------------------------------

 ------------------
 Phi Psi fixed scan
 ------------------
 Symbolic Z-matrix:
 Charge =  0 Multiplicity = 1

 SCF Done:  E(RHF) =  -492.822851189     A.U. after   15 cycles
 SCF Done:  E(RHF) =  -492.839610347     A.U. after   16 cycles
 SCF Done:  E(RHF) =  -492.843213991     A.U. after   13 cycles
 SCF Done:  E(RHF) =  -492.843701878     A.U. after   13 cycles
 SCF Done:  E(RHF) =  -492.844394273     A.U. after   13 cycles
 SCF Done:  E(RHF) =  -492.844756480     A.U. after   12 cycles
 SCF Done:  E(RHF) =  -492.845059236     A.U. after   13 cycles
 SCF Done:  E(RHF) =  -492.845302417     A.U. after   16 cycles
 SCF Done:  E(RHF) =  -492.845542439     A.U. after   13 cycles
 SCF Done:  E(RHF) =  -492.845710396     A.U. after   13 cycles
 SCF Done:  E(RHF) =  -492.846162206     A.U. after   11 cycles
 SCF Done:  E(RHF) =  -492.846171509     A.U. after   11 cycles
 SCF Done:  E(RHF) =  -492.846175056     A.U. after   12 cycles
 SCF Done:  E(RHF) =  -492.846178979     A.U. after   10 cycles
 SCF Done:  E(RHF) =  -492.846186233     A.U. after   11 cycles
 SCF Done:  E(RHF) =  -492.846186212     A.U. after   11 cycles
 SCF Done:  E(RHF) =  -492.846187468     A.U. after   10 cycles
 SCF Done:  E(RHF) =  -492.846187449     A.U. after    7 cycles
 SCF Done:  E(RHF) =  -492.846187531     A.U. after    8 cycles
 SCF Done:  E(RHF) =  -492.846187539     A.U. after    7 cycles
 Optimization completed.
    -- Stationary point found.

                         Standard orientation:
 ---------------------------------------------------------------------
 Center     Atomic      Atomic             Coordinates (Angstroms)
 Number     Number       Type             X           Y           Z
 ---------------------------------------------------------------------
      1          1           0        3.250877   -1.951967   -0.193919
      2          6           0        3.116566   -0.899051    0.006629
      3          1           0        3.697797   -0.335594   -0.716520
      4          1           0        3.488265   -0.666143    0.998122
      5          6           0        1.650274   -0.555257   -0.166086
      6          8           0        0.929982   -1.211833   -0.866180
      7          7           0        1.252153    0.559430    0.494570
      8          1           0        1.942198    1.018914    1.044224
      9          6           0       -0.065796    1.194424    0.539089
     10          1           0       -0.281113    1.373445    1.589046
     11          6           0       -0.031107    2.532218   -0.193797
     12          1           0        0.138312    2.378760   -1.251393
     13          1           0       -0.967301    3.060459   -0.073240
     14          1           0        0.769094    3.149950    0.203745
     15          6           0       -1.235612    0.331996    0.031031
     16          8           0       -1.980306    0.750318   -0.806643
     17          7           0       -1.445139   -0.831337    0.696389
     18          1           0       -0.643207   -1.229657    1.128053
     19          6           0       -2.389999   -1.788700    0.155447
     20          1           0       -3.341539   -1.304465   -0.002672
     21          1           0       -2.046485   -2.203052   -0.786256
     22          1           0       -2.519356   -2.588963    0.872797
 ---------------------------------------------------------------------

 The electronic state is 1-A.
 Alpha  occ. eigenvalues --  -20.53187 -20.52136 -15.60064 -15.56814 -11.36102
 Alpha  occ. eigenvalues --  -11.34168 -11.28739 -11.24211 -11.24055 -11.21659
 Alpha  occ. eigenvalues --   -1.40311  -1.38819  -1.25071  -1.21869  -1.05856
 Alpha  occ. eigenvalues --   -0.99731  -0.94934  -0.87374  -0.81448  -0.76671
 Alpha  occ. eigenvalues --   -0.71284  -0.69717  -0.65961  -0.64042  -0.62570
 Alpha  occ. eigenvalues --   -0.61096  -0.60328  -0.58595  -0.58019  -0.55886
 Alpha  occ. eigenvalues --   -0.53846  -0.52943  -0.52465  -0.51906  -0.50931
 Alpha  occ. eigenvalues --   -0.42769  -0.41615  -0.39978  -0.37897
 Alpha virt. eigenvalues --    0.18464   0.19379   0.22090   0.25123   0.25912
 Alpha virt. eigenvalues --    0.28209   0.29016   0.29492   0.30875   0.31759
 Alpha virt. eigenvalues --    0.32641   0.33457   0.34050   0.35080   0.38060

 Mulliken atomic charges:
              1
     1  H    0.216731
     2  C   -0.584993
     3  H    0.206273
     4  H    0.171471
     5  C    0.741742
     6  O   -0.604242
     7  N   -0.823770
     8  H    0.384844
     9  C   -0.034441
    10  H    0.198796
    11  C   -0.455945
    12  H    0.194847
    13  H    0.189580
    14  H    0.143502
    15  C    0.774216
    16  O   -0.601918
    17  N   -0.757384
    18  H    0.379128
    19  C   -0.287789
    20  H    0.198705
    21  H    0.188383
    22  H    0.162263
 Sum of Mulliken atomic charges =   0.00000

 Dipole moment (field-independent basis, Debye):
    X=              4.1201    Y=              0.3791    Z=              4.1165  Tot=              5.8365
 Quadrupole moment (field-independent basis, Debye-Ang):
   XX=            -56.5625   YY=            -58.3622   ZZ=            -62.5490
   XY=              5.4506   XZ=             -0.3891   YZ=             -0.2191

 Normal termination of Gaussian 09 at Thu Feb  9 14:16:10 2017.
