 Gaussian 09, Revision A.02,
 Gaussian 09:  EM64L-G09RevA.02 11-Jun-2009

 -------------------------------------------
 # HF/6-31G* Opt=(ModRedundant) geom=nocrowd
 -------------------------------------------

 ------------------
 Phi Psi fixed scan
 ------------------
 Symbolic Z-matrix:
 Charge =  0 Multiplicity = 1

 SCF Done:  E(RHF) =  -489.857538918     A.U. after   22 cycles
 SCF Done:  E(RHF) =  -491.289276993     A.U. after   19 cycles
 SCF Done:  E(RHF) =  -492.279597226     A.U. after   16 cycles
 SCF Done:  E(RHF) =  -492.630538886     A.U. after   15 cycles
 SCF Done:  E(RHF) =  -492.626647374     A.U. after   16 cycles
 SCF Done:  E(RHF) =  -492.772760523     A.U. after   16 cycles
 SCF Done:  E(RHF) =  -492.783040192     A.U. after   17 cycles
 SCF Done:  E(RHF) =  -492.821788193     A.U. after   16 cycles
 SCF Done:  E(RHF) =  -492.829634720     A.U. after   12 cycles
 SCF Done:  E(RHF) =  -492.838450764     A.U. after   13 cycles
 SCF Done:  E(RHF) =  -492.844436777     A.U. after    9 cycles
 SCF Done:  E(RHF) =  -492.844441818     A.U. after   10 cycles
 SCF Done:  E(RHF) =  -492.844446580     A.U. after   10 cycles
 SCF Done:  E(RHF) =  -492.844466127     A.U. after   11 cycles
 SCF Done:  E(RHF) =  -492.844473697     A.U. after   10 cycles
 SCF Done:  E(RHF) =  -492.844484101     A.U. after   11 cycles
 SCF Done:  E(RHF) =  -492.844484192     A.U. after    9 cycles
 SCF Done:  E(RHF) =  -492.844484414     A.U. after   10 cycles
 SCF Done:  E(RHF) =  -492.844485297     A.U. after    9 cycles
 SCF Done:  E(RHF) =  -492.844485325     A.U. after    8 cycles
 Optimization completed.
    -- Stationary point found.

                         Standard orientation:
 ---------------------------------------------------------------------
 Center     Atomic      Atomic             Coordinates (Angstroms)
 Number     Number       Type             X           Y           Z
 ---------------------------------------------------------------------
      1          1           0       -3.858346   -1.103504    0.467243
      2          6           0       -3.371477   -0.471144   -0.261103
      3          1           0       -3.816575    0.516345   -0.239411
      4          1           0       -3.533959   -0.901546   -1.244041
      5          6           0       -1.881819   -0.470065    0.023663
      6          8           0       -1.361287   -1.462739    0.469846
      7          7           0       -1.260571    0.689449   -0.270220
      8          1           0       -1.874425    1.387876   -0.623969
      9          6           0        0.129610    1.185193   -0.298032
     10          1           0        0.232575    1.680274   -1.253972
     11          6           0        0.292349    2.235630    0.810848
     12          1           0        0.207918    1.768563    1.786413
     13          1           0        1.256110    2.717424    0.730076
     14          1           0       -0.483847    2.990303    0.730813
     15          6           0        1.373404    0.276777   -0.262790
     16          8           0        2.406331    0.829780   -0.555741
     17          7           0        1.308682   -1.003425    0.085087
     18          1           0        0.427635   -1.402337    0.331666
     19          6           0        2.508721   -1.809641    0.131415
     20          1           0        3.002547   -1.825758   -0.831842
     21          1           0        3.209945   -1.428143    0.863568
     22          1           0        2.228562   -2.818487    0.402550
 ---------------------------------------------------------------------

 The electronic state is 1-A.
 Alpha  occ. eigenvalues --  -20.54029 -20.50722 -15.60663 -15.56410 -11.37104
 Alpha  occ. eigenvalues --  -11.33964 -11.29202 -11.24520 -11.24387 -11.22514
 Alpha  occ. eigenvalues --   -1.40819  -1.37966  -1.25525  -1.21845  -1.06337
 Alpha  occ. eigenvalues --   -1.00109  -0.95028  -0.88368  -0.81972  -0.77425
 Alpha  occ. eigenvalues --   -0.71567  -0.70598  -0.65418  -0.63860  -0.62235
 Alpha  occ. eigenvalues --   -0.61605  -0.60496  -0.58873  -0.58440  -0.56686
 Alpha  occ. eigenvalues --   -0.54512  -0.54096  -0.52708  -0.52202  -0.49785
 Alpha  occ. eigenvalues --   -0.43371  -0.41556  -0.39817  -0.37309
 Alpha virt. eigenvalues --    0.18457   0.19512   0.21282   0.25845   0.26879
 Alpha virt. eigenvalues --    0.28311   0.28813   0.30317   0.31200   0.31486
 Alpha virt. eigenvalues --    0.33311   0.34210   0.35192   0.35349   0.37806

 Mulliken atomic charges:
              1
     1  H    0.218254
     2  C   -0.584771
     3  H    0.172650
     4  H    0.207644
     5  C    0.781147
     6  O   -0.644304
     7  N   -0.834473
     8  H    0.387427
     9  C   -0.007804
    10  H    0.216546
    11  C   -0.481797
    12  H    0.178229
    13  H    0.214518
    14  H    0.154997
    15  C    0.750864
    16  O   -0.640679
    17  N   -0.839880
    18  H    0.484441
    19  C   -0.268835
    20  H    0.184479
    21  H    0.181560
    22  H    0.169785
 Sum of Mulliken atomic charges =   0.00000

 Dipole moment (field-independent basis, Debye):
    X=             -4.4083    Y=              1.0933    Z=             -0.4553  Tot=              4.5646
 Quadrupole moment (field-independent basis, Debye-Ang):
   XX=            -60.7179   YY=            -59.6921   ZZ=            -60.6782
   XY=            -10.0622   XZ=              5.9459   YZ=              1.1150

 Normal termination of Gaussian 09 at Thu Feb  9 15:20:16 2017.
