 Gaussian 09, Revision A.02,
 Gaussian 09:  EM64L-G09RevA.02 11-Jun-2009

 -------------------------------------------
 # HF/6-31G* Opt=(ModRedundant) geom=nocrowd
 -------------------------------------------

 ------------------
 Phi Psi fixed scan
 ------------------
 Symbolic Z-matrix:
 Charge =  0 Multiplicity = 1

 SCF Done:  E(RHF) =  -492.828024126     A.U. after   15 cycles
 SCF Done:  E(RHF) =  -492.840802799     A.U. after   15 cycles
 SCF Done:  E(RHF) =  -492.843881517     A.U. after   13 cycles
 SCF Done:  E(RHF) =  -492.844408258     A.U. after   12 cycles
 SCF Done:  E(RHF) =  -492.844972252     A.U. after   13 cycles
 SCF Done:  E(RHF) =  -492.845412511     A.U. after   13 cycles
 SCF Done:  E(RHF) =  -492.845702042     A.U. after   13 cycles
 SCF Done:  E(RHF) =  -492.845836443     A.U. after   13 cycles
 SCF Done:  E(RHF) =  -492.846033948     A.U. after   12 cycles
 SCF Done:  E(RHF) =  -492.846291291     A.U. after   12 cycles
 SCF Done:  E(RHF) =  -492.846722908     A.U. after   12 cycles
 SCF Done:  E(RHF) =  -492.846734300     A.U. after   11 cycles
 SCF Done:  E(RHF) =  -492.846742524     A.U. after   11 cycles
 SCF Done:  E(RHF) =  -492.846747968     A.U. after   10 cycles
 SCF Done:  E(RHF) =  -492.846753793     A.U. after   11 cycles
 SCF Done:  E(RHF) =  -492.846760545     A.U. after   11 cycles
 SCF Done:  E(RHF) =  -492.846769308     A.U. after   11 cycles
 SCF Done:  E(RHF) =  -492.846770360     A.U. after    9 cycles
 SCF Done:  E(RHF) =  -492.846770765     A.U. after    8 cycles
 SCF Done:  E(RHF) =  -492.846770852     A.U. after    8 cycles
 Optimization completed.
    -- Stationary point found.

                         Standard orientation:
 ---------------------------------------------------------------------
 Center     Atomic      Atomic             Coordinates (Angstroms)
 Number     Number       Type             X           Y           Z
 ---------------------------------------------------------------------
      1          1           0       -3.189374   -2.064835    0.225481
      2          6           0       -3.082513   -1.006458    0.037621
      3          1           0       -3.623884   -0.464930    0.807115
      4          1           0       -3.519382   -0.760536   -0.923721
      5          6           0       -1.613833   -0.643366    0.121911
      6          8           0       -0.838355   -1.298454    0.760392
      7          7           0       -1.267406    0.473963   -0.565209
      8          1           0       -1.999629    0.955565   -1.036085
      9          6           0        0.013576    1.179368   -0.559086
     10          1           0        0.279369    1.354053   -1.597405
     11          6           0       -0.118413    2.521547    0.153211
     12          1           0       -0.336815    2.372020    1.201780
     13          1           0        0.801780    3.087135    0.076127
     14          1           0       -0.917104    3.105253   -0.296212
     15          6           0        1.167900    0.361218    0.048110
     16          8           0        1.686750    0.685390    1.074780
     17          7           0        1.644465   -0.629184   -0.749952
     18          1           0        0.994691   -0.994786   -1.410101
     19          6           0        2.572484   -1.594104   -0.192616
     20          1           0        3.414495   -1.072848    0.236838
     21          1           0        2.107020   -2.200431    0.576714
     22          1           0        2.927051   -2.233837   -0.990692
 ---------------------------------------------------------------------

 The electronic state is 1-A.
 Alpha  occ. eigenvalues --  -20.52964 -20.51868 -15.59821 -15.56967 -11.35843
 Alpha  occ. eigenvalues --  -11.34017 -11.28554 -11.24045 -11.24005 -11.21841
 Alpha  occ. eigenvalues --   -1.40147  -1.38559  -1.24862  -1.21888  -1.05750
 Alpha  occ. eigenvalues --   -0.99624  -0.94962  -0.87270  -0.81321  -0.76583
 Alpha  occ. eigenvalues --   -0.70944  -0.69456  -0.66141  -0.63657  -0.62504
 Alpha  occ. eigenvalues --   -0.61046  -0.60263  -0.58409  -0.57902  -0.55836
 Alpha  occ. eigenvalues --   -0.53740  -0.53172  -0.52692  -0.51426  -0.51066
 Alpha  occ. eigenvalues --   -0.42352  -0.41346  -0.39764  -0.38035
 Alpha virt. eigenvalues --    0.18852   0.19759   0.22196   0.24419   0.25904
 Alpha virt. eigenvalues --    0.28051   0.28820   0.29646   0.31368   0.31598
 Alpha virt. eigenvalues --    0.32652   0.33488   0.34171   0.35258   0.38243

 Mulliken atomic charges:
              1
     1  H    0.216672
     2  C   -0.586061
     3  H    0.204646
     4  H    0.172291
     5  C    0.750096
     6  O   -0.601920
     7  N   -0.822990
     8  H    0.383061
     9  C   -0.033179
    10  H    0.194541
    11  C   -0.464082
    12  H    0.200902
    13  H    0.184234
    14  H    0.143860
    15  C    0.781288
    16  O   -0.598933
    17  N   -0.761809
    18  H    0.374464
    19  C   -0.289774
    20  H    0.199699
    21  H    0.191291
    22  H    0.161703
 Sum of Mulliken atomic charges =   0.00000

 Dipole moment (field-independent basis, Debye):
    X=             -3.6793    Y=              0.6179    Z=             -4.4330  Tot=              5.7940
 Quadrupole moment (field-independent basis, Debye-Ang):
   XX=            -54.0591   YY=            -58.9100   ZZ=            -62.8510
   XY=             -4.9907   XZ=             -1.5145   YZ=              0.4089

 Normal termination of Gaussian 09 at Thu Feb  9 14:19:01 2017.
