 Gaussian 09, Revision A.02,
 Gaussian 09:  EM64L-G09RevA.02 11-Jun-2009

 -------------------------------------------
 # HF/6-31G* Opt=(ModRedundant) geom=nocrowd
 -------------------------------------------

 ------------------
 Phi Psi fixed scan
 ------------------
 Symbolic Z-matrix:
 Charge =  0 Multiplicity = 1

 SCF Done:  E(RHF) =  -492.510649078     A.U. after   21 cycles
 SCF Done:  E(RHF) =  -492.637492171     A.U. after   18 cycles
 SCF Done:  E(RHF) =  -492.760313593     A.U. after   15 cycles
 SCF Done:  E(RHF) =  -492.801199341     A.U. after   15 cycles
 SCF Done:  E(RHF) =  -492.816566105     A.U. after   14 cycles
 SCF Done:  E(RHF) =  -492.819473588     A.U. after   13 cycles
 SCF Done:  E(RHF) =  -492.821112185     A.U. after   13 cycles
 SCF Done:  E(RHF) =  -492.821739770     A.U. after   13 cycles
 SCF Done:  E(RHF) =  -492.822034454     A.U. after   13 cycles
 SCF Done:  E(RHF) =  -492.822194630     A.U. after   13 cycles
 SCF Done:  E(RHF) =  -492.824335457     A.U. after   11 cycles
 SCF Done:  E(RHF) =  -492.824438382     A.U. after   12 cycles
 SCF Done:  E(RHF) =  -492.824532968     A.U. after   12 cycles
 SCF Done:  E(RHF) =  -492.824523602     A.U. after   12 cycles
 SCF Done:  E(RHF) =  -492.824562580     A.U. after   11 cycles
 SCF Done:  E(RHF) =  -492.824569205     A.U. after   11 cycles
 SCF Done:  E(RHF) =  -492.824571280     A.U. after   10 cycles
 SCF Done:  E(RHF) =  -492.824571738     A.U. after   10 cycles
 SCF Done:  E(RHF) =  -492.824571910     A.U. after    9 cycles
 SCF Done:  E(RHF) =  -492.824571980     A.U. after    8 cycles
 Optimization completed.
    -- Stationary point found.

                         Standard orientation:
 ---------------------------------------------------------------------
 Center     Atomic      Atomic             Coordinates (Angstroms)
 Number     Number       Type             X           Y           Z
 ---------------------------------------------------------------------
      1          1           0       -3.754718   -1.446880   -0.174388
      2          6           0       -3.114048   -0.790218   -0.743640
      3          1           0       -3.708992    0.011005   -1.172234
      4          1           0       -2.663820   -1.347635   -1.559631
      5          6           0       -2.030157   -0.248362    0.166200
      6          8           0       -1.892879   -0.628336    1.282920
      7          7           0       -1.302909    0.805719   -0.387186
      8          1           0       -1.666044    1.032608   -1.287414
      9          6           0        0.148356    1.006804   -0.406147
     10          1           0        0.402269    1.287722   -1.421519
     11          6           0        0.493262    2.176621    0.534060
     12          1           0        0.243591    1.904780    1.552785
     13          1           0        1.541684    2.454028    0.496024
     14          1           0       -0.097033    3.043012    0.262153
     15          6           0        1.029349   -0.204286   -0.064816
     16          8           0        0.635310   -1.244872    0.366422
     17          7           0        2.331638   -0.025177   -0.417532
     18          1           0        2.650581    0.887943   -0.642874
     19          6           0        3.330435   -1.019739   -0.083805
     20          1           0        2.995474   -1.993452   -0.408738
     21          1           0        4.249099   -0.772917   -0.599759
     22          1           0        3.524164   -1.063271    0.982766
 ---------------------------------------------------------------------

 The electronic state is 1-A.
 Alpha  occ. eigenvalues --  -20.52549 -20.51618 -15.58517 -15.57555 -11.34763
 Alpha  occ. eigenvalues --  -11.33908 -11.29168 -11.25734 -11.22818 -11.22540
 Alpha  occ. eigenvalues --   -1.39879  -1.38064  -1.23534  -1.22594  -1.05521
 Alpha  occ. eigenvalues --   -0.98780  -0.95497  -0.88057  -0.80105  -0.77172
 Alpha  occ. eigenvalues --   -0.70245  -0.68728  -0.65115  -0.63633  -0.61898
 Alpha  occ. eigenvalues --   -0.61503  -0.60400  -0.58258  -0.56925  -0.56387
 Alpha  occ. eigenvalues --   -0.55405  -0.54178  -0.53426  -0.51361  -0.48903
 Alpha  occ. eigenvalues --   -0.42945  -0.40816  -0.39078  -0.37538
 Alpha virt. eigenvalues --    0.18277   0.20605   0.21107   0.22441   0.26381
 Alpha virt. eigenvalues --    0.27439   0.29257   0.30420   0.31297   0.31951
 Alpha virt. eigenvalues --    0.32209   0.33529   0.33979   0.34922   0.36786

 Mulliken atomic charges:
              1
     1  H    0.215767
     2  C   -0.601060
     3  H    0.174985
     4  H    0.189786
     5  C    0.762974
     6  O   -0.543138
     7  N   -0.803857
     8  H    0.365258
     9  C   -0.043703
    10  H    0.187524
    11  C   -0.471690
    12  H    0.208268
    13  H    0.144761
    14  H    0.180321
    15  C    0.750563
    16  O   -0.578086
    17  N   -0.795761
    18  H    0.380521
    19  C   -0.273055
    20  H    0.205450
    21  H    0.165794
    22  H    0.178379
 Sum of Mulliken atomic charges =   0.00000

 Dipole moment (field-independent basis, Debye):
    X=              2.3098    Y=              3.5321    Z=             -4.6188  Tot=              6.2565
 Quadrupole moment (field-independent basis, Debye-Ang):
   XX=            -49.1935   YY=            -61.6477   ZZ=            -62.3810
   XY=              1.0420   XZ=              6.2905   YZ=              1.3140

 Normal termination of Gaussian 09 at Thu Feb  9 14:38:32 2017.
