 Gaussian 09, Revision A.02,
 Gaussian 09:  EM64L-G09RevA.02 11-Jun-2009

 -------------------------------------------
 # HF/6-31G* Opt=(ModRedundant) geom=nocrowd
 -------------------------------------------

 ------------------
 Phi Psi fixed scan
 ------------------
 Symbolic Z-matrix:
 Charge =  0 Multiplicity = 1

 SCF Done:  E(RHF) =  -492.790087556     A.U. after   15 cycles
 SCF Done:  E(RHF) =  -492.824222435     A.U. after   16 cycles
 SCF Done:  E(RHF) =  -492.832883483     A.U. after   14 cycles
 SCF Done:  E(RHF) =  -492.837011942     A.U. after   14 cycles
 SCF Done:  E(RHF) =  -492.838834924     A.U. after   13 cycles
 SCF Done:  E(RHF) =  -492.840013495     A.U. after   13 cycles
 SCF Done:  E(RHF) =  -492.840501993     A.U. after   13 cycles
 SCF Done:  E(RHF) =  -492.840980094     A.U. after   13 cycles
 SCF Done:  E(RHF) =  -492.841236512     A.U. after   13 cycles
 SCF Done:  E(RHF) =  -492.841366838     A.U. after   12 cycles
 SCF Done:  E(RHF) =  -492.841469760     A.U. after   12 cycles
 SCF Done:  E(RHF) =  -492.841633792     A.U. after   12 cycles
 SCF Done:  E(RHF) =  -492.842022343     A.U. after   12 cycles
 SCF Done:  E(RHF) =  -492.842140539     A.U. after   12 cycles
 SCF Done:  E(RHF) =  -492.842180921     A.U. after   11 cycles
 SCF Done:  E(RHF) =  -492.842198662     A.U. after   12 cycles
 SCF Done:  E(RHF) =  -492.842213428     A.U. after   11 cycles
 SCF Done:  E(RHF) =  -492.842216053     A.U. after   10 cycles
 SCF Done:  E(RHF) =  -492.842216500     A.U. after    8 cycles
 SCF Done:  E(RHF) =  -492.842216532     A.U. after    7 cycles
 Optimization completed.
    -- Stationary point found.

                         Standard orientation:
 ---------------------------------------------------------------------
 Center     Atomic      Atomic             Coordinates (Angstroms)
 Number     Number       Type             X           Y           Z
 ---------------------------------------------------------------------
      1          1           0        3.495573   -1.561380   -0.629719
      2          6           0        3.142679   -0.830457    0.082600
      3          1           0        3.846697   -0.007114    0.140994
      4          1           0        3.078844   -1.295512    1.061679
      5          6           0        1.764780   -0.366159   -0.328162
      6          8           0        1.089720   -0.964401   -1.113627
      7          7           0        1.364766    0.828355    0.217990
      8          1           0        1.981383    1.172076    0.920859
      9          6           0       -0.033768    1.153756    0.494085
     10          1           0       -0.088317    1.459452    1.532570
     11          6           0       -0.475837    2.326644   -0.382233
     12          1           0       -0.433132    2.061323   -1.433599
     13          1           0       -1.478144    2.659363   -0.133868
     14          1           0        0.198797    3.161488   -0.232321
     15          6           0       -0.933426   -0.095088    0.456298
     16          8           0       -0.662421   -1.028209    1.159511
     17          7           0       -2.107252    0.001165   -0.205720
     18          1           0       -2.164782    0.653293   -0.952546
     19          6           0       -2.973292   -1.159059   -0.290411
     20          1           0       -3.175241   -1.530141    0.703014
     21          1           0       -3.905406   -0.859722   -0.751734
     22          1           0       -2.524085   -1.956694   -0.871351
 ---------------------------------------------------------------------

 The electronic state is 1-A.
 Alpha  occ. eigenvalues --  -20.52272 -20.51323 -15.58318 -15.58000 -11.34598
 Alpha  occ. eigenvalues --  -11.34169 -11.28532 -11.24878 -11.22925 -11.22860
 Alpha  occ. eigenvalues --   -1.39672  -1.38021  -1.23576  -1.22668  -1.05512
 Alpha  occ. eigenvalues --   -0.99185  -0.94783  -0.88476  -0.79980  -0.77310
 Alpha  occ. eigenvalues --   -0.70911  -0.69126  -0.64708  -0.64065  -0.62001
 Alpha  occ. eigenvalues --   -0.61188  -0.59886  -0.57695  -0.56929  -0.56169
 Alpha  occ. eigenvalues --   -0.54825  -0.54319  -0.53221  -0.51996  -0.48989
 Alpha  occ. eigenvalues --   -0.41585  -0.41509  -0.39163  -0.38529
 Alpha virt. eigenvalues --    0.18591   0.19805   0.23033   0.23956   0.26418
 Alpha virt. eigenvalues --    0.27917   0.29907   0.30225   0.30833   0.31435
 Alpha virt. eigenvalues --    0.32305   0.33412   0.34764   0.34968   0.37732

 Mulliken atomic charges:
              1
     1  H    0.214647
     2  C   -0.597701
     3  H    0.176284
     4  H    0.206342
     5  C    0.765918
     6  O   -0.595962
     7  N   -0.788353
     8  H    0.374918
     9  C   -0.023982
    10  H    0.208018
    11  C   -0.499036
    12  H    0.182025
    13  H    0.169448
    14  H    0.179280
    15  C    0.786389
    16  O   -0.623679
    17  N   -0.798921
    18  H    0.389968
    19  C   -0.280963
    20  H    0.201809
    21  H    0.164188
    22  H    0.189363
 Sum of Mulliken atomic charges =   0.00000

 Dipole moment (field-independent basis, Debye):
    X=              0.2728    Y=              3.7930    Z=              0.3930  Tot=              3.8231
 Quadrupole moment (field-independent basis, Debye-Ang):
   XX=            -47.3477   YY=            -61.4519   ZZ=            -63.2344
   XY=              0.6814   XZ=              7.4211   YZ=              1.8260

 Normal termination of Gaussian 09 at Thu Feb  9 14:52:14 2017.
