 Gaussian 09, Revision A.02,
 Gaussian 09:  EM64L-G09RevA.02 11-Jun-2009

 -------------------------------------------
 # HF/6-31G* Opt=(ModRedundant) geom=nocrowd
 -------------------------------------------

 ------------------
 Phi Psi fixed scan
 ------------------
 Symbolic Z-matrix:
 Charge =  0 Multiplicity = 1

 SCF Done:  E(RHF) =  -491.978370666     A.U. after   28 cycles
 SCF Done:  E(RHF) =  -492.238552001     A.U. after   23 cycles
 SCF Done:  E(RHF) =  -492.596440812     A.U. after   16 cycles
 SCF Done:  E(RHF) =  -492.738417417     A.U. after   14 cycles
 SCF Done:  E(RHF) =  -492.793602927     A.U. after   14 cycles
 SCF Done:  E(RHF) =  -492.810823946     A.U. after   13 cycles
 SCF Done:  E(RHF) =  -492.821144635     A.U. after   13 cycles
 SCF Done:  E(RHF) =  -492.834666789     A.U. after   14 cycles
 SCF Done:  E(RHF) =  -492.837666224     A.U. after   12 cycles
 SCF Done:  E(RHF) =  -492.839409803     A.U. after   12 cycles
 SCF Done:  E(RHF) =  -492.844112164     A.U. after   11 cycles
 SCF Done:  E(RHF) =  -492.843047464     A.U. after   12 cycles
 SCF Done:  E(RHF) =  -492.842992996     A.U. after   11 cycles
 SCF Done:  E(RHF) =  -492.844114678     A.U. after   12 cycles
 SCF Done:  E(RHF) =  -492.844117127     A.U. after    9 cycles
 SCF Done:  E(RHF) =  -492.844120693     A.U. after   10 cycles
 SCF Done:  E(RHF) =  -492.844126814     A.U. after   11 cycles
 SCF Done:  E(RHF) =  -492.844125880     A.U. after   11 cycles
 SCF Done:  E(RHF) =  -492.844130068     A.U. after   11 cycles
 SCF Done:  E(RHF) =  -492.844123936     A.U. after   11 cycles
 Optimization completed.
    -- Stationary point found.

                         Standard orientation:
 ---------------------------------------------------------------------
 Center     Atomic      Atomic             Coordinates (Angstroms)
 Number     Number       Type             X           Y           Z
 ---------------------------------------------------------------------
      1          1           0       -3.561319   -1.194671   -1.019000
      2          6           0       -3.364610   -0.493672   -0.215752
      3          1           0       -3.856675   -0.864564    0.673392
      4          1           0       -3.781425    0.469888   -0.481502
      5          6           0       -1.870271   -0.474034    0.041723
      6          8           0       -1.346785   -1.441447    0.538502
      7          7           0       -1.250813    0.666478   -0.317490
      8          1           0       -1.863958    1.344664   -0.708870
      9          6           0        0.135571    1.172667   -0.340094
     10          1           0        0.265504    1.591638   -1.330427
     11          6           0        0.243411    2.311829    0.683015
     12          1           0        0.125186    1.924726    1.689592
     13          1           0        1.203251    2.798990    0.601715
     14          1           0       -0.538685    3.045080    0.511236
     15          6           0        1.383624    0.277941   -0.201063
     16          8           0        2.435931    0.860049   -0.304608
     17          7           0        1.296323   -1.040392   -0.047793
     18          1           0        0.413489   -1.443296    0.185479
     19          6           0        2.497873   -1.837266    0.074698
     20          1           0        3.142351   -1.685136   -0.780341
     21          1           0        3.056737   -1.584573    0.968668
     22          1           0        2.210219   -2.878959    0.120730
 ---------------------------------------------------------------------

 The electronic state is 1-A.
 Alpha  occ. eigenvalues --  -20.53871 -20.50879 -15.60759 -15.56391 -11.37094
 Alpha  occ. eigenvalues --  -11.34083 -11.29305 -11.24530 -11.24349 -11.22322
 Alpha  occ. eigenvalues --   -1.40753  -1.38116  -1.25585  -1.21850  -1.06278
 Alpha  occ. eigenvalues --   -1.00070  -0.95065  -0.88272  -0.82019  -0.77349
 Alpha  occ. eigenvalues --   -0.71577  -0.70588  -0.65629  -0.63899  -0.62347
 Alpha  occ. eigenvalues --   -0.61319  -0.60479  -0.59110  -0.58443  -0.56446
 Alpha  occ. eigenvalues --   -0.54315  -0.54184  -0.52582  -0.52064  -0.49874
 Alpha  occ. eigenvalues --   -0.43307  -0.41304  -0.40170  -0.37428
 Alpha virt. eigenvalues --    0.18430   0.19186   0.21380   0.25818   0.26948
 Alpha virt. eigenvalues --    0.28248   0.28809   0.30850   0.31496   0.31727
 Alpha virt. eigenvalues --    0.33478   0.33816   0.34953   0.35488   0.37964

 Mulliken atomic charges:
              1
     1  H    0.210368
     2  C   -0.579422
     3  H    0.215866
     4  H    0.168739
     5  C    0.781931
     6  O   -0.646727
     7  N   -0.836335
     8  H    0.387921
     9  C   -0.013250
    10  H    0.215988
    11  C   -0.479826
    12  H    0.177129
    13  H    0.218887
    14  H    0.151519
    15  C    0.758625
    16  O   -0.638361
    17  N   -0.839598
    18  H    0.481536
    19  C   -0.271136
    20  H    0.188683
    21  H    0.177945
    22  H    0.169515
 Sum of Mulliken atomic charges =   0.00000

 Dipole moment (field-independent basis, Debye):
    X=             -4.4178    Y=              0.9801    Z=             -1.0550  Tot=              4.6466
 Quadrupole moment (field-independent basis, Debye-Ang):
   XX=            -60.9171   YY=            -59.7824   ZZ=            -60.3106
   XY=             -9.9024   XZ=              4.5331   YZ=              0.7015

 Normal termination of Gaussian 09 at Thu Feb  9 13:56:47 2017.
