 Gaussian 09, Revision A.02,
 Gaussian 09:  EM64L-G09RevA.02 11-Jun-2009

 -------------------------------------------
 # HF/6-31G* Opt=(ModRedundant) geom=nocrowd
 -------------------------------------------

 ------------------
 Phi Psi fixed scan
 ------------------
 Symbolic Z-matrix:
 Charge =  0 Multiplicity = 1

 SCF Done:  E(RHF) =  -492.575477001     A.U. after   20 cycles
 SCF Done:  E(RHF) =  -492.677615594     A.U. after   17 cycles
 SCF Done:  E(RHF) =  -492.776880265     A.U. after   15 cycles
 SCF Done:  E(RHF) =  -492.800829843     A.U. after   15 cycles
 SCF Done:  E(RHF) =  -492.818922934     A.U. after   14 cycles
 SCF Done:  E(RHF) =  -492.821923596     A.U. after   13 cycles
 SCF Done:  E(RHF) =  -492.823880074     A.U. after   13 cycles
 SCF Done:  E(RHF) =  -492.824274645     A.U. after   13 cycles
 SCF Done:  E(RHF) =  -492.824422830     A.U. after   13 cycles
 SCF Done:  E(RHF) =  -492.824526097     A.U. after   11 cycles
 SCF Done:  E(RHF) =  -492.826749323     A.U. after   11 cycles
 SCF Done:  E(RHF) =  -492.826890702     A.U. after   12 cycles
 SCF Done:  E(RHF) =  -492.826924031     A.U. after   12 cycles
 SCF Done:  E(RHF) =  -492.826940303     A.U. after   11 cycles
 SCF Done:  E(RHF) =  -492.826944164     A.U. after   10 cycles
 SCF Done:  E(RHF) =  -492.826946510     A.U. after   10 cycles
 SCF Done:  E(RHF) =  -492.826948044     A.U. after   10 cycles
 SCF Done:  E(RHF) =  -492.826948889     A.U. after   10 cycles
 SCF Done:  E(RHF) =  -492.826949135     A.U. after    9 cycles
 SCF Done:  E(RHF) =  -492.826949200     A.U. after    9 cycles
 Optimization completed.
    -- Stationary point found.

                         Standard orientation:
 ---------------------------------------------------------------------
 Center     Atomic      Atomic             Coordinates (Angstroms)
 Number     Number       Type             X           Y           Z
 ---------------------------------------------------------------------
      1          1           0       -3.972896   -1.154824    0.282561
      2          6           0       -3.440292   -0.223524    0.161531
      3          1           0       -3.499653    0.344143    1.085432
      4          1           0       -3.912091    0.361087   -0.622414
      5          6           0       -1.990101   -0.529391   -0.168645
      6          8           0       -1.559115   -1.637244   -0.130811
      7          7           0       -1.286612    0.580059   -0.593268
      8          1           0       -1.856908    1.397210   -0.607596
      9          6           0        0.110877    0.969372   -0.427419
     10          1           0        0.445850    1.348864   -1.388114
     11          6           0        0.211509    2.108599    0.599827
     12          1           0       -0.101351    1.754757    1.574869
     13          1           0        1.228158    2.476150    0.671569
     14          1           0       -0.425268    2.938792    0.307824
     15          6           0        1.098007   -0.108890    0.029150
     16          8           0        0.866722   -0.885538    0.904162
     17          7           0        2.361009    0.094974   -0.442077
     18          1           0        2.460979    0.549856   -1.320770
     19          6           0        3.430380   -0.799460   -0.045670
     20          1           0        3.457552   -0.870530    1.031226
     21          1           0        3.302395   -1.797773   -0.450449
     22          1           0        4.369317   -0.390946   -0.396179
 ---------------------------------------------------------------------

 The electronic state is 1-A.
 Alpha  occ. eigenvalues --  -20.52175 -20.51482 -15.58382 -15.58023 -11.34514
 Alpha  occ. eigenvalues --  -11.34094 -11.29069 -11.25378 -11.23468 -11.22655
 Alpha  occ. eigenvalues --   -1.39572  -1.38037  -1.23634  -1.22730  -1.05825
 Alpha  occ. eigenvalues --   -0.98821  -0.95603  -0.88026  -0.80518  -0.77208
 Alpha  occ. eigenvalues --   -0.69202  -0.68450  -0.66292  -0.63841  -0.62593
 Alpha  occ. eigenvalues --   -0.61138  -0.59604  -0.57967  -0.57641  -0.55699
 Alpha  occ. eigenvalues --   -0.54971  -0.54936  -0.53555  -0.51737  -0.49393
 Alpha  occ. eigenvalues --   -0.42320  -0.40023  -0.38972  -0.38090
 Alpha virt. eigenvalues --    0.19426   0.20182   0.20867   0.22801   0.26935
 Alpha virt. eigenvalues --    0.27053   0.27921   0.30863   0.31106   0.31860
 Alpha virt. eigenvalues --    0.32176   0.33400   0.33943   0.34850   0.37686

 Mulliken atomic charges:
              1
     1  H    0.216237
     2  C   -0.597126
     3  H    0.187043
     4  H    0.176219
     5  C    0.752047
     6  O   -0.550432
     7  N   -0.814559
     8  H    0.368648
     9  C    0.001250
    10  H    0.174260
    11  C   -0.501246
    12  H    0.200392
    13  H    0.186308
    14  H    0.161770
    15  C    0.748644
    16  O   -0.569880
    17  N   -0.788446
    18  H    0.375393
    19  C   -0.278179
    20  H    0.204963
    21  H    0.180918
    22  H    0.165777
 Sum of Mulliken atomic charges =   0.00000

 Dipole moment (field-independent basis, Debye):
    X=              0.7671    Y=              5.3863    Z=             -2.1432  Tot=              5.8475
 Quadrupole moment (field-independent basis, Debye-Ang):
   XX=            -46.5375   YY=            -64.5942   ZZ=            -60.5509
   XY=             -4.9772   XZ=             -4.4312   YZ=              0.3959

 Normal termination of Gaussian 09 at Thu Feb  9 14:33:11 2017.
