 Gaussian 09, Revision A.02,
 Gaussian 09:  EM64L-G09RevA.02 11-Jun-2009

 -------------------------------------------
 # HF/6-31G* Opt=(ModRedundant) geom=nocrowd
 -------------------------------------------

 ------------------
 Phi Psi fixed scan
 ------------------
 Symbolic Z-matrix:
 Charge =  0 Multiplicity = 1

 SCF Done:  E(RHF) =  -492.732996910     A.U. after   16 cycles
 SCF Done:  E(RHF) =  -492.806622050     A.U. after   14 cycles
 SCF Done:  E(RHF) =  -492.832758455     A.U. after   16 cycles
 SCF Done:  E(RHF) =  -492.841246303     A.U. after   16 cycles
 SCF Done:  E(RHF) =  -492.842765816     A.U. after   13 cycles
 SCF Done:  E(RHF) =  -492.843070607     A.U. after   13 cycles
 SCF Done:  E(RHF) =  -492.843462470     A.U. after   12 cycles
 SCF Done:  E(RHF) =  -492.843697444     A.U. after   11 cycles
 SCF Done:  E(RHF) =  -492.843866315     A.U. after   12 cycles
 SCF Done:  E(RHF) =  -492.844008247     A.U. after   12 cycles
 SCF Done:  E(RHF) =  -492.844731630     A.U. after   11 cycles
 SCF Done:  E(RHF) =  -492.844744451     A.U. after   10 cycles
 SCF Done:  E(RHF) =  -492.844752094     A.U. after   10 cycles
 SCF Done:  E(RHF) =  -492.844758299     A.U. after   11 cycles
 SCF Done:  E(RHF) =  -492.844762207     A.U. after   10 cycles
 SCF Done:  E(RHF) =  -492.844767494     A.U. after   10 cycles
 SCF Done:  E(RHF) =  -492.844769730     A.U. after   10 cycles
 SCF Done:  E(RHF) =  -492.844772176     A.U. after   10 cycles
 SCF Done:  E(RHF) =  -492.844772794     A.U. after    9 cycles
 SCF Done:  E(RHF) =  -492.844772819     A.U. after    7 cycles
 Optimization completed.
    -- Stationary point found.

                         Standard orientation:
 ---------------------------------------------------------------------
 Center     Atomic      Atomic             Coordinates (Angstroms)
 Number     Number       Type             X           Y           Z
 ---------------------------------------------------------------------
      1          1           0        3.733879   -1.400017   -0.308320
      2          6           0        3.320834   -0.594607    0.281229
      3          1           0        3.851904    0.324805    0.063847
      4          1           0        3.462354   -0.832088    1.330931
      5          6           0        1.834587   -0.500901   -0.000458
      6          8           0        1.213052   -1.476273   -0.335591
      7          7           0        1.311070    0.733553    0.159436
      8          1           0        1.964229    1.427807    0.444394
      9          6           0       -0.069015    1.237073    0.213548
     10          1           0       -0.116587    1.858460    1.095029
     11          6           0       -0.353756    2.103014   -1.020302
     12          1           0       -0.304753    1.509947   -1.925163
     13          1           0       -1.339470    2.549053   -0.948788
     14          1           0        0.376551    2.902680   -1.093814
     15          6           0       -1.252854    0.272301    0.419104
     16          8           0       -2.034857    0.547107    1.290324
     17          7           0       -1.465927   -0.707474   -0.479916
     18          1           0       -0.645271   -1.104762   -0.883034
     19          6           0       -2.591802   -1.600118   -0.293263
     20          1           0       -3.506518   -1.029054   -0.229498
     21          1           0       -2.648286   -2.260836   -1.148192
     22          1           0       -2.497560   -2.195798    0.608953
 ---------------------------------------------------------------------

 The electronic state is 1-A.
 Alpha  occ. eigenvalues --  -20.53685 -20.51925 -15.60343 -15.56229 -11.36681
 Alpha  occ. eigenvalues --  -11.34047 -11.28862 -11.24325 -11.24135 -11.22861
 Alpha  occ. eigenvalues --   -1.40557  -1.38623  -1.25256  -1.21718  -1.06345
 Alpha  occ. eigenvalues --   -1.00130  -0.94414  -0.88527  -0.81741  -0.76477
 Alpha  occ. eigenvalues --   -0.71595  -0.70189  -0.65150  -0.63754  -0.62815
 Alpha  occ. eigenvalues --   -0.61940  -0.60278  -0.58468  -0.57680  -0.57126
 Alpha  occ. eigenvalues --   -0.54701  -0.53622  -0.52821  -0.51801  -0.50715
 Alpha  occ. eigenvalues --   -0.43452  -0.42374  -0.39453  -0.37543
 Alpha virt. eigenvalues --    0.18584   0.19484   0.20881   0.25346   0.26528
 Alpha virt. eigenvalues --    0.28086   0.29063   0.30510   0.30594   0.32152
 Alpha virt. eigenvalues --    0.32625   0.34102   0.34301   0.35668   0.36629

 Mulliken atomic charges:
              1
     1  H    0.217390
     2  C   -0.587142
     3  H    0.174301
     4  H    0.206905
     5  C    0.770018
     6  O   -0.633225
     7  N   -0.826198
     8  H    0.386925
     9  C   -0.023469
    10  H    0.221526
    11  C   -0.476756
    12  H    0.185029
    13  H    0.189381
    14  H    0.160574
    15  C    0.737889
    16  O   -0.611901
    17  N   -0.783893
    18  H    0.438611
    19  C   -0.280386
    20  H    0.192144
    21  H    0.168135
    22  H    0.174144
 Sum of Mulliken atomic charges =   0.00000

 Dipole moment (field-independent basis, Debye):
    X=              3.9411    Y=              1.7711    Z=             -1.1620  Tot=              4.4743
 Quadrupole moment (field-independent basis, Debye-Ang):
   XX=            -56.2910   YY=            -59.2519   ZZ=            -63.8680
   XY=              7.3483   XZ=              7.8045   YZ=             -1.0097

 Normal termination of Gaussian 09 at Thu Feb  9 15:05:04 2017.
