 Gaussian 09, Revision A.02,
 Gaussian 09:  EM64L-G09RevA.02 11-Jun-2009

 -------------------------------------------
 # HF/6-31G* Opt=(ModRedundant) geom=nocrowd
 -------------------------------------------

 ------------------
 Phi Psi fixed scan
 ------------------
 Symbolic Z-matrix:
 Charge =  0 Multiplicity = 1

 SCF Done:  E(RHF) =  -492.820261204     A.U. after   15 cycles
 SCF Done:  E(RHF) =  -492.837527192     A.U. after   15 cycles
 SCF Done:  E(RHF) =  -492.841577189     A.U. after   13 cycles
 SCF Done:  E(RHF) =  -492.842336933     A.U. after   13 cycles
 SCF Done:  E(RHF) =  -492.843187698     A.U. after   14 cycles
 SCF Done:  E(RHF) =  -492.843485347     A.U. after   13 cycles
 SCF Done:  E(RHF) =  -492.843787295     A.U. after   12 cycles
 SCF Done:  E(RHF) =  -492.843781019     A.U. after   13 cycles
 SCF Done:  E(RHF) =  -492.844062297     A.U. after   12 cycles
 SCF Done:  E(RHF) =  -492.844295590     A.U. after   11 cycles
 SCF Done:  E(RHF) =  -492.844668430     A.U. after   12 cycles
 SCF Done:  E(RHF) =  -492.844818990     A.U. after   12 cycles
 SCF Done:  E(RHF) =  -492.844845687     A.U. after   11 cycles
 SCF Done:  E(RHF) =  -492.844846419     A.U. after    8 cycles
 SCF Done:  E(RHF) =  -492.844846650     A.U. after    8 cycles
 SCF Done:  E(RHF) =  -492.844846710     A.U. after    7 cycles
 SCF Done:  E(RHF) =  -492.844846769     A.U. after    8 cycles
 SCF Done:  E(RHF) =  -492.844846819     A.U. after    8 cycles
 SCF Done:  E(RHF) =  -492.844846830     A.U. after    7 cycles
 SCF Done:  E(RHF) =  -492.844846837     A.U. after    7 cycles
 Optimization completed.
    -- Stationary point found.

                         Standard orientation:
 ---------------------------------------------------------------------
 Center     Atomic      Atomic             Coordinates (Angstroms)
 Number     Number       Type             X           Y           Z
 ---------------------------------------------------------------------
      1          1           0       -3.277895   -2.029293    0.278525
      2          6           0       -3.121773   -0.983829    0.057413
      3          1           0       -3.585277   -0.389818    0.839256
      4          1           0       -3.597879   -0.735226   -0.884802
      5          6           0       -1.632812   -0.706043    0.036500
      6          8           0       -0.842246   -1.442781    0.552877
      7          7           0       -1.278529    0.424715   -0.633299
      8          1           0       -2.030092    0.980593   -0.976179
      9          6           0       -0.009738    1.147561   -0.548562
     10          1           0        0.307930    1.351941   -1.566156
     11          6           0       -0.195068    2.472385    0.185523
     12          1           0       -0.462432    2.295846    1.218211
     13          1           0        0.721454    3.050289    0.165827
     14          1           0       -0.974733    3.060555   -0.291139
     15          6           0        1.112698    0.333134    0.120905
     16          8           0        1.397559    0.492398    1.270858
     17          7           0        1.855015   -0.416054   -0.733242
     18          1           0        1.399254   -0.694323   -1.574011
     19          6           0        2.815968   -1.358620   -0.193430
     20          1           0        3.491156   -0.839016    0.469417
     21          1           0        2.331023   -2.155746    0.359327
     22          1           0        3.383937   -1.780891   -1.012455
 ---------------------------------------------------------------------

 The electronic state is 1-A.
 Alpha  occ. eigenvalues --  -20.52776 -20.51595 -15.59395 -15.57333 -11.35492
 Alpha  occ. eigenvalues --  -11.33982 -11.28471 -11.24269 -11.23727 -11.22133
 Alpha  occ. eigenvalues --   -1.39951  -1.38365  -1.24520  -1.22088  -1.05634
 Alpha  occ. eigenvalues --   -0.99480  -0.95138  -0.87276  -0.81002  -0.76759
 Alpha  occ. eigenvalues --   -0.70436  -0.69210  -0.66307  -0.63436  -0.62385
 Alpha  occ. eigenvalues --   -0.61181  -0.60110  -0.58300  -0.57821  -0.55692
 Alpha  occ. eigenvalues --   -0.53922  -0.53429  -0.53071  -0.51185  -0.50838
 Alpha  occ. eigenvalues --   -0.42039  -0.41186  -0.39500  -0.38183
 Alpha virt. eigenvalues --    0.19275   0.19994   0.21992   0.23791   0.26170
 Alpha virt. eigenvalues --    0.27901   0.28507   0.30115   0.31385   0.31742
 Alpha virt. eigenvalues --    0.32591   0.33568   0.34176   0.35284   0.38207

 Mulliken atomic charges:
              1
     1  H    0.217545
     2  C   -0.590199
     3  H    0.200300
     4  H    0.176159
     5  C    0.752564
     6  O   -0.595482
     7  N   -0.815546
     8  H    0.379114
     9  C   -0.029907
    10  H    0.189796
    11  C   -0.477314
    12  H    0.205551
    13  H    0.181781
    14  H    0.146097
    15  C    0.791413
    16  O   -0.601395
    17  N   -0.772848
    18  H    0.376132
    19  C   -0.288833
    20  H    0.201234
    21  H    0.191175
    22  H    0.162661
 Sum of Mulliken atomic charges =   0.00000

 Dipole moment (field-independent basis, Debye):
    X=             -2.8712    Y=              1.3429    Z=             -4.3921  Tot=              5.4164
 Quadrupole moment (field-independent basis, Debye-Ang):
   XX=            -51.1962   YY=            -59.9487   ZZ=            -62.9329
   XY=             -4.8703   XZ=             -2.6328   YZ=              0.6279

 Normal termination of Gaussian 09 at Thu Feb  9 14:21:38 2017.
