 Gaussian 09, Revision A.02,
 Gaussian 09:  EM64L-G09RevA.02 11-Jun-2009

 -------------------------------------------
 # HF/6-31G* Opt=(ModRedundant) geom=nocrowd
 -------------------------------------------

 ------------------
 Phi Psi fixed scan
 ------------------
 Symbolic Z-matrix:
 Charge =  0 Multiplicity = 1

 SCF Done:  E(RHF) =  -492.795735834     A.U. after   15 cycles
 SCF Done:  E(RHF) =  -492.832469153     A.U. after   15 cycles
 SCF Done:  E(RHF) =  -492.839156228     A.U. after   13 cycles
 SCF Done:  E(RHF) =  -492.841400003     A.U. after   13 cycles
 SCF Done:  E(RHF) =  -492.842478271     A.U. after   13 cycles
 SCF Done:  E(RHF) =  -492.843337111     A.U. after   14 cycles
 SCF Done:  E(RHF) =  -492.843615552     A.U. after   13 cycles
 SCF Done:  E(RHF) =  -492.843763406     A.U. after   12 cycles
 SCF Done:  E(RHF) =  -492.844032848     A.U. after   12 cycles
 SCF Done:  E(RHF) =  -492.844388517     A.U. after   12 cycles
 SCF Done:  E(RHF) =  -492.844696813     A.U. after   13 cycles
 SCF Done:  E(RHF) =  -492.844751825     A.U. after   11 cycles
 SCF Done:  E(RHF) =  -492.844790378     A.U. after   11 cycles
 SCF Done:  E(RHF) =  -492.844798713     A.U. after   11 cycles
 SCF Done:  E(RHF) =  -492.844822641     A.U. after   12 cycles
 SCF Done:  E(RHF) =  -492.844827520     A.U. after   11 cycles
 SCF Done:  E(RHF) =  -492.844832229     A.U. after   10 cycles
 SCF Done:  E(RHF) =  -492.844833406     A.U. after   10 cycles
 SCF Done:  E(RHF) =  -492.844834015     A.U. after   10 cycles
 SCF Done:  E(RHF) =  -492.844834171     A.U. after    9 cycles
 Optimization completed.
    -- Stationary point found.

                         Standard orientation:
 ---------------------------------------------------------------------
 Center     Atomic      Atomic             Coordinates (Angstroms)
 Number     Number       Type             X           Y           Z
 ---------------------------------------------------------------------
      1          1           0        3.606742   -1.537098   -0.408198
      2          6           0        3.261077   -0.713991    0.200099
      3          1           0        3.838598    0.174598   -0.027279
      4          1           0        3.420912   -0.969065    1.243042
      5          6           0        1.775675   -0.528189   -0.033254
      6          8           0        1.078252   -1.452689   -0.358049
      7          7           0        1.328051    0.733122    0.157183
      8          1           0        2.014133    1.392940    0.446347
      9          6           0       -0.037630    1.260540    0.246634
     10          1           0       -0.068914    1.852679    1.149427
     11          6           0       -0.331515    2.166901   -0.953102
     12          1           0       -0.287686    1.612064   -1.882018
     13          1           0       -1.316944    2.610901   -0.863564
     14          1           0        0.398465    2.968916   -1.001393
     15          6           0       -1.186125    0.255254    0.463896
     16          8           0       -1.781070    0.291475    1.505436
     17          7           0       -1.576674   -0.505671   -0.585220
     18          1           0       -0.833497   -0.795972   -1.180997
     19          6           0       -2.609665   -1.500435   -0.371089
     20          1           0       -3.491467   -1.026721    0.033719
     21          1           0       -2.857588   -1.947045   -1.325097
     22          1           0       -2.290750   -2.279130    0.314074
 ---------------------------------------------------------------------

 The electronic state is 1-A.
 Alpha  occ. eigenvalues --  -20.53307 -20.52276 -15.60087 -15.56401 -11.36310
 Alpha  occ. eigenvalues --  -11.34086 -11.28713 -11.24139 -11.24030 -11.22894
 Alpha  occ. eigenvalues --   -1.40309  -1.38813  -1.25024  -1.21771  -1.06217
 Alpha  occ. eigenvalues --   -1.00002  -0.94223  -0.88543  -0.81523  -0.76309
 Alpha  occ. eigenvalues --   -0.71489  -0.69765  -0.65277  -0.63775  -0.62983
 Alpha  occ. eigenvalues --   -0.61744  -0.60092  -0.58346  -0.57352  -0.56981
 Alpha  occ. eigenvalues --   -0.54658  -0.53636  -0.52808  -0.51436  -0.51170
 Alpha  occ. eigenvalues --   -0.43213  -0.42342  -0.39485  -0.37658
 Alpha virt. eigenvalues --    0.18674   0.19023   0.21597   0.25095   0.26156
 Alpha virt. eigenvalues --    0.28106   0.28955   0.30307   0.30624   0.31862
 Alpha virt. eigenvalues --    0.32722   0.34082   0.34203   0.35295   0.36718

 Mulliken atomic charges:
              1
     1  H    0.216290
     2  C   -0.586729
     3  H    0.173556
     4  H    0.207259
     5  C    0.761595
     6  O   -0.626600
     7  N   -0.820616
     8  H    0.386158
     9  C   -0.031294
    10  H    0.221590
    11  C   -0.470394
    12  H    0.178534
    13  H    0.184111
    14  H    0.159772
    15  C    0.746898
    16  O   -0.603325
    17  N   -0.759774
    18  H    0.409432
    19  C   -0.284901
    20  H    0.194095
    21  H    0.166429
    22  H    0.177912
 Sum of Mulliken atomic charges =   0.00000

 Dipole moment (field-independent basis, Debye):
    X=              3.6438    Y=              2.1773    Z=             -1.6567  Tot=              4.5566
 Quadrupole moment (field-independent basis, Debye-Ang):
   XX=            -54.2190   YY=            -59.1609   ZZ=            -64.7191
   XY=              5.5122   XZ=              7.4640   YZ=              0.0960

 Normal termination of Gaussian 09 at Thu Feb  9 15:02:01 2017.
