 Gaussian 09, Revision A.02,
 Gaussian 09:  EM64L-G09RevA.02 11-Jun-2009

 -------------------------------------------
 # HF/6-31G* Opt=(ModRedundant) geom=nocrowd
 -------------------------------------------

 ------------------
 Phi Psi fixed scan
 ------------------
 Symbolic Z-matrix:
 Charge =  0 Multiplicity = 1

 SCF Done:  E(RHF) =  -492.819204034     A.U. after   15 cycles
 SCF Done:  E(RHF) =  -492.836806071     A.U. after   14 cycles
 SCF Done:  E(RHF) =  -492.841504732     A.U. after   13 cycles
 SCF Done:  E(RHF) =  -492.842385183     A.U. after   13 cycles
 SCF Done:  E(RHF) =  -492.843161682     A.U. after   13 cycles
 SCF Done:  E(RHF) =  -492.843866129     A.U. after   13 cycles
 SCF Done:  E(RHF) =  -492.844319243     A.U. after   13 cycles
 SCF Done:  E(RHF) =  -492.844645063     A.U. after   13 cycles
 SCF Done:  E(RHF) =  -492.844892799     A.U. after   12 cycles
 SCF Done:  E(RHF) =  -492.845284735     A.U. after   14 cycles
 SCF Done:  E(RHF) =  -492.845539084     A.U. after   12 cycles
 SCF Done:  E(RHF) =  -492.845659537     A.U. after   11 cycles
 SCF Done:  E(RHF) =  -492.845697833     A.U. after   11 cycles
 SCF Done:  E(RHF) =  -492.845701409     A.U. after   10 cycles
 SCF Done:  E(RHF) =  -492.845702197     A.U. after    8 cycles
 SCF Done:  E(RHF) =  -492.845702285     A.U. after    8 cycles
 SCF Done:  E(RHF) =  -492.845702392     A.U. after    8 cycles
 SCF Done:  E(RHF) =  -492.845702477     A.U. after    8 cycles
 SCF Done:  E(RHF) =  -492.845702479     A.U. after    6 cycles
 Optimization completed.
    -- Stationary point found.

                         Standard orientation:
 ---------------------------------------------------------------------
 Center     Atomic      Atomic             Coordinates (Angstroms)
 Number     Number       Type             X           Y           Z
 ---------------------------------------------------------------------
      1          1           0        3.394654   -1.688209   -0.660187
      2          6           0        3.137788   -0.877420    0.005551
      3          1           0        3.808512   -0.041797   -0.160376
      4          1           0        3.261759   -1.217342    1.029215
      5          6           0        1.688406   -0.503474   -0.214812
      6          8           0        0.900691   -1.266343   -0.701614
      7          7           0        1.357991    0.761251    0.158208
      8          1           0        2.066453    1.271185    0.636178
      9          6           0        0.001739    1.253312    0.400472
     10          1           0        0.006447    1.704962    1.383420
     11          6           0       -0.366490    2.322631   -0.629001
     12          1           0       -0.309560    1.936633   -1.640798
     13          1           0       -1.365926    2.705632   -0.456403
     14          1           0        0.332037    3.149984   -0.560650
     15          6           0       -1.023474    0.112569    0.551698
     16          8           0       -1.112064   -0.444293    1.609407
     17          7           0       -1.863887   -0.122485   -0.483318
     18          1           0       -1.506681    0.101651   -1.384082
     19          6           0       -2.712256   -1.297675   -0.432435
     20          1           0       -3.301699   -1.276413    0.471636
     21          1           0       -3.377685   -1.279554   -1.285938
     22          1           0       -2.130336   -2.212659   -0.447424
 ---------------------------------------------------------------------

 The electronic state is 1-A.
 Alpha  occ. eigenvalues --  -20.52875 -20.51625 -15.59317 -15.57002 -11.35511
 Alpha  occ. eigenvalues --  -11.33928 -11.28454 -11.24085 -11.23637 -11.22889
 Alpha  occ. eigenvalues --   -1.40028  -1.38298  -1.24356  -1.22037  -1.05830
 Alpha  occ. eigenvalues --   -0.99661  -0.94203  -0.88509  -0.80754  -0.76649
 Alpha  occ. eigenvalues --   -0.71334  -0.69251  -0.65074  -0.63962  -0.62516
 Alpha  occ. eigenvalues --   -0.61236  -0.59821  -0.57909  -0.57090  -0.56490
 Alpha  occ. eigenvalues --   -0.54490  -0.53976  -0.52703  -0.52150  -0.50158
 Alpha  occ. eigenvalues --   -0.42298  -0.41749  -0.39426  -0.37924
 Alpha virt. eigenvalues --    0.18692   0.19368   0.22404   0.24313   0.26082
 Alpha virt. eigenvalues --    0.28196   0.29267   0.30113   0.31047   0.31421
 Alpha virt. eigenvalues --    0.32473   0.34092   0.34348   0.35475   0.38008

 Mulliken atomic charges:
              1
     1  H    0.216018
     2  C   -0.591915
     3  H    0.176295
     4  H    0.206252
     5  C    0.759296
     6  O   -0.611806
     7  N   -0.804636
     8  H    0.383037
     9  C   -0.025402
    10  H    0.213123
    11  C   -0.476277
    12  H    0.166500
    13  H    0.182957
    14  H    0.167223
    15  C    0.765839
    16  O   -0.609955
    17  N   -0.764763
    18  H    0.384527
    19  C   -0.286680
    20  H    0.197675
    21  H    0.162908
    22  H    0.189782
 Sum of Mulliken atomic charges =   0.00000

 Dipole moment (field-independent basis, Debye):
    X=              2.3843    Y=              3.2026    Z=             -1.4821  Tot=              4.2589
 Quadrupole moment (field-independent basis, Debye-Ang):
   XX=            -50.3894   YY=            -59.8650   ZZ=            -64.3626
   XY=              2.3262   XZ=              7.1071   YZ=              2.0201

 Normal termination of Gaussian 09 at Thu Feb  9 14:56:54 2017.
