 Gaussian 09, Revision A.02,
 Gaussian 09:  EM64L-G09RevA.02 11-Jun-2009

 -------------------------------------------
 # HF/6-31G* Opt=(ModRedundant) geom=nocrowd
 -------------------------------------------

 ------------------
 Phi Psi fixed scan
 ------------------
 Symbolic Z-matrix:
 Charge =  0 Multiplicity = 1

 SCF Done:  E(RHF) =  -492.799390702     A.U. after   15 cycles
 SCF Done:  E(RHF) =  -492.832171402     A.U. after   15 cycles
 SCF Done:  E(RHF) =  -492.837121017     A.U. after   13 cycles
 SCF Done:  E(RHF) =  -492.838084742     A.U. after   13 cycles
 SCF Done:  E(RHF) =  -492.838903831     A.U. after   13 cycles
 SCF Done:  E(RHF) =  -492.839740981     A.U. after   13 cycles
 SCF Done:  E(RHF) =  -492.839966465     A.U. after   14 cycles
 SCF Done:  E(RHF) =  -492.840397435     A.U. after   13 cycles
 SCF Done:  E(RHF) =  -492.840511064     A.U. after   12 cycles
 SCF Done:  E(RHF) =  -492.840714662     A.U. after   12 cycles
 SCF Done:  E(RHF) =  -492.840983906     A.U. after   15 cycles
 SCF Done:  E(RHF) =  -492.841069803     A.U. after   12 cycles
 SCF Done:  E(RHF) =  -492.841218553     A.U. after   11 cycles
 SCF Done:  E(RHF) =  -492.841296981     A.U. after   12 cycles
 SCF Done:  E(RHF) =  -492.841303904     A.U. after   11 cycles
 SCF Done:  E(RHF) =  -492.841338072     A.U. after   11 cycles
 SCF Done:  E(RHF) =  -492.841347193     A.U. after   11 cycles
 SCF Done:  E(RHF) =  -492.841350676     A.U. after   10 cycles
 SCF Done:  E(RHF) =  -492.841350818     A.U. after    8 cycles
 SCF Done:  E(RHF) =  -492.841350941     A.U. after    8 cycles
 Optimization completed.
    -- Stationary point found.

                         Standard orientation:
 ---------------------------------------------------------------------
 Center     Atomic      Atomic             Coordinates (Angstroms)
 Number     Number       Type             X           Y           Z
 ---------------------------------------------------------------------
      1          1           0       -3.451512   -1.867084    0.273536
      2          6           0       -3.207960   -0.837638    0.057088
      3          1           0       -3.568495   -0.212665    0.868616
      4          1           0       -3.708531   -0.529361   -0.854773
      5          6           0       -1.703210   -0.703452   -0.054299
      6          8           0       -0.957858   -1.557435    0.325609
      7          7           0       -1.283364    0.442393   -0.671108
      8          1           0       -2.012741    1.081740   -0.899403
      9          6           0        0.008452    1.110457   -0.514425
     10          1           0        0.360161    1.359831   -1.510355
     11          6           0       -0.148454    2.403429    0.283898
     12          1           0       -0.454156    2.182332    1.297324
     13          1           0        0.790321    2.944819    0.319789
     14          1           0       -0.888296    3.048368   -0.182639
     15          6           0        1.082740    0.238896    0.158932
     16          8           0        1.170974    0.169582    1.349538
     17          7           0        2.027408   -0.249288   -0.681616
     18          1           0        1.762538   -0.362966   -1.634226
     19          6           0        3.030842   -1.165363   -0.175306
     20          1           0        3.527199   -0.717711    0.672407
     21          1           0        2.596467   -2.108504    0.137467
     22          1           0        3.759351   -1.345686   -0.955169
 ---------------------------------------------------------------------

 The electronic state is 1-A.
 Alpha  occ. eigenvalues --  -20.52486 -20.51475 -15.58915 -15.57831 -11.35050
 Alpha  occ. eigenvalues --  -11.34050 -11.28497 -11.24655 -11.23402 -11.22458
 Alpha  occ. eigenvalues --   -1.39683  -1.38283  -1.24147  -1.22398  -1.05553
 Alpha  occ. eigenvalues --   -0.99305  -0.95410  -0.87376  -0.80675  -0.77089
 Alpha  occ. eigenvalues --   -0.69925  -0.69020  -0.66346  -0.63503  -0.62187
 Alpha  occ. eigenvalues --   -0.61408  -0.59915  -0.58215  -0.57780  -0.55549
 Alpha  occ. eigenvalues --   -0.54292  -0.53809  -0.53288  -0.51306  -0.50249
 Alpha  occ. eigenvalues --   -0.41844  -0.41074  -0.39130  -0.38380
 Alpha virt. eigenvalues --    0.19566   0.20204   0.21532   0.23274   0.26501
 Alpha virt. eigenvalues --    0.27603   0.28456   0.30531   0.31228   0.31976
 Alpha virt. eigenvalues --    0.32428   0.33645   0.34101   0.35255   0.37914

 Mulliken atomic charges:
              1
     1  H    0.217577
     2  C   -0.593152
     3  H    0.196439
     4  H    0.178109
     5  C    0.750982
     6  O   -0.584070
     7  N   -0.808173
     8  H    0.374745
     9  C   -0.023368
    10  H    0.184382
    11  C   -0.489737
    12  H    0.208283
    13  H    0.180633
    14  H    0.150141
    15  C    0.795405
    16  O   -0.603914
    17  N   -0.783733
    18  H    0.378559
    19  C   -0.285671
    20  H    0.202883
    21  H    0.189670
    22  H    0.164010
 Sum of Mulliken atomic charges =   0.00000

 Dipole moment (field-independent basis, Debye):
    X=             -1.8234    Y=              2.4105    Z=             -4.1052  Tot=              5.0979
 Quadrupole moment (field-independent basis, Debye-Ang):
   XX=            -48.6994   YY=            -61.1086   ZZ=            -62.7154
   XY=             -4.8513   XZ=             -3.5083   YZ=              0.8684

 Normal termination of Gaussian 09 at Thu Feb  9 14:24:07 2017.
