 Gaussian 09, Revision A.02,
 Gaussian 09:  EM64L-G09RevA.02 11-Jun-2009

 -------------------------------------------
 # HF/6-31G* Opt=(ModRedundant) geom=nocrowd
 -------------------------------------------

 ------------------
 Phi Psi fixed scan
 ------------------
 Symbolic Z-matrix:
 Charge =  0 Multiplicity = 1

 SCF Done:  E(RHF) =  -492.675617355     A.U. after   17 cycles
 SCF Done:  E(RHF) =  -492.738120071     A.U. after   15 cycles
 SCF Done:  E(RHF) =  -492.797494596     A.U. after   14 cycles
 SCF Done:  E(RHF) =  -492.820652614     A.U. after   14 cycles
 SCF Done:  E(RHF) =  -492.825706132     A.U. after   13 cycles
 SCF Done:  E(RHF) =  -492.828183631     A.U. after   13 cycles
 SCF Done:  E(RHF) =  -492.829650086     A.U. after   13 cycles
 SCF Done:  E(RHF) =  -492.831158638     A.U. after   15 cycles
 SCF Done:  E(RHF) =  -492.831901177     A.U. after   13 cycles
 SCF Done:  E(RHF) =  -492.832496647     A.U. after   13 cycles
 SCF Done:  E(RHF) =  -492.832881473     A.U. after   13 cycles
 SCF Done:  E(RHF) =  -492.833137363     A.U. after   12 cycles
 SCF Done:  E(RHF) =  -492.833398422     A.U. after   12 cycles
 SCF Done:  E(RHF) =  -492.833376478     A.U. after   12 cycles
 SCF Done:  E(RHF) =  -492.833432243     A.U. after   11 cycles
 SCF Done:  E(RHF) =  -492.833436391     A.U. after   11 cycles
 SCF Done:  E(RHF) =  -492.833438468     A.U. after    9 cycles
 SCF Done:  E(RHF) =  -492.833438706     A.U. after    9 cycles
 SCF Done:  E(RHF) =  -492.833438971     A.U. after    9 cycles
 SCF Done:  E(RHF) =  -492.833439080     A.U. after    8 cycles
 Optimization completed.
    -- Stationary point found.

                         Standard orientation:
 ---------------------------------------------------------------------
 Center     Atomic      Atomic             Coordinates (Angstroms)
 Number     Number       Type             X           Y           Z
 ---------------------------------------------------------------------
      1          1           0       -3.630165   -1.488185    0.263263
      2          6           0       -3.107914   -0.826129   -0.411197
      3          1           0       -3.781648   -0.044008   -0.747266
      4          1           0       -2.778796   -1.388755   -1.279355
      5          6           0       -1.897292   -0.257479    0.292036
      6          8           0       -1.503685   -0.674882    1.336414
      7          7           0       -1.333977    0.852760   -0.321951
      8          1           0       -1.808186    1.077288   -1.169619
      9          6           0        0.103879    1.067561   -0.480141
     10          1           0        0.275896    1.287731   -1.528741
     11          6           0        0.528090    2.287440    0.347259
     12          1           0        0.463870    2.068328    1.407268
     13          1           0        1.531859    2.625151    0.109416
     14          1           0       -0.146092    3.108428    0.137991
     15          6           0        0.949143   -0.194411   -0.240014
     16          8           0        0.509699   -1.287489   -0.454595
     17          7           0        2.278277    0.014029   -0.062188
     18          1           0        2.574365    0.873567    0.335616
     19          6           0        3.165168   -1.121100    0.106253
     20          1           0        3.043042   -1.801353   -0.723211
     21          1           0        4.185128   -0.759764    0.119282
     22          1           0        2.966064   -1.662281    1.024593
 ---------------------------------------------------------------------

 The electronic state is 1-A.
 Alpha  occ. eigenvalues --  -20.52332 -20.51565 -15.58504 -15.57538 -11.34681
 Alpha  occ. eigenvalues --  -11.33923 -11.28947 -11.25477 -11.22995 -11.22362
 Alpha  occ. eigenvalues --   -1.39876  -1.37946  -1.23353  -1.22756  -1.05392
 Alpha  occ. eigenvalues --   -0.98764  -0.95223  -0.88505  -0.79773  -0.77391
 Alpha  occ. eigenvalues --   -0.70438  -0.68899  -0.64666  -0.64384  -0.61575
 Alpha  occ. eigenvalues --   -0.61480  -0.60102  -0.57902  -0.56623  -0.56311
 Alpha  occ. eigenvalues --   -0.55271  -0.54128  -0.53709  -0.51669  -0.48505
 Alpha  occ. eigenvalues --   -0.42254  -0.40937  -0.39453  -0.38261
 Alpha virt. eigenvalues --    0.18201   0.20159   0.22442   0.23193   0.26392
 Alpha virt. eigenvalues --    0.27593   0.29747   0.30294   0.31001   0.31671
 Alpha virt. eigenvalues --    0.32522   0.34077   0.34180   0.35439   0.37089

 Mulliken atomic charges:
              1
     1  H    0.213388
     2  C   -0.601393
     3  H    0.172805
     4  H    0.203037
     5  C    0.772769
     6  O   -0.575069
     7  N   -0.788347
     8  H    0.367114
     9  C   -0.034954
    10  H    0.205664
    11  C   -0.494395
    12  H    0.196801
    13  H    0.148297
    14  H    0.186750
    15  C    0.767729
    16  O   -0.606422
    17  N   -0.798486
    18  H    0.389857
    19  C   -0.277637
    20  H    0.202562
    21  H    0.165629
    22  H    0.184299
 Sum of Mulliken atomic charges =   0.00000

 Dipole moment (field-independent basis, Debye):
    X=              1.5579    Y=              3.6090    Z=             -2.6230  Tot=              4.7256
 Quadrupole moment (field-independent basis, Debye-Ang):
   XX=            -47.6505   YY=            -61.9920   ZZ=            -62.6681
   XY=              0.4246   XZ=              7.9659   YZ=             -0.2230

 Normal termination of Gaussian 09 at Thu Feb  9 14:46:23 2017.
