 Gaussian 09, Revision A.02,
 Gaussian 09:  EM64L-G09RevA.02 11-Jun-2009

 -------------------------------------------
 # HF/6-31G* Opt=(ModRedundant) geom=nocrowd
 -------------------------------------------

 ------------------
 Phi Psi fixed scan
 ------------------
 Symbolic Z-matrix:
 Charge =  0 Multiplicity = 1

 SCF Done:  E(RHF) =  -492.577449814     A.U. after   18 cycles
 SCF Done:  E(RHF) =  -492.674105889     A.U. after   17 cycles
 SCF Done:  E(RHF) =  -492.767408240     A.U. after   15 cycles
 SCF Done:  E(RHF) =  -492.803015403     A.U. after   14 cycles
 SCF Done:  E(RHF) =  -492.817884920     A.U. after   14 cycles
 SCF Done:  E(RHF) =  -492.820888548     A.U. after   13 cycles
 SCF Done:  E(RHF) =  -492.823437315     A.U. after   13 cycles
 SCF Done:  E(RHF) =  -492.824633435     A.U. after   13 cycles
 SCF Done:  E(RHF) =  -492.825664666     A.U. after   14 cycles
 SCF Done:  E(RHF) =  -492.826386179     A.U. after   14 cycles
 SCF Done:  E(RHF) =  -492.827727153     A.U. after   14 cycles
 SCF Done:  E(RHF) =  -492.823635283     A.U. after   14 cycles
 SCF Done:  E(RHF) =  -492.828058670     A.U. after   15 cycles
 SCF Done:  E(RHF) =  -492.827888269     A.U. after   13 cycles
 SCF Done:  E(RHF) =  -492.828249516     A.U. after   13 cycles
 SCF Done:  E(RHF) =  -492.828295428     A.U. after   12 cycles
 SCF Done:  E(RHF) =  -492.828316990     A.U. after   12 cycles
 SCF Done:  E(RHF) =  -492.828319876     A.U. after   10 cycles
 SCF Done:  E(RHF) =  -492.828321007     A.U. after   10 cycles
 SCF Done:  E(RHF) =  -492.828321167     A.U. after    9 cycles
 Optimization completed.
    -- Stationary point found.

                         Standard orientation:
 ---------------------------------------------------------------------
 Center     Atomic      Atomic             Coordinates (Angstroms)
 Number     Number       Type             X           Y           Z
 ---------------------------------------------------------------------
      1          1           0       -3.640783   -1.517658    0.032141
      2          6           0       -3.048020   -0.870381   -0.596785
      3          1           0       -3.690092   -0.124443   -1.055769
      4          1           0       -2.592477   -1.458447   -1.387510
      5          6           0       -1.960126   -0.230971    0.236491
      6          8           0       -1.738651   -0.555649    1.358935
      7          7           0       -1.314944    0.844495   -0.376127
      8          1           0       -1.717991    1.023178   -1.270611
      9          6           0        0.133298    1.040098   -0.461656
     10          1           0        0.358165    1.263731   -1.498755
     11          6           0        0.517639    2.254568    0.398895
     12          1           0        0.360172    2.029579    1.447267
     13          1           0        1.545850    2.572090    0.257723
     14          1           0       -0.119999    3.089434    0.137106
     15          6           0        0.978861   -0.202723   -0.139611
     16          8           0        0.516489   -1.301147   -0.039105
     17          7           0        2.320693   -0.005878   -0.223129
     18          1           0        2.679962    0.914159   -0.129606
     19          6           0        3.234185   -1.101470    0.034665
     20          1           0        2.973907   -1.945302   -0.586766
     21          1           0        4.236715   -0.777509   -0.212236
     22          1           0        3.208602   -1.419490    1.071176
 ---------------------------------------------------------------------

 The electronic state is 1-A.
 Alpha  occ. eigenvalues --  -20.52684 -20.51485 -15.58596 -15.57334 -11.34844
 Alpha  occ. eigenvalues --  -11.33815 -11.29091 -11.25700 -11.22984 -11.22315
 Alpha  occ. eigenvalues --   -1.40039  -1.37921  -1.23463  -1.22598  -1.05369
 Alpha  occ. eigenvalues --   -0.98692  -0.95422  -0.88347  -0.79876  -0.77331
 Alpha  occ. eigenvalues --   -0.70268  -0.68813  -0.64921  -0.64088  -0.61805
 Alpha  occ. eigenvalues --   -0.61441  -0.60220  -0.58087  -0.56646  -0.56400
 Alpha  occ. eigenvalues --   -0.55419  -0.54036  -0.53800  -0.51515  -0.48528
 Alpha  occ. eigenvalues --   -0.42669  -0.40814  -0.39409  -0.37921
 Alpha virt. eigenvalues --    0.18128   0.20428   0.21513   0.22786   0.26308
 Alpha virt. eigenvalues --    0.27476   0.29805   0.30673   0.31145   0.31588
 Alpha virt. eigenvalues --    0.32283   0.33779   0.34477   0.35340   0.36730

 Mulliken atomic charges:
              1
     1  H    0.213858
     2  C   -0.601817
     3  H    0.172224
     4  H    0.198206
     5  C    0.772432
     6  O   -0.559671
     7  N   -0.792472
     8  H    0.364183
     9  C   -0.046308
    10  H    0.199425
    11  C   -0.478370
    12  H    0.203325
    13  H    0.139576
    14  H    0.185515
    15  C    0.759227
    16  O   -0.595710
    17  N   -0.796537
    18  H    0.386620
    19  C   -0.274493
    20  H    0.203058
    21  H    0.165861
    22  H    0.181869
 Sum of Mulliken atomic charges =   0.00000

 Dipole moment (field-independent basis, Debye):
    X=              2.2642    Y=              3.3569    Z=             -3.7232  Tot=              5.5007
 Quadrupole moment (field-independent basis, Debye-Ang):
   XX=            -48.6208   YY=            -61.7366   ZZ=            -62.6426
   XY=              1.1817   XZ=              7.5906   YZ=              0.4811

 Normal termination of Gaussian 09 at Thu Feb  9 14:43:19 2017.
