 Gaussian 09, Revision A.02,
 Gaussian 09:  EM64L-G09RevA.02 11-Jun-2009

 -------------------------------------------------------------------
 # HF/6-31G* Opt=(ModRedundant, maxcycles=1000, calcfc) geom=nocrowd
 -------------------------------------------------------------------

 ------------------
 Phi Psi fixed scan
 ------------------
 Symbolic Z-matrix:
 Charge =  0 Multiplicity = 1

 SCF Done:  E(RHF) =  -984.529914596     A.U. after   14 cycles

  Exact polarizability:   0.000   0.000   0.000   0.000   0.000   0.000
 Approx polarizability: 133.126   6.224 130.228  -8.508   1.392 125.172

 SCF Done:  E(RHF) =  -984.540480188     A.U. after   12 cycles
 SCF Done:  E(RHF) =  -984.552586634     A.U. after   13 cycles
 SCF Done:  E(RHF) =  -984.556455363     A.U. after   13 cycles
 SCF Done:  E(RHF) =  -984.559270774     A.U. after   13 cycles
 SCF Done:  E(RHF) =  -984.560495588     A.U. after   15 cycles
 SCF Done:  E(RHF) =  -984.539119484     A.U. after   15 cycles
 SCF Done:  E(RHF) =  -984.560789824     A.U. after   15 cycles
 SCF Done:  E(RHF) =  -984.421816464     A.U. after   15 cycles
 SCF Done:  E(RHF) =  -984.560738999     A.U. after   15 cycles
 SCF Done:  E(RHF) =  -984.561131909     A.U. after   11 cycles
 SCF Done:  E(RHF) =  -984.561134027     A.U. after   10 cycles
 SCF Done:  E(RHF) =  -984.561134595     A.U. after    9 cycles
 SCF Done:  E(RHF) =  -984.561134791     A.U. after    8 cycles
 SCF Done:  E(RHF) =  -984.561134910     A.U. after    8 cycles
 SCF Done:  E(RHF) =  -984.561134982     A.U. after    7 cycles
 SCF Done:  E(RHF) =  -984.561135073     A.U. after    7 cycles
 SCF Done:  E(RHF) =  -984.561135183     A.U. after    7 cycles
 SCF Done:  E(RHF) =  -984.561135277     A.U. after    8 cycles
 SCF Done:  E(RHF) =  -984.561135310     A.U. after    7 cycles
 Optimization completed.
    -- Stationary point found.

                         Standard orientation:
 ---------------------------------------------------------------------
 Center     Atomic      Atomic             Coordinates (Angstroms)
 Number     Number       Type             X           Y           Z
 ---------------------------------------------------------------------
      1          1           0       -5.621082    3.391056   -0.249457
      2          6           0       -4.583173    3.100920   -0.159334
      3          1           0       -4.139653    3.687073    0.638775
      4          1           0       -4.061487    3.321988   -1.082753
      5          6           0       -4.517589    1.637991    0.222991
      6          8           0       -5.291863    1.153485    1.006655
      7          7           0       -3.526735    0.927285   -0.353003
      8          1           0       -2.860992    1.364079   -0.949984
      9          6           0       -3.269052   -0.448590   -0.005898
     10          1           0       -3.402363   -0.563344    1.063183
     11          6           0       -4.215415   -1.414136   -0.732446
     12          1           0       -4.084469   -1.333125   -1.806240
     13          1           0       -4.031926   -2.441882   -0.438773
     14          1           0       -5.236978   -1.160441   -0.483554
     15          6           0       -1.817905   -0.750001   -0.366062
     16          8           0       -1.195521   -0.053180   -1.123481
     17          7           0       -1.311147   -1.885131    0.174146
     18          1           0       -1.760356   -2.209703    1.000535
     19          6           0        0.104161   -2.194636    0.071871
     20          1           0        0.255578   -3.061523    0.707043
     21          6           0        0.509750   -2.584498   -1.350330
     22          1           0        0.476685   -1.738905   -2.022132
     23          1           0        1.506202   -3.013442   -1.363545
     24          1           0       -0.174759   -3.340436   -1.715433
     25          6           0        0.924828   -1.081850    0.746277
     26          8           0        0.487200   -0.521361    1.717964
     27          7           0        2.152529   -0.842869    0.258596
     28          1           0        2.450367   -1.222826   -0.611255
     29          6           0        2.997819    0.189395    0.812302
     30          1           0        2.373963    1.028660    1.094320
     31          6           0        3.764553   -0.300362    2.047373
     32          1           0        4.409806   -1.131484    1.784717
     33          1           0        4.375353    0.489830    2.471249
     34          1           0        3.057748   -0.627253    2.798476
     35          6           0        3.968417    0.618253   -0.284957
     36          8           0        4.207421   -0.092636   -1.226836
     37          7           0        4.561071    1.811451   -0.102553
     38          1           0        4.237892    2.401779    0.628320
     39          6           0        5.500560    2.349106   -1.065349
     40          1           0        6.243261    1.603841   -1.310222
     41          1           0        5.005043    2.654220   -1.979874
     42          1           0        5.992520    3.206675   -0.626746
 ---------------------------------------------------------------------

 The electronic state is 1-A.
 Alpha  occ. eigenvalues --  -20.54133 -20.53803 -20.52324 -20.51174 -15.59850
 Alpha  occ. eigenvalues --  -15.59226 -15.58411 -15.57487 -11.35721 -11.35679
 Alpha  occ. eigenvalues --  -11.34857 -11.33997 -11.28914 -11.28427 -11.27792
 Alpha  occ. eigenvalues --  -11.26690 -11.22713 -11.22534 -11.22531 -11.21961
 Alpha  occ. eigenvalues --   -1.41176  -1.40748  -1.39151  -1.38050  -1.24790
 Alpha  occ. eigenvalues --   -1.24648  -1.24148  -1.23164  -1.07385  -1.05012
 Alpha  occ. eigenvalues --   -1.02335  -0.98370  -0.96658  -0.91543  -0.89871
 Alpha  occ. eigenvalues --   -0.87197  -0.81627  -0.79571  -0.78759  -0.78040
 Alpha  occ. eigenvalues --   -0.74381  -0.72976  -0.68284  -0.67697  -0.66668
 Alpha  occ. eigenvalues --   -0.66293  -0.64667  -0.64248  -0.63669  -0.62953
 Alpha  occ. eigenvalues --   -0.61255  -0.60818  -0.60278  -0.59378  -0.58387
 Alpha  occ. eigenvalues --   -0.57339  -0.56432  -0.56422  -0.56022  -0.55756
 Alpha  occ. eigenvalues --   -0.55104  -0.54677  -0.54031  -0.53626  -0.52756
 Alpha  occ. eigenvalues --   -0.52299  -0.51956  -0.49872  -0.49066  -0.43477
 Alpha  occ. eigenvalues --   -0.42860  -0.42637  -0.40955  -0.40626  -0.40218
 Alpha  occ. eigenvalues --   -0.38818  -0.37991
 Alpha virt. eigenvalues --    0.17578   0.18799   0.20098   0.21007   0.21408
 Alpha virt. eigenvalues --    0.22600   0.24392   0.25050   0.26181   0.27598
 Alpha virt. eigenvalues --    0.27830   0.28797   0.29393   0.29919   0.30454

 Mulliken atomic charges:
              1
     1  H    0.207055
     2  C   -0.576580
     3  H    0.202195
     4  H    0.172626
     5  C    0.756108
     6  O   -0.622064
     7  N   -0.822301
     8  H    0.418739
     9  C   -0.031241
    10  H    0.219496
    11  C   -0.483702
    12  H    0.173513
    13  H    0.162357
    14  H    0.212611
    15  C    0.787619
    16  O   -0.634967
    17  N   -0.782865
    18  H    0.393932
    19  C   -0.053434
    20  H    0.211678
    21  C   -0.517194
    22  H    0.221834
    23  H    0.166645
    24  H    0.187342
    25  C    0.812181
    26  O   -0.644181
    27  N   -0.850127
    28  H    0.438183
    29  C   -0.029372
    30  H    0.216936
    31  C   -0.483507
    32  H    0.178589
    33  H    0.159454
    34  H    0.208871
    35  C    0.774680
    36  O   -0.630272
    37  N   -0.798326
    38  H    0.389979
    39  C   -0.273410
    40  H    0.203712
    41  H    0.185064
    42  H    0.172142
 Sum of Mulliken atomic charges =   0.00000

 Dipole moment (field-independent basis, Debye):
    X=              3.9954    Y=              0.6905    Z=             -0.2924  Tot=              4.0652
 Quadrupole moment (field-independent basis, Debye-Ang):
   XX=           -129.8289   YY=            -97.6332   ZZ=           -128.4262
   XY=             14.6078   XZ=             16.7238   YZ=             -3.8108

 Normal termination of Gaussian 09 at Tue Dec 27 14:10:35 2016.
