 Gaussian 09, Revision A.02,
 Gaussian 09:  EM64L-G09RevA.02 11-Jun-2009

 -------------------------------------------------------------------
 # HF/6-31G* Opt=(ModRedundant, maxcycles=1000, calcfc) geom=nocrowd
 -------------------------------------------------------------------

 ------------------
 Phi Psi fixed scan
 ------------------
 Symbolic Z-matrix:
 Charge =  0 Multiplicity = 1

 SCF Done:  E(RHF) =  -984.518979772     A.U. after   15 cycles

  Exact polarizability:   0.000   0.000   0.000   0.000   0.000   0.000
 Approx polarizability: 132.957   4.188 131.749   3.413 -12.289 124.162

 SCF Done:  E(RHF) =  -984.531016691     A.U. after   13 cycles
 SCF Done:  E(RHF) =  -984.544531288     A.U. after   13 cycles
 SCF Done:  E(RHF) =  -984.548680949     A.U. after   13 cycles
 SCF Done:  E(RHF) =  -984.552468111     A.U. after   13 cycles
 SCF Done:  E(RHF) =  -984.554666459     A.U. after   15 cycles
 SCF Done:  E(RHF) =  -984.554375727     A.U. after   13 cycles
 SCF Done:  E(RHF) =  -984.554774331     A.U. after   14 cycles
 SCF Done:  E(RHF) =  -984.548601414     A.U. after   15 cycles
 SCF Done:  E(RHF) =  -984.555200359     A.U. after   13 cycles
 SCF Done:  E(RHF) =  -984.555391541     A.U. after    8 cycles
 SCF Done:  E(RHF) =  -984.555391660     A.U. after    8 cycles
 SCF Done:  E(RHF) =  -984.555391745     A.U. after    8 cycles
 SCF Done:  E(RHF) =  -984.555391826     A.U. after    7 cycles
 SCF Done:  E(RHF) =  -984.555391922     A.U. after    8 cycles
 SCF Done:  E(RHF) =  -984.555392016     A.U. after    8 cycles
 SCF Done:  E(RHF) =  -984.555392132     A.U. after    8 cycles
 SCF Done:  E(RHF) =  -984.555392223     A.U. after    8 cycles
 SCF Done:  E(RHF) =  -984.555392278     A.U. after    8 cycles
 SCF Done:  E(RHF) =  -984.555392292     A.U. after    7 cycles
 Optimization completed.
    -- Stationary point found.

                         Standard orientation:
 ---------------------------------------------------------------------
 Center     Atomic      Atomic             Coordinates (Angstroms)
 Number     Number       Type             X           Y           Z
 ---------------------------------------------------------------------
      1          1           0       -6.384299   -2.615046    0.904011
      2          6           0       -5.380578   -2.306922    1.161896
      3          1           0       -4.757501   -3.194031    1.214203
      4          1           0       -5.382578   -1.830269    2.134862
      5          6           0       -4.849322   -1.405635    0.068292
      6          8           0       -5.138013   -1.572916   -1.088380
      7          7           0       -4.019969   -0.423447    0.476118
      8          1           0       -3.718616   -0.369149    1.423561
      9          6           0       -3.318972    0.420644   -0.459369
     10          1           0       -3.003149   -0.185735   -1.300307
     11          6           0       -4.206042    1.563939   -0.971928
     12          1           0       -4.513109    2.198893   -0.148071
     13          1           0       -3.688730    2.176393   -1.702985
     14          1           0       -5.086525    1.143610   -1.438632
     15          6           0       -2.081545    0.966018    0.252619
     16          8           0       -1.974807    0.916603    1.444147
     17          7           0       -1.186236    1.596355   -0.569448
     18          1           0       -1.347238    1.423490   -1.537808
     19          6           0        0.225599    1.738800   -0.255634
     20          1           0        0.662847    2.219566   -1.123407
     21          6           0        0.480017    2.640474    0.958591
     22          1           0        0.104036    2.187064    1.862868
     23          1           0        1.543039    2.827433    1.068730
     24          1           0       -0.021215    3.589576    0.811559
     25          6           0        0.913504    0.376680   -0.084558
     26          8           0        0.329415   -0.612759    0.263743
     27          7           0        2.219264    0.370554   -0.422989
     28          1           0        2.697293    1.213210   -0.656661
     29          6           0        3.057505   -0.788866   -0.225630
     30          1           0        2.737599   -1.293336    0.678021
     31          6           0        2.962008   -1.768128   -1.402740
     32          1           0        3.293021   -1.290079   -2.318209
     33          1           0        3.571749   -2.649669   -1.234732
     34          1           0        1.933145   -2.080913   -1.521814
     35          6           0        4.490884   -0.291375   -0.053189
     36          8           0        4.825068    0.803766   -0.426642
     37          7           0        5.348038   -1.165528    0.501031
     38          1           0        4.995097   -2.013887    0.878875
     39          6           0        6.740977   -0.831995    0.720123
     40          1           0        7.172917   -0.433792   -0.186642
     41          1           0        6.855145   -0.096077    1.507488
     42          1           0        7.271871   -1.732155    0.998307
 ---------------------------------------------------------------------

 The electronic state is 1-A.
 Alpha  occ. eigenvalues --  -20.54228 -20.53368 -20.53114 -20.50901 -15.60258
 Alpha  occ. eigenvalues --  -15.59104 -15.58879 -15.57002 -11.36150 -11.35278
 Alpha  occ. eigenvalues --  -11.35175 -11.33643 -11.29115 -11.28913 -11.27399
 Alpha  occ. eigenvalues --  -11.27037 -11.23074 -11.22316 -11.22173 -11.21778
 Alpha  occ. eigenvalues --   -1.41270  -1.40644  -1.39556  -1.37712  -1.25053
 Alpha  occ. eigenvalues --   -1.24791  -1.24388  -1.22739  -1.07507  -1.04998
 Alpha  occ. eigenvalues --   -1.02309  -0.98025  -0.97028  -0.91598  -0.89762
 Alpha  occ. eigenvalues --   -0.86832  -0.81739  -0.79591  -0.79012  -0.77576
 Alpha  occ. eigenvalues --   -0.74299  -0.72341  -0.68931  -0.68160  -0.66288
 Alpha  occ. eigenvalues --   -0.65744  -0.65139  -0.64381  -0.63180  -0.62711
 Alpha  occ. eigenvalues --   -0.61274  -0.61001  -0.60288  -0.60016  -0.58545
 Alpha  occ. eigenvalues --   -0.57540  -0.56805  -0.56628  -0.56015  -0.55394
 Alpha  occ. eigenvalues --   -0.54755  -0.54215  -0.54025  -0.53612  -0.52730
 Alpha  occ. eigenvalues --   -0.52111  -0.51809  -0.50161  -0.48709  -0.44578
 Alpha  occ. eigenvalues --   -0.43553  -0.42125  -0.41000  -0.40635  -0.39544
 Alpha  occ. eigenvalues --   -0.39025  -0.37452
 Alpha virt. eigenvalues --    0.17523   0.18618   0.19816   0.20539   0.21464
 Alpha virt. eigenvalues --    0.22026   0.24321   0.24961   0.25803   0.27579
 Alpha virt. eigenvalues --    0.28555   0.28631   0.28957   0.30387   0.30811

 Mulliken atomic charges:
              1
     1  H    0.206135
     2  C   -0.577945
     3  H    0.201390
     4  H    0.175140
     5  C    0.753509
     6  O   -0.623987
     7  N   -0.817824
     8  H    0.421826
     9  C   -0.040558
    10  H    0.214470
    11  C   -0.483023
    12  H    0.175671
    13  H    0.155555
    14  H    0.212998
    15  C    0.807419
    16  O   -0.615807
    17  N   -0.794322
    18  H    0.380511
    19  C   -0.062644
    20  H    0.195067
    21  C   -0.489501
    22  H    0.230048
    23  H    0.164084
    24  H    0.184246
    25  C    0.780852
    26  O   -0.615156
    27  N   -0.833587
    28  H    0.422806
    29  C   -0.036959
    30  H    0.216520
    31  C   -0.481390
    32  H    0.178374
    33  H    0.159768
    34  H    0.210137
    35  C    0.775936
    36  O   -0.631974
    37  N   -0.798497
    38  H    0.391278
    39  C   -0.272973
    40  H    0.203290
    41  H    0.185645
    42  H    0.173472
 Sum of Mulliken atomic charges =   0.00000

 Dipole moment (field-independent basis, Debye):
    X=              5.0792    Y=             -0.4321    Z=              0.7032  Tot=              5.1458
 Quadrupole moment (field-independent basis, Debye-Ang):
   XX=           -117.4580   YY=           -115.2840   ZZ=           -120.5158
   XY=            -20.0280   XZ=             -2.7558   YZ=            -10.0606

 Normal termination of Gaussian 09 at Tue Dec 27 13:20:45 2016.
