 Gaussian 09, Revision A.02,
 Gaussian 09:  EM64L-G09RevA.02 11-Jun-2009

 -------------------------------------------------------------------
 # HF/6-31G* Opt=(ModRedundant, maxcycles=1000, calcfc) geom=nocrowd
 -------------------------------------------------------------------

 ------------------
 Phi Psi fixed scan
 ------------------
 Symbolic Z-matrix:
 Charge =  0 Multiplicity = 1

 SCF Done:  E(RHF) =  -984.516199278     A.U. after   15 cycles

  Exact polarizability:   0.000   0.000   0.000   0.000   0.000   0.000
 Approx polarizability: 129.924  -2.586 122.131  -0.406  13.572 137.258

 SCF Done:  E(RHF) =  -984.528352234     A.U. after   14 cycles
 SCF Done:  E(RHF) =  -984.541665615     A.U. after   15 cycles
 SCF Done:  E(RHF) =  -984.545965971     A.U. after   13 cycles
 SCF Done:  E(RHF) =  -984.547792783     A.U. after   15 cycles
 SCF Done:  E(RHF) =  -984.473938479     A.U. after   16 cycles
 SCF Done:  E(RHF) =  -984.548889457     A.U. after   16 cycles
 SCF Done:  E(RHF) =  -984.549837343     A.U. after   13 cycles
 SCF Done:  E(RHF) =  -984.550543086     A.U. after   14 cycles
 SCF Done:  E(RHF) =  -984.254387357     A.U. after   16 cycles
 SCF Done:  E(RHF) =  -984.551596531     A.U. after   12 cycles
 SCF Done:  E(RHF) =  -984.551604869     A.U. after   11 cycles
 SCF Done:  E(RHF) =  -984.551607241     A.U. after    9 cycles
 SCF Done:  E(RHF) =  -984.551608156     A.U. after   10 cycles
 SCF Done:  E(RHF) =  -984.551608588     A.U. after    8 cycles
 SCF Done:  E(RHF) =  -984.551609014     A.U. after    8 cycles
 SCF Done:  E(RHF) =  -984.551609548     A.U. after    9 cycles
 SCF Done:  E(RHF) =  -984.551609962     A.U. after   10 cycles
 SCF Done:  E(RHF) =  -984.551610171     A.U. after    9 cycles
 SCF Done:  E(RHF) =  -984.551610251     A.U. after    8 cycles
 Optimization completed.
    -- Stationary point found.

                         Standard orientation:
 ---------------------------------------------------------------------
 Center     Atomic      Atomic             Coordinates (Angstroms)
 Number     Number       Type             X           Y           Z
 ---------------------------------------------------------------------
      1          1           0        5.266829   -3.312477   -0.915894
      2          6           0        5.459192   -2.252583   -1.022508
      3          1           0        5.170624   -1.931568   -2.015751
      4          1           0        6.524702   -2.096412   -0.897341
      5          6           0        4.732384   -1.516772    0.082284
      6          8           0        4.830899   -1.854939    1.234013
      7          7           0        3.991591   -0.459224   -0.302827
      8          1           0        3.866391   -0.239039   -1.265442
      9          6           0        3.206016    0.306727    0.632416
     10          1           0        2.770082   -0.377916    1.350174
     11          6           0        4.055039    1.341763    1.383729
     12          1           0        4.487644    2.049735    0.685316
     13          1           0        3.464652    1.891974    2.108941
     14          1           0        4.852512    0.831370    1.906900
     15          6           0        2.093089    0.994077   -0.161899
     16          8           0        2.178277    1.137925   -1.346301
     17          7           0        1.086576    1.500015    0.611095
     18          1           0        1.108978    1.186748    1.556566
     19          6           0       -0.258436    1.843355    0.156732
     20          1           0       -0.773207    2.177930    1.048915
     21          6           0       -0.256517    2.988648   -0.857222
     22          1           0        0.231056    2.684382   -1.770405
     23          1           0       -1.277054    3.284101   -1.080948
     24          1           0        0.266023    3.842478   -0.442031
     25          6           0       -1.008957    0.639031   -0.429121
     26          8           0       -0.614339    0.024027   -1.380789
     27          7           0       -2.154160    0.327814    0.212844
     28          1           0       -2.495119    0.875978    0.970877
     29          6           0       -3.034871   -0.717193   -0.252384
     30          1           0       -3.048200   -0.695072   -1.335329
     31          6           0       -2.574193   -2.105430    0.211449
     32          1           0       -2.568351   -2.158090    1.294727
     33          1           0       -3.226966   -2.884961   -0.167167
     34          1           0       -1.573184   -2.288986   -0.155500
     35          6           0       -4.429779   -0.407584    0.285279
     36          8           0       -4.590883    0.317318    1.233629
     37          7           0       -5.445864   -1.024645   -0.341170
     38          1           0       -5.261340   -1.535225   -1.173189
     39          6           0       -6.822312   -0.834780    0.069598
     40          1           0       -6.916042   -0.990735    1.134693
     41          1           0       -7.172879    0.163744   -0.163838
     42          1           0       -7.439711   -1.555885   -0.448398
 ---------------------------------------------------------------------

 The electronic state is 1-A.
 Alpha  occ. eigenvalues --  -20.54201 -20.53550 -20.52630 -20.51035 -15.60251
 Alpha  occ. eigenvalues --  -15.59604 -15.58947 -15.57417 -11.36129 -11.35475
 Alpha  occ. eigenvalues --  -11.34970 -11.33922 -11.29186 -11.28837 -11.27754
 Alpha  occ. eigenvalues --  -11.27038 -11.23011 -11.22399 -11.22058 -11.21872
 Alpha  occ. eigenvalues --   -1.41208  -1.40644  -1.39448  -1.37918  -1.25053
 Alpha  occ. eigenvalues --   -1.25014  -1.24253  -1.23061  -1.07432  -1.05113
 Alpha  occ. eigenvalues --   -1.02511  -0.98280  -0.97024  -0.91645  -0.89857
 Alpha  occ. eigenvalues --   -0.86742  -0.81807  -0.79684  -0.79104  -0.78001
 Alpha  occ. eigenvalues --   -0.74332  -0.72384  -0.68965  -0.68128  -0.66436
 Alpha  occ. eigenvalues --   -0.65816  -0.65097  -0.64394  -0.63395  -0.62472
 Alpha  occ. eigenvalues --   -0.61748  -0.60964  -0.60728  -0.59484  -0.58788
 Alpha  occ. eigenvalues --   -0.57780  -0.56803  -0.56674  -0.56319  -0.55266
 Alpha  occ. eigenvalues --   -0.54605  -0.54309  -0.53645  -0.53292  -0.52790
 Alpha  occ. eigenvalues --   -0.52034  -0.51964  -0.50382  -0.48983  -0.44854
 Alpha  occ. eigenvalues --   -0.43534  -0.42265  -0.40954  -0.40840  -0.39107
 Alpha  occ. eigenvalues --   -0.38990  -0.37500
 Alpha virt. eigenvalues --    0.17284   0.18538   0.20038   0.20518   0.21007
 Alpha virt. eigenvalues --    0.21795   0.24553   0.24656   0.25806   0.27570
 Alpha virt. eigenvalues --    0.28179   0.28634   0.29323   0.29720   0.30539

 Mulliken atomic charges:
              1
     1  H    0.205127
     2  C   -0.574113
     3  H    0.174287
     4  H    0.202235
     5  C    0.755960
     6  O   -0.626152
     7  N   -0.822430
     8  H    0.422815
     9  C   -0.036587
    10  H    0.210308
    11  C   -0.482994
    12  H    0.177428
    13  H    0.157298
    14  H    0.211649
    15  C    0.792477
    16  O   -0.598822
    17  N   -0.815975
    18  H    0.381818
    19  C   -0.037833
    20  H    0.188550
    21  C   -0.495136
    22  H    0.239044
    23  H    0.162686
    24  H    0.177524
    25  C    0.784648
    26  O   -0.607868
    27  N   -0.841029
    28  H    0.422092
    29  C   -0.035335
    30  H    0.215952
    31  C   -0.484080
    32  H    0.177991
    33  H    0.160221
    34  H    0.212598
    35  C    0.776374
    36  O   -0.632604
    37  N   -0.798907
    38  H    0.391495
    39  C   -0.272740
    40  H    0.202905
    41  H    0.185661
    42  H    0.173463
 Sum of Mulliken atomic charges =   0.00000

 Dipole moment (field-independent basis, Debye):
    X=             -4.7766    Y=             -0.0742    Z=             -0.5774  Tot=              4.8119
 Quadrupole moment (field-independent basis, Debye-Ang):
   XX=           -106.2111   YY=           -117.3159   ZZ=           -126.8844
   XY=             15.4454   XZ=              2.1944   YZ=             10.7144

 Normal termination of Gaussian 09 at Tue Dec 27 14:39:38 2016.
