 Gaussian 09, Revision A.02,
 Gaussian 09:  EM64L-G09RevA.02 11-Jun-2009

 -------------------------------------------------------------------
 # HF/6-31G* Opt=(ModRedundant, maxcycles=1000, calcfc) geom=nocrowd
 -------------------------------------------------------------------

 ------------------
 Phi Psi fixed scan
 ------------------
 Symbolic Z-matrix:
 Charge =  0 Multiplicity = 1

 SCF Done:  E(RHF) =  -984.528438461     A.U. after   15 cycles

  Exact polarizability:   0.000   0.000   0.000   0.000   0.000   0.000
 Approx polarizability: 131.302 -10.209 129.361  -3.240   3.772 127.800

 SCF Done:  E(RHF) =  -984.539255918     A.U. after   13 cycles
 SCF Done:  E(RHF) =  -984.551640537     A.U. after   16 cycles
 SCF Done:  E(RHF) =  -984.555465116     A.U. after   13 cycles
 SCF Done:  E(RHF) =  -984.558211257     A.U. after   13 cycles
 SCF Done:  E(RHF) =  -984.559101821     A.U. after   15 cycles
 SCF Done:  E(RHF) =  -984.461173996     A.U. after   15 cycles
 SCF Done:  E(RHF) =  -984.559331620     A.U. after   15 cycles
 SCF Done:  E(RHF) =  -984.540695660     A.U. after   13 cycles
 SCF Done:  E(RHF) =  -984.559584536     A.U. after   13 cycles
 SCF Done:  E(RHF) =  -984.559685127     A.U. after    9 cycles
 SCF Done:  E(RHF) =  -984.559686520     A.U. after    9 cycles
 SCF Done:  E(RHF) =  -984.559687372     A.U. after    9 cycles
 SCF Done:  E(RHF) =  -984.559687827     A.U. after    8 cycles
 SCF Done:  E(RHF) =  -984.559688704     A.U. after    9 cycles
 SCF Done:  E(RHF) =  -984.559690015     A.U. after    9 cycles
 SCF Done:  E(RHF) =  -984.559690748     A.U. after    9 cycles
 SCF Done:  E(RHF) =  -984.559691091     A.U. after    9 cycles
 SCF Done:  E(RHF) =  -984.559691210     A.U. after    9 cycles
 SCF Done:  E(RHF) =  -984.559691234     A.U. after    7 cycles
 Optimization completed.
    -- Stationary point found.

                         Standard orientation:
 ---------------------------------------------------------------------
 Center     Atomic      Atomic             Coordinates (Angstroms)
 Number     Number       Type             X           Y           Z
 ---------------------------------------------------------------------
      1          1           0       -5.119163    3.578476    0.016023
      2          6           0       -4.124447    3.214611    0.236677
      3          1           0       -3.810439    3.656127    1.176246
      4          1           0       -3.441918    3.529812   -0.543191
      5          6           0       -4.184244    1.712130    0.407872
      6          8           0       -5.050772    1.184907    1.055604
      7          7           0       -3.199422    1.012905   -0.191817
      8          1           0       -2.470967    1.471434   -0.691093
      9          6           0       -3.081951   -0.417814   -0.055228
     10          1           0       -3.326287   -0.684278    0.965872
     11          6           0       -4.025424   -1.169100   -1.004809
     12          1           0       -3.788130   -0.932771   -2.036538
     13          1           0       -3.948342   -2.242558   -0.869826
     14          1           0       -5.044141   -0.867945   -0.801001
     15          6           0       -1.630644   -0.788977   -0.344658
     16          8           0       -0.899646   -0.051946   -0.954518
     17          7           0       -1.251329   -2.013829    0.079626
     18          1           0       -1.813749   -2.443801    0.778166
     19          6           0        0.120133   -2.495657   -0.027077
     20          1           0        0.141728   -3.421677    0.532592
     21          6           0        0.504788   -2.801629   -1.473387
     22          1           0        0.453243   -1.921527   -2.099785
     23          1           0        1.507459   -3.212625   -1.522539
     24          1           0       -0.180853   -3.539313   -1.873638
     25          6           0        1.058331   -1.568180    0.764766
     26          8           0        0.889233   -1.450804    1.952275
     27          7           0        2.042170   -0.947257    0.099661
     28          1           0        2.054845   -0.931052   -0.895483
     29          6           0        2.909479    0.003883    0.754972
     30          1           0        2.322432    0.576563    1.463115
     31          6           0        4.054655   -0.690418    1.503201
     32          1           0        4.668416   -1.254632    0.809752
     33          1           0        4.684416    0.030003    2.014716
     34          1           0        3.641063   -1.367408    2.238732
     35          6           0        3.463382    0.933946   -0.320834
     36          8           0        3.490128    0.612842   -1.480205
     37          7           0        3.955021    2.105175    0.123179
     38          1           0        3.799595    2.364069    1.069623
     39          6           0        4.509143    3.088812   -0.784136
     40          1           0        5.226099    2.619994   -1.442402
     41          1           0        3.739055    3.552713   -1.389819
     42          1           0        5.009823    3.851789   -0.203466
 ---------------------------------------------------------------------

 The electronic state is 1-A.
 Alpha  occ. eigenvalues --  -20.54396 -20.53476 -20.52114 -20.51460 -15.59880
 Alpha  occ. eigenvalues --  -15.59574 -15.58056 -15.57908 -11.36113 -11.35413
 Alpha  occ. eigenvalues --  -11.34628 -11.34340 -11.28921 -11.28220 -11.28147
 Alpha  occ. eigenvalues --  -11.26493 -11.22832 -11.22566 -11.22439 -11.22335
 Alpha  occ. eigenvalues --   -1.41373  -1.40476  -1.38960  -1.38371  -1.25185
 Alpha  occ. eigenvalues --   -1.24369  -1.23838  -1.23533  -1.07443  -1.05022
 Alpha  occ. eigenvalues --   -1.02523  -0.98700  -0.96420  -0.91621  -0.89844
 Alpha  occ. eigenvalues --   -0.87405  -0.81704  -0.79643  -0.78679  -0.78230
 Alpha  occ. eigenvalues --   -0.74471  -0.73160  -0.68258  -0.67642  -0.66649
 Alpha  occ. eigenvalues --   -0.66354  -0.64534  -0.64208  -0.63602  -0.63244
 Alpha  occ. eigenvalues --   -0.61593  -0.60952  -0.60066  -0.59400  -0.58524
 Alpha  occ. eigenvalues --   -0.57273  -0.56836  -0.56209  -0.56198  -0.55527
 Alpha  occ. eigenvalues --   -0.55203  -0.54649  -0.53947  -0.53512  -0.52905
 Alpha  occ. eigenvalues --   -0.52528  -0.52091  -0.49974  -0.49452  -0.43615
 Alpha  occ. eigenvalues --   -0.43243  -0.42686  -0.41268  -0.40383  -0.39772
 Alpha  occ. eigenvalues --   -0.38540  -0.38101
 Alpha virt. eigenvalues --    0.17366   0.18822   0.20078   0.21065   0.21199
 Alpha virt. eigenvalues --    0.22364   0.23996   0.25248   0.26242   0.27356
 Alpha virt. eigenvalues --    0.28016   0.28524   0.29340   0.29771   0.30401

 Mulliken atomic charges:
              1
     1  H    0.207324
     2  C   -0.575411
     3  H    0.203174
     4  H    0.171952
     5  C    0.757224
     6  O   -0.621838
     7  N   -0.824250
     8  H    0.418763
     9  C   -0.031188
    10  H    0.219056
    11  C   -0.484361
    12  H    0.175362
    13  H    0.162144
    14  H    0.213194
    15  C    0.785081
    16  O   -0.636499
    17  N   -0.799889
    18  H    0.398100
    19  C   -0.036891
    20  H    0.213109
    21  C   -0.515183
    22  H    0.211641
    23  H    0.176596
    24  H    0.181629
    25  C    0.789943
    26  O   -0.640487
    27  N   -0.830561
    28  H    0.441366
    29  C   -0.026787
    30  H    0.212275
    31  C   -0.484118
    32  H    0.179406
    33  H    0.158422
    34  H    0.209299
    35  C    0.773820
    36  O   -0.627134
    37  N   -0.799083
    38  H    0.389008
    39  C   -0.272620
    40  H    0.203165
    41  H    0.184324
    42  H    0.170922
 Sum of Mulliken atomic charges =   0.00000

 Dipole moment (field-independent basis, Debye):
    X=              2.9851    Y=              0.8705    Z=             -0.3646  Tot=              3.1308
 Quadrupole moment (field-independent basis, Debye-Ang):
   XX=           -129.8090   YY=            -96.1480   ZZ=           -131.4742
   XY=             12.2168   XZ=             16.3055   YZ=              4.0239

 Normal termination of Gaussian 09 at Tue Dec 27 15:23:03 2016.
