 Gaussian 09, Revision A.02,
 Gaussian 09:  EM64L-G09RevA.02 11-Jun-2009

 -------------------------------------------------------------------
 # HF/6-31G* Opt=(ModRedundant, maxcycles=1000, calcfc) geom=nocrowd
 -------------------------------------------------------------------

 ------------------
 Phi Psi fixed scan
 ------------------
 Symbolic Z-matrix:
 Charge =  0 Multiplicity = 1

 SCF Done:  E(RHF) =  -984.530333698     A.U. after   15 cycles

  Exact polarizability:   0.000   0.000   0.000   0.000   0.000   0.000
 Approx polarizability: 133.974  -1.708 134.489   8.050   4.392 120.087

 SCF Done:  E(RHF) =  -984.540093289     A.U. after   13 cycles
 SCF Done:  E(RHF) =  -984.550960902     A.U. after   13 cycles
 SCF Done:  E(RHF) =  -984.554132034     A.U. after   13 cycles
 SCF Done:  E(RHF) =  -984.557594240     A.U. after   15 cycles
 SCF Done:  E(RHF) =  -984.558953829     A.U. after   14 cycles
 SCF Done:  E(RHF) =  -984.559208375     A.U. after   16 cycles
 SCF Done:  E(RHF) =  -984.559300921     A.U. after   16 cycles
 SCF Done:  E(RHF) =  -984.559511227     A.U. after   12 cycles
 SCF Done:  E(RHF) =  -984.559542668     A.U. after   12 cycles
 SCF Done:  E(RHF) =  -984.559687342     A.U. after   11 cycles
 SCF Done:  E(RHF) =  -984.559688175     A.U. after   11 cycles
 SCF Done:  E(RHF) =  -984.559689739     A.U. after   10 cycles
 SCF Done:  E(RHF) =  -984.559690058     A.U. after   10 cycles
 SCF Done:  E(RHF) =  -984.559690572     A.U. after   10 cycles
 SCF Done:  E(RHF) =  -984.559690701     A.U. after    8 cycles
 SCF Done:  E(RHF) =  -984.559690808     A.U. after    8 cycles
 SCF Done:  E(RHF) =  -984.559690819     A.U. after    6 cycles
 SCF Done:  E(RHF) =  -984.559690815     A.U. after    7 cycles
 SCF Done:  E(RHF) =  -984.559690817     A.U. after    6 cycles
 Optimization completed.
    -- Stationary point found.

                         Standard orientation:
 ---------------------------------------------------------------------
 Center     Atomic      Atomic             Coordinates (Angstroms)
 Number     Number       Type             X           Y           Z
 ---------------------------------------------------------------------
      1          1           0        4.487516   -3.554433   -0.484551
      2          6           0        5.057546   -2.720042   -0.880297
      3          1           0        4.794171   -2.586055   -1.922681
      4          1           0        6.108157   -2.961875   -0.797702
      5          6           0        4.770305   -1.495476   -0.038413
      6          8           0        5.328526   -1.302099    1.010281
      7          7           0        3.837964   -0.655330   -0.531971
      8          1           0        3.327738   -0.884251   -1.355493
      9          6           0        3.356512    0.478221    0.218446
     10          1           0        3.260904    0.187498    1.257990
     11          6           0        4.308992    1.677722    0.119592
     12          1           0        4.399617    2.002108   -0.911491
     13          1           0        3.957660    2.514299    0.713917
     14          1           0        5.284644    1.383334    0.481788
     15          6           0        1.975739    0.836097   -0.324740
     16          8           0        1.586802    0.420179   -1.381082
     17          7           0        1.271870    1.720431    0.436968
     18          1           0        1.578487    1.781088    1.382630
     19          6           0       -0.159250    1.886067    0.272085
     20          1           0       -0.467735    2.554326    1.070208
     21          6           0       -0.523801    2.553801   -1.059166
     22          1           0       -0.354064    1.889714   -1.892807
     23          1           0       -1.560468    2.871620   -1.065435
     24          1           0        0.091229    3.435935   -1.188369
     25          6           0       -0.888885    0.558161    0.539019
     26          8           0       -0.303855   -0.418815    0.924506
     27          7           0       -2.228560    0.598767    0.413112
     28          1           0       -2.695521    1.393447    0.037504
     29          6           0       -3.052673   -0.567988    0.626486
     30          1           0       -2.524770   -1.433413    0.245477
     31          6           0       -3.364571   -0.787498    2.112481
     32          1           0       -3.907989    0.061579    2.512457
     33          1           0       -3.962317   -1.680491    2.262332
     34          1           0       -2.437121   -0.900498    2.658053
     35          6           0       -4.341761   -0.362514   -0.165126
     36          8           0       -4.707302    0.736541   -0.494867
     37          7           0       -5.049550   -1.475386   -0.424509
     38          1           0       -4.645128   -2.360587   -0.224561
     39          6           0       -6.294622   -1.430930   -1.164135
     40          1           0       -6.943521   -0.673980   -0.748127
     41          1           0       -6.128930   -1.204475   -2.211060
     42          1           0       -6.779173   -2.394442   -1.083392
 ---------------------------------------------------------------------

 The electronic state is 1-A.
 Alpha  occ. eigenvalues --  -20.54046 -20.53633 -20.52954 -20.50916 -15.60102
 Alpha  occ. eigenvalues --  -15.58949 -15.58655 -15.57084 -11.35973 -11.35333
 Alpha  occ. eigenvalues --  -11.35118 -11.33686 -11.29026 -11.28741 -11.27408
 Alpha  occ. eigenvalues --  -11.26893 -11.22934 -11.22490 -11.22248 -11.21710
 Alpha  occ. eigenvalues --   -1.41152  -1.40758  -1.39460  -1.37751  -1.24894
 Alpha  occ. eigenvalues --   -1.24619  -1.24398  -1.22803  -1.07424  -1.04954
 Alpha  occ. eigenvalues --   -1.02205  -0.98072  -0.96888  -0.91554  -0.89801
 Alpha  occ. eigenvalues --   -0.86982  -0.81652  -0.79545  -0.78932  -0.77639
 Alpha  occ. eigenvalues --   -0.74348  -0.72585  -0.68558  -0.68022  -0.66420
 Alpha  occ. eigenvalues --   -0.65979  -0.64901  -0.64345  -0.63424  -0.62720
 Alpha  occ. eigenvalues --   -0.61159  -0.60776  -0.60373  -0.59732  -0.58406
 Alpha  occ. eigenvalues --   -0.57235  -0.56639  -0.56574  -0.56079  -0.55548
 Alpha  occ. eigenvalues --   -0.54872  -0.54595  -0.54002  -0.53681  -0.52559
 Alpha  occ. eigenvalues --   -0.52232  -0.51750  -0.49998  -0.48743  -0.43815
 Alpha  occ. eigenvalues --   -0.43162  -0.42366  -0.40841  -0.40677  -0.40122
 Alpha  occ. eigenvalues --   -0.38997  -0.37647
 Alpha virt. eigenvalues --    0.17948   0.18845   0.19685   0.20745   0.21773
 Alpha virt. eigenvalues --    0.21918   0.24374   0.24852   0.25964   0.27587
 Alpha virt. eigenvalues --    0.27958   0.28972   0.29117   0.30300   0.30698

 Mulliken atomic charges:
              1
     1  H    0.201379
     2  C   -0.577586
     3  H    0.173808
     4  H    0.206351
     5  C    0.754800
     6  O   -0.623058
     7  N   -0.819839
     8  H    0.420020
     9  C   -0.036472
    10  H    0.218782
    11  C   -0.482977
    12  H    0.173498
    13  H    0.158967
    14  H    0.212628
    15  C    0.799679
    16  O   -0.628716
    17  N   -0.781703
    18  H    0.385704
    19  C   -0.067351
    20  H    0.207075
    21  C   -0.494167
    22  H    0.224585
    23  H    0.160553
    24  H    0.186005
    25  C    0.800195
    26  O   -0.631924
    27  N   -0.844562
    28  H    0.429893
    29  C   -0.031033
    30  H    0.216578
    31  C   -0.483746
    32  H    0.178362
    33  H    0.160375
    34  H    0.209174
    35  C    0.775791
    36  O   -0.631986
    37  N   -0.798521
    38  H    0.390729
    39  C   -0.273447
    40  H    0.203709
    41  H    0.185417
    42  H    0.173031
 Sum of Mulliken atomic charges =   0.00000

 Dipole moment (field-independent basis, Debye):
    X=             -4.7287    Y=             -0.6148    Z=             -0.4396  Tot=              4.7887
 Quadrupole moment (field-independent basis, Debye-Ang):
   XX=           -126.2934   YY=           -106.8801   ZZ=           -121.9744
   XY=             19.6126   XZ=            -11.1429   YZ=             10.5056

 Normal termination of Gaussian 09 at Tue Dec 27 17:24:20 2016.
