 Gaussian 09, Revision A.02,
 Gaussian 09:  EM64L-G09RevA.02 11-Jun-2009

 -------------------
 #SP MP2/aug-cc-pVDZ
 -------------------

 -------------------------------
 Single Point calculation at MP2
 -------------------------------
 Symbolic Z-matrix:
 Charge =  0 Multiplicity = 1

                         Standard orientation:
 ---------------------------------------------------------------------
 Center     Atomic      Atomic             Coordinates (Angstroms)
 Number     Number       Type             X           Y           Z
 ---------------------------------------------------------------------
      1          1           0       -3.730383   -1.383424    0.330306
      2          6           0       -3.160087   -0.793220   -0.388594
      3          1           0       -3.793194    0.008175   -0.787294
      4          1           0       -2.866582   -1.443218   -1.221994
      5          6           0       -1.906092   -0.263810    0.288906
      6          8           0       -1.468988   -0.727206    1.325006
      7          7           0       -1.346100    0.862894   -0.322894
      8          1           0       -1.832702    1.097891   -1.180494
      9          6           0        0.102398    1.080206   -0.478794
     10          1           0        0.271796    1.317907   -1.536694
     11          6           0        0.535488    2.293109    0.366506
     12          1           0        0.467690    2.057509    1.433506
     13          1           0        1.552886    2.629017    0.131606
     14          1           0       -0.135618    3.133704    0.167306
     15          6           0        0.947608   -0.199887   -0.242594
     16          8           0        0.508617   -1.314891   -0.481094
     17          7           0        2.289006    0.020023   -0.059894
     18          1           0        2.580299    0.899426    0.340906
     19          6           0        3.195115   -1.109270    0.098906
     20          1           0        2.936421   -1.869072   -0.640094
     21          1           0        4.220512   -0.769162   -0.069794
     22          1           0        3.124919   -1.565170    1.094906
 ---------------------------------------------------------------------

 SCF Done:  E(RHF) =  -492.902600203     A.U. after   15 cycles
 E2 =    -0.1604747359D+01 EUMP2 =    -0.49450734756141D+03

 The electronic state is 1-A.
 Alpha  occ. eigenvalues --  -20.52854 -20.52336 -15.59400 -15.58784 -11.36016
 Alpha  occ. eigenvalues --  -11.35400 -11.30307 -11.26549 -11.24360 -11.23879
 Alpha  occ. eigenvalues --   -1.38972  -1.37147  -1.23223  -1.22630  -1.05337
 Alpha  occ. eigenvalues --   -0.98690  -0.95011  -0.88366  -0.79798  -0.77065
 Alpha  occ. eigenvalues --   -0.70223  -0.69026  -0.64645  -0.64166  -0.61232
 Alpha  occ. eigenvalues --   -0.61183  -0.60113  -0.57763  -0.56561  -0.56192
 Alpha  occ. eigenvalues --   -0.54896  -0.53917  -0.53446  -0.51606  -0.48400
 Alpha  occ. eigenvalues --   -0.42740  -0.41515  -0.39804  -0.38626
 Alpha virt. eigenvalues --    0.02663   0.03549   0.04401   0.04663   0.05704
 Alpha virt. eigenvalues --    0.06024   0.06158   0.07025   0.07531   0.07789
 Alpha virt. eigenvalues --    0.08979   0.09458   0.10711   0.11946   0.12776

 Mulliken atomic charges:
              1
     1  H   -0.039941
     2  C    0.309368
     3  H   -0.025476
     4  H    0.068256
     5  C    0.803047
     6  O   -0.838896
     7  N   -0.521867
     8  H   -0.020559
     9  C    0.054695
    10  H   -0.058662
    11  C    0.650483
    12  H   -0.038548
    13  H   -0.020918
    14  H   -0.135034
    15  C    0.844772
    16  O   -0.817314
    17  N   -0.490163
    18  H   -0.108302
    19  C    0.750164
    20  H   -0.108225
    21  H   -0.200986
    22  H   -0.055894
 Sum of Mulliken atomic charges =   0.00000

 Dipole moment (field-independent basis, Debye):
    X=              1.3732    Y=              3.9746    Z=             -2.6228  Tot=              4.9560
 Quadrupole moment (field-independent basis, Debye-Ang):
   XX=            -47.6136   YY=            -62.6287   ZZ=            -63.8364
   XY=              0.5230   XZ=              7.9594   YZ=             -0.1622

 Normal termination of Gaussian 09 at Sun Feb 12 20:00:03 2017.
