 Gaussian 09, Revision A.02,
 Gaussian 09:  EM64L-G09RevA.02 11-Jun-2009

 -------------------
 #SP MP2/aug-cc-pVDZ
 -------------------

 -------------------------------
 Single Point calculation at MP2
 -------------------------------
 Symbolic Z-matrix:
 Charge =  0 Multiplicity = 1

                         Standard orientation:
 ---------------------------------------------------------------------
 Center     Atomic      Atomic             Coordinates (Angstroms)
 Number     Number       Type             X           Y           Z
 ---------------------------------------------------------------------
      1          1           0       -3.663902   -1.354995   -0.718390
      2          6           0       -3.374600   -0.502695   -0.096390
      3          1           0       -3.812700   -0.659694    0.893910
      4          1           0       -3.792798    0.411606   -0.528190
      5          6           0       -1.856900   -0.500899    0.045210
      6          8           0       -1.294202   -1.489101    0.521310
      7          7           0       -1.249397    0.637699   -0.385190
      8          1           0       -1.893895    1.330501   -0.741690
      9          6           0        0.136604    1.172096   -0.391190
     10          1           0        0.302705    1.517995   -1.420490
     11          6           0        0.182107    2.398296    0.536510
     12          1           0       -0.012193    2.100096    1.572210
     13          1           0        1.169608    2.857893    0.481410
     14          1           0       -0.574491    3.135698    0.243010
     15          6           0        1.391902    0.291993   -0.128490
     16          8           0        2.459104    0.893990   -0.019890
     17          7           0        1.298699   -1.052107   -0.179290
     18          1           0        0.382898   -1.463205    0.017710
     19          6           0        2.491997   -1.859310    0.023310
     20          1           0        3.291398   -1.507312   -0.633090
     21          1           0        2.857597   -1.805111    1.057010
     22          1           0        2.254794   -2.898609   -0.217190
 ---------------------------------------------------------------------

 SCF Done:  E(RHF) =  -492.911425893     A.U. after   14 cycles
 E2 =    -0.1604708980D+01 EUMP2 =    -0.49451613487364D+03

 The electronic state is 1-A.
 Alpha  occ. eigenvalues --  -20.54693 -20.52059 -15.61933 -15.57169 -11.38601
 Alpha  occ. eigenvalues --  -11.35546 -11.30688 -11.26063 -11.25379 -11.23507
 Alpha  occ. eigenvalues --   -1.40155  -1.37546  -1.25628  -1.21632  -1.06292
 Alpha  occ. eigenvalues --   -1.00065  -0.94843  -0.87997  -0.82169  -0.76702
 Alpha  occ. eigenvalues --   -0.71276  -0.70877  -0.65799  -0.63676  -0.62515
 Alpha  occ. eigenvalues --   -0.60858  -0.60412  -0.59277  -0.58267  -0.56166
 Alpha  occ. eigenvalues --   -0.54087  -0.53807  -0.52493  -0.51870  -0.49994
 Alpha  occ. eigenvalues --   -0.44014  -0.41746  -0.41056  -0.37868
 Alpha virt. eigenvalues --    0.02321   0.04007   0.04289   0.04553   0.05639
 Alpha virt. eigenvalues --    0.06173   0.06505   0.06613   0.07474   0.08022
 Alpha virt. eigenvalues --    0.09045   0.09572   0.11435   0.11809   0.12786

 Mulliken atomic charges:
              1
     1  H    0.041302
     2  C    0.457881
     3  H    0.043598
     4  H   -0.170203
     5  C    0.577154
     6  O   -0.927832
     7  N   -0.391522
     8  H   -0.062602
     9  C   -0.060803
    10  H   -0.024777
    11  C    0.665505
    12  H   -0.056011
    13  H   -0.013154
    14  H   -0.082214
    15  C    0.813913
    16  O   -0.848559
    17  N   -0.338461
    18  H    0.006288
    19  C    0.730272
    20  H   -0.110726
    21  H   -0.050098
    22  H   -0.198951
 Sum of Mulliken atomic charges =   0.00000

 Dipole moment (field-independent basis, Debye):
    X=             -4.7791    Y=              1.1549    Z=             -1.4117  Tot=              5.1153
 Quadrupole moment (field-independent basis, Debye-Ang):
   XX=            -61.1259   YY=            -61.0476   ZZ=            -61.2243
   XY=             -9.9970   XZ=              2.4815   YZ=              0.1080

 Normal termination of Gaussian 09 at Sun Feb 12 20:34:18 2017.
