 Gaussian 09, Revision A.02,
 Gaussian 09:  EM64L-G09RevA.02 11-Jun-2009

 -------------------
 #SP MP2/aug-cc-pVDZ
 -------------------

 -------------------------------
 Single Point calculation at MP2
 -------------------------------
 Symbolic Z-matrix:
 Charge =  0 Multiplicity = 1

                         Standard orientation:
 ---------------------------------------------------------------------
 Center     Atomic      Atomic             Coordinates (Angstroms)
 Number     Number       Type             X           Y           Z
 ---------------------------------------------------------------------
      1          1           0       -3.225682   -1.952435   -0.213903
      2          6           0       -3.135890   -0.885135    0.005397
      3          1           0       -3.642891   -0.704539    0.959197
      4          1           0       -3.646594   -0.313739   -0.776403
      5          6           0       -1.657892   -0.544924    0.167097
      6          8           0       -0.921087   -1.229518    0.865897
      7          7           0       -1.255700    0.579879   -0.503203
      8          1           0       -1.963604    1.063874   -1.038103
      9          6           0        0.074095    1.212289   -0.546403
     10          1           0        0.288394    1.394991   -1.609303
     11          6           0        0.055585    2.551889    0.194597
     12          1           0       -0.105314    2.391388    1.263597
     13          1           0        1.009781    3.069696    0.070797
     14          1           0       -0.745420    3.190883   -0.195503
     15          6           0        1.242201    0.330698   -0.030203
     16          8           0        2.008298    0.745903    0.825697
     17          7           0        1.435810   -0.842701   -0.707203
     18          1           0        0.614913   -1.224107   -1.157703
     19          6           0        2.362417   -1.828894   -0.167503
     20          1           0        3.276914   -1.318387    0.136597
     21          1           0        1.939521   -2.341497    0.705897
     22          1           0        2.598423   -2.562992   -0.943003
 ---------------------------------------------------------------------

 SCF Done:  E(RHF) =  -492.914374674     A.U. after   14 cycles
 E2 =    -0.1603202587D+01 EUMP2 =    -0.49451757726120D+03

 The electronic state is 1-A.
 Alpha  occ. eigenvalues --  -20.53810 -20.52841 -15.61265 -15.57867 -11.37539
 Alpha  occ. eigenvalues --  -11.35622 -11.30121 -11.25677 -11.25224 -11.22989
 Alpha  occ. eigenvalues --   -1.39504  -1.37984  -1.25059  -1.21837  -1.05819
 Alpha  occ. eigenvalues --   -0.99662  -0.94811  -0.87294  -0.81532  -0.76578
 Alpha  occ. eigenvalues --   -0.71042  -0.69878  -0.65906  -0.63894  -0.62374
 Alpha  occ. eigenvalues --   -0.60917  -0.60185  -0.58605  -0.57850  -0.55801
 Alpha  occ. eigenvalues --   -0.53509  -0.52840  -0.52320  -0.51775  -0.50785
 Alpha  occ. eigenvalues --   -0.43359  -0.42226  -0.40506  -0.38211
 Alpha virt. eigenvalues --    0.02217   0.03844   0.03886   0.04718   0.05703
 Alpha virt. eigenvalues --    0.06172   0.06219   0.06969   0.07131   0.08403
 Alpha virt. eigenvalues --    0.08937   0.09192   0.11020   0.12216   0.12753

 Mulliken atomic charges:
              1
     1  H    0.026293
     2  C    0.453115
     3  H    0.057281
     4  H   -0.145113
     5  C    0.552100
     6  O   -0.834674
     7  N   -0.300397
     8  H   -0.145282
     9  C   -0.235198
    10  H   -0.107046
    11  C    0.740246
    12  H   -0.025815
    13  H   -0.031015
    14  H   -0.052934
    15  C    1.042394
    16  O   -0.848222
    17  N   -0.487701
    18  H   -0.046160
    19  C    0.734112
    20  H   -0.116445
    21  H   -0.043209
    22  H   -0.186329
 Sum of Mulliken atomic charges =   0.00000

 Dipole moment (field-independent basis, Debye):
    X=             -4.3369    Y=              0.5388    Z=             -4.2365  Tot=              6.0866
 Quadrupole moment (field-independent basis, Debye-Ang):
   XX=            -57.3343   YY=            -59.0319   ZZ=            -63.4931
   XY=             -5.4855   XZ=             -0.5773   YZ=              0.3224

 Normal termination of Gaussian 09 at Sun Feb 12 20:45:49 2017.
