 Gaussian 09, Revision A.02,
 Gaussian 09:  EM64L-G09RevA.02 11-Jun-2009

 -------------------
 #SP MP2/aug-cc-pVDZ
 -------------------

 -------------------------------
 Single Point calculation at MP2
 -------------------------------
 Symbolic Z-matrix:
 Charge =  0 Multiplicity = 1

                         Standard orientation:
 ---------------------------------------------------------------------
 Center     Atomic      Atomic             Coordinates (Angstroms)
 Number     Number       Type             X           Y           Z
 ---------------------------------------------------------------------
      1          1           0        3.477505   -1.535082   -0.823487
      2          6           0        3.159900   -0.853985   -0.031887
      3          1           0        3.845092   -0.000479    0.011913
      4          1           0        3.217104   -1.390384    0.923013
      5          6           0        1.717396   -0.444397   -0.285687
      6          8           0        0.929102   -1.158304   -0.889287
      7          7           0        1.376485    0.806000    0.180713
      8          1           0        2.072782    1.254606    0.762213
      9          6           0       -0.006718    1.222688    0.465813
     10          1           0       -0.015021    1.606188    1.492113
     11          6           0       -0.430428    2.350285   -0.486187
     12          1           0       -0.371625    2.026285   -1.531687
     13          1           0       -1.448931    2.690176   -0.271087
     14          1           0        0.244765    3.205791   -0.378087
     15          6           0       -0.960808    0.000380    0.539113
     16          8           0       -0.851901   -0.789019    1.466813
     17          7           0       -1.997307   -0.031929   -0.349787
     18          1           0       -1.863212    0.460873   -1.221587
     19          6           0       -2.849197   -1.212536   -0.399587
     20          1           0       -3.144395   -1.473838    0.617913
     21          1           0       -3.740699   -0.986243   -0.990487
     22          1           0       -2.326090   -2.072431   -0.836887
 ---------------------------------------------------------------------

 SCF Done:  E(RHF) =  -492.914099505     A.U. after   14 cycles
 E2 =    -0.1604026504D+01 EUMP2 =    -0.49451812600906D+03

 The electronic state is 1-A.
 Alpha  occ. eigenvalues --  -20.53295 -20.52056 -15.59976 -15.58422 -11.36467
 Alpha  occ. eigenvalues --  -11.35425 -11.29821 -11.25577 -11.24742 -11.24296
 Alpha  occ. eigenvalues --   -1.39076  -1.37244  -1.23905  -1.22194  -1.05621
 Alpha  occ. eigenvalues --   -0.99341  -0.94297  -0.88454  -0.80414  -0.76795
 Alpha  occ. eigenvalues --   -0.70922  -0.69242  -0.64740  -0.64058  -0.61957
 Alpha  occ. eigenvalues --   -0.60895  -0.59697  -0.57527  -0.57008  -0.56233
 Alpha  occ. eigenvalues --   -0.54412  -0.54092  -0.52702  -0.52100  -0.49339
 Alpha  occ. eigenvalues --   -0.42422  -0.41968  -0.39856  -0.38532
 Alpha virt. eigenvalues --    0.02770   0.03762   0.04238   0.04657   0.05674
 Alpha virt. eigenvalues --    0.06182   0.06312   0.06839   0.07333   0.08097
 Alpha virt. eigenvalues --    0.08723   0.09798   0.10460   0.12001   0.12696

 Mulliken atomic charges:
              1
     1  H   -0.020463
     2  C    0.366566
     3  H   -0.068939
     4  H    0.077021
     5  C    0.689272
     6  O   -0.834689
     7  N   -0.441335
     8  H   -0.078311
     9  C   -0.247366
    10  H   -0.087070
    11  C    0.791369
    12  H   -0.006453
    13  H    0.002425
    14  H   -0.155344
    15  C    1.240560
    16  O   -0.961600
    17  N   -0.561828
    18  H   -0.100331
    19  C    0.725414
    20  H   -0.102722
    21  H   -0.196125
    22  H   -0.030050
 Sum of Mulliken atomic charges =   0.00000

 Dipole moment (field-independent basis, Debye):
    X=              1.5222    Y=              3.9624    Z=             -0.9467  Tot=              4.3490
 Quadrupole moment (field-independent basis, Debye-Ang):
   XX=            -48.5928   YY=            -61.2333   ZZ=            -65.1584
   XY=              1.1511   XZ=              7.2551   YZ=              2.1214

 Normal termination of Gaussian 09 at Sun Feb 12 20:19:15 2017.
