 Gaussian 09, Revision A.02,
 Gaussian 09:  EM64L-G09RevA.02 11-Jun-2009

 -------------------
 #SP MP2/aug-cc-pVDZ
 -------------------

 -------------------------------
 Single Point calculation at MP2
 -------------------------------
 Symbolic Z-matrix:
 Charge =  0 Multiplicity = 1

                         Standard orientation:
 ---------------------------------------------------------------------
 Center     Atomic      Atomic             Coordinates (Angstroms)
 Number     Number       Type             X           Y           Z
 ---------------------------------------------------------------------
      1          1           0       -3.880415   -0.818145    0.665909
      2          6           0       -3.394811   -0.452551   -0.243291
      3          1           0       -3.808399    0.527454   -0.499991
      4          1           0       -3.633619   -1.157548   -1.045891
      5          6           0       -1.886611   -0.465369   -0.023991
      6          8           0       -1.341623   -1.509476    0.340509
      7          7           0       -1.271396    0.727023   -0.247591
      8          1           0       -1.905387    1.464631   -0.524291
      9          6           0        0.132010    1.215106   -0.264291
     10          1           0        0.223817    1.782405   -1.195191
     11          6           0        0.339721    2.186804    0.915109
     12          1           0        0.266515    1.652504    1.868009
     13          1           0        1.328527    2.645892    0.838509
     14          1           0       -0.417269    2.979813    0.904709
     15          6           0        1.366598    0.277091   -0.319891
     16          8           0        2.391804    0.780579   -0.779191
     17          7           0        1.316283   -0.952208    0.224009
     18          1           0        0.395978   -1.350197    0.427609
     19          6           0        2.494873   -1.802523    0.205709
     20          1           0        3.351679   -1.266433    0.623309
     21          1           0        2.293262   -2.690920    0.808809
     22          1           0        2.758969   -2.113326   -0.813091
 ---------------------------------------------------------------------

 SCF Done:  E(RHF) =  -492.912771804     A.U. after   14 cycles
 E2 =    -0.1604665688D+01 EUMP2 =    -0.49451743749225D+03

 The electronic state is 1-A.
 Alpha  occ. eigenvalues --  -20.54758 -20.51826 -15.61933 -15.57185 -11.38620
 Alpha  occ. eigenvalues --  -11.35309 -11.30467 -11.26059 -11.25465 -11.24059
 Alpha  occ. eigenvalues --   -1.40164  -1.37287  -1.25587  -1.21648  -1.06409
 Alpha  occ. eigenvalues --   -1.00207  -0.94705  -0.88390  -0.82170  -0.76836
 Alpha  occ. eigenvalues --   -0.71513  -0.70884  -0.65105  -0.63587  -0.62104
 Alpha  occ. eigenvalues --   -0.61873  -0.60416  -0.58656  -0.58135  -0.56859
 Alpha  occ. eigenvalues --   -0.54457  -0.53809  -0.52701  -0.52111  -0.49787
 Alpha  occ. eigenvalues --   -0.44090  -0.42350  -0.40366  -0.37628
 Alpha virt. eigenvalues --    0.02341   0.04047   0.04252   0.04508   0.05672
 Alpha virt. eigenvalues --    0.06238   0.06621   0.06693   0.07075   0.07997
 Alpha virt. eigenvalues --    0.08930   0.09881   0.11062   0.11960   0.12613

 Mulliken atomic charges:
              1
     1  H    0.033317
     2  C    0.506518
     3  H   -0.160815
     4  H    0.049635
     5  C    0.545646
     6  O   -0.952941
     7  N   -0.423813
     8  H   -0.072629
     9  C    0.163724
    10  H   -0.084631
    11  C    0.577764
    12  H   -0.030745
    13  H   -0.012617
    14  H   -0.095913
    15  C    0.820079
    16  O   -0.903790
    17  N   -0.362670
    18  H   -0.002491
    19  C    0.754002
    20  H   -0.092820
    21  H   -0.210099
    22  H   -0.044710
 Sum of Mulliken atomic charges =   0.00000

 Dipole moment (field-independent basis, Debye):
    X=             -4.7336    Y=              1.4607    Z=              0.3199  Tot=              4.9641
 Quadrupole moment (field-independent basis, Debye-Ang):
   XX=            -60.7363   YY=            -60.4374   ZZ=            -62.3797
   XY=            -10.0024   XZ=              6.8024   YZ=              1.4300

 Normal termination of Gaussian 09 at Sun Feb 12 20:34:28 2017.
