 Gaussian 09, Revision A.02,
 Gaussian 09:  EM64L-G09RevA.02 11-Jun-2009

 -------------------
 #SP MP2/aug-cc-pVDZ
 -------------------

 -------------------------------
 Single Point calculation at MP2
 -------------------------------
 Symbolic Z-matrix:
 Charge =  0 Multiplicity = 1

                         Standard orientation:
 ---------------------------------------------------------------------
 Center     Atomic      Atomic             Coordinates (Angstroms)
 Number     Number       Type             X           Y           Z
 ---------------------------------------------------------------------
      1          1           0        3.705606   -1.317913   -0.549799
      2          6           0        3.270308   -0.718411    0.253501
      3          1           0        3.837911    0.211487    0.358301
      4          1           0        3.366906   -1.292012    1.182001
      5          6           0        1.789609   -0.513307   -0.039699
      6          8           0        1.090106   -1.446405   -0.426499
      7          7           0        1.339713    0.763795    0.137201
      8          1           0        2.027415    1.421793    0.478001
      9          6           0       -0.043986    1.276199    0.231901
     10          1           0       -0.074684    1.882099    1.141401
     11          6           0       -0.364683    2.168800   -0.978799
     12          1           0       -0.338985    1.592000   -1.907699
     13          1           0       -1.361582    2.609703   -0.873899
     14          1           0        0.364819    2.983398   -1.057899
     15          6           0       -1.181489    0.247202    0.478001
     16          8           0       -1.801689    0.303804    1.533401
     17          7           0       -1.560191   -0.536097   -0.575399
     18          1           0       -0.774792   -0.857199   -1.134299
     19          6           0       -2.611694   -1.522993   -0.360799
     20          1           0       -3.470093   -1.034891    0.103801
     21          1           0       -2.909396   -1.936092   -1.328099
     22          1           0       -2.285497   -2.340394    0.295701
 ---------------------------------------------------------------------

 SCF Done:  E(RHF) =  -492.912743510     A.U. after   15 cycles
 E2 =    -0.1602772349D+01 EUMP2 =    -0.49451551585939D+03

 The electronic state is 1-A.
 Alpha  occ. eigenvalues --  -20.54161 -20.53162 -15.61304 -15.57267 -11.37889
 Alpha  occ. eigenvalues --  -11.35513 -11.30111 -11.25697 -11.25184 -11.24160
 Alpha  occ. eigenvalues --   -1.39693  -1.38047  -1.25042  -1.21651  -1.06160
 Alpha  occ. eigenvalues --   -1.00008  -0.94071  -0.88447  -0.81633  -0.75919
 Alpha  occ. eigenvalues --   -0.71355  -0.70137  -0.64919  -0.63769  -0.62950
 Alpha  occ. eigenvalues --   -0.61564  -0.60172  -0.58248  -0.57154  -0.56885
 Alpha  occ. eigenvalues --   -0.54468  -0.53407  -0.52532  -0.51273  -0.50987
 Alpha  occ. eigenvalues --   -0.44000  -0.42974  -0.40212  -0.38078
 Alpha virt. eigenvalues --    0.02474   0.03978   0.04173   0.04701   0.05609
 Alpha virt. eigenvalues --    0.06177   0.06467   0.06564   0.07542   0.08132
 Alpha virt. eigenvalues --    0.08568   0.09904   0.10992   0.12010   0.12430

 Mulliken atomic charges:
              1
     1  H    0.019752
     2  C    0.454416
     3  H   -0.144017
     4  H    0.059643
     5  C    0.574445
     6  O   -0.857467
     7  N   -0.370814
     8  H   -0.108778
     9  C    0.152001
    10  H   -0.177960
    11  C    0.729250
    12  H   -0.050737
    13  H   -0.029343
    14  H   -0.100777
    15  C    0.790175
    16  O   -0.853576
    17  N   -0.555456
    18  H    0.062763
    19  C    0.774755
    20  H   -0.120846
    21  H   -0.189620
    22  H   -0.057809
 Sum of Mulliken atomic charges =   0.00000

 Dipole moment (field-independent basis, Debye):
    X=              3.8549    Y=              2.2266    Z=             -1.6044  Tot=              4.7320
 Quadrupole moment (field-independent basis, Debye-Ang):
   XX=            -54.7414   YY=            -59.7510   ZZ=            -66.1923
   XY=              5.4239   XZ=              8.2636   YZ=             -0.4332

 Normal termination of Gaussian 09 at Sun Feb 12 20:11:51 2017.
