 Gaussian 09, Revision A.02,
 Gaussian 09:  EM64L-G09RevA.02 11-Jun-2009

 -------------------
 #SP MP2/aug-cc-pVDZ
 -------------------

 -------------------------------
 Single Point calculation at MP2
 -------------------------------
 Symbolic Z-matrix:
 Charge =  0 Multiplicity = 1

                         Standard orientation:
 ---------------------------------------------------------------------
 Center     Atomic      Atomic             Coordinates (Angstroms)
 Number     Number       Type             X           Y           Z
 ---------------------------------------------------------------------
      1          1           0       -3.667606   -1.258469   -0.856795
      2          6           0       -3.391099   -0.461171   -0.160095
      3          1           0       -3.854901   -0.695567    0.802605
      4          1           0       -3.794390    0.487032   -0.527895
      5          6           0       -1.877299   -0.480285    0.018705
      6          8           0       -1.338909   -1.497090    0.462505
      7          7           0       -1.251589    0.673409   -0.337595
      8          1           0       -1.885282    1.388215   -0.669295
      9          6           0        0.144616    1.184996   -0.345995
     10          1           0        0.281920    1.611995   -1.346895
     11          6           0        0.245827    2.331695    0.677505
     12          1           0        0.092623    1.951197    1.693105
     13          1           0        1.235631    2.786286    0.612805
     14          1           0       -0.512966    3.098402    0.480705
     15          6           0        1.401608    0.284185   -0.193995
     16          8           0        2.481313    0.869075   -0.284695
     17          7           0        1.286095   -1.045714   -0.042395
     18          1           0        0.363892   -1.434006    0.173905
     19          6           0        2.477088   -1.868225    0.089905
     20          1           0        3.192690   -1.619332   -0.698195
     21          1           0        2.975389   -1.714530    1.055605
     22          1           0        2.187778   -2.918123    0.001605
 ---------------------------------------------------------------------

 SCF Done:  E(RHF) =  -492.911958601     A.U. after   14 cycles
 E2 =    -0.1604802569D+01 EUMP2 =    -0.49451676117001D+03

 The electronic state is 1-A.
 Alpha  occ. eigenvalues --  -20.54774 -20.51715 -15.61969 -15.57244 -11.38661
 Alpha  occ. eigenvalues --  -11.35425 -11.30636 -11.26080 -11.25470 -11.23680
 Alpha  occ. eigenvalues --   -1.40202  -1.37309  -1.25635  -1.21683  -1.06332
 Alpha  occ. eigenvalues --   -1.00112  -0.94888  -0.88144  -0.82196  -0.76974
 Alpha  occ. eigenvalues --   -0.71403  -0.70902  -0.65535  -0.63640  -0.62341
 Alpha  occ. eigenvalues --   -0.61089  -0.60419  -0.59140  -0.58328  -0.56371
 Alpha  occ. eigenvalues --   -0.54199  -0.53987  -0.52549  -0.52021  -0.49770
 Alpha  occ. eigenvalues --   -0.43996  -0.41794  -0.40874  -0.37687
 Alpha virt. eigenvalues --    0.02329   0.04040   0.04309   0.04511   0.05658
 Alpha virt. eigenvalues --    0.06225   0.06483   0.06614   0.07528   0.07979
 Alpha virt. eigenvalues --    0.09090   0.09509   0.11247   0.11834   0.12764

 Mulliken atomic charges:
              1
     1  H    0.043462
     2  C    0.481612
     3  H    0.039129
     4  H   -0.168551
     5  C    0.573363
     6  O   -0.943749
     7  N   -0.419599
     8  H   -0.054920
     9  C   -0.067771
    10  H   -0.021856
    11  C    0.665939
    12  H   -0.054549
    13  H   -0.006513
    14  H   -0.092337
    15  C    0.850405
    16  O   -0.881098
    17  N   -0.315233
    18  H    0.002841
    19  C    0.713802
    20  H   -0.097332
    21  H   -0.043826
    22  H   -0.203220
 Sum of Mulliken atomic charges =   0.00000

 Dipole moment (field-independent basis, Debye):
    X=             -4.8239    Y=              1.2084    Z=             -0.8251  Tot=              5.0409
 Quadrupole moment (field-independent basis, Debye-Ang):
   XX=            -61.7345   YY=            -60.8413   ZZ=            -61.1724
   XY=            -10.4572   XZ=              4.0964   YZ=              0.6285

 Normal termination of Gaussian 09 at Sun Feb 12 19:32:54 2017.
