 Gaussian 09, Revision A.02,
 Gaussian 09:  EM64L-G09RevA.02 11-Jun-2009

 -------------------
 #SP MP2/aug-cc-pVDZ
 -------------------

 -------------------------------
 Single Point calculation at MP2
 -------------------------------
 Symbolic Z-matrix:
 Charge =  0 Multiplicity = 1

                         Standard orientation:
 ---------------------------------------------------------------------
 Center     Atomic      Atomic             Coordinates (Angstroms)
 Number     Number       Type             X           Y           Z
 ---------------------------------------------------------------------
      1          1           0        3.466683   -1.527430   -0.836896
      2          6           0        3.163288   -0.868828   -0.020396
      3          1           0        3.826095    0.002267    0.008904
      4          1           0        3.278984   -1.423629    0.918104
      5          6           0        1.695291   -0.508917   -0.202396
      6          8           0        0.885285   -1.305311   -0.659296
      7          7           0        1.364201    0.770986    0.163804
      8          1           0        2.093705    1.310880    0.609604
      9          6           0       -0.000996    1.269096    0.401604
     10          1           0        0.003108    1.729396    1.395004
     11          6           0       -0.371888    2.336399   -0.638696
     12          1           0       -0.315491    1.938699   -1.658096
     13          1           0       -1.382785    2.719007   -0.465396
     14          1           0        0.328819    3.176994   -0.582396
     15          6           0       -1.027104    0.115404    0.559504
     16          8           0       -1.133308   -0.447395    1.639804
     17          7           0       -1.865006   -0.120290   -0.494696
     18          1           0       -1.502104    0.129707   -1.404796
     19          6           0       -2.710815   -1.306283   -0.461496
     20          1           0       -3.223915   -1.344680    0.500504
     21          1           0       -3.449614   -1.241478   -1.264896
     22          1           0       -2.120322   -2.224188   -0.576196
 ---------------------------------------------------------------------

 SCF Done:  E(RHF) =  -492.914755489     A.U. after   15 cycles
 E2 =    -0.1603298804D+01 EUMP2 =    -0.49451805429259D+03

 The electronic state is 1-A.
 Alpha  occ. eigenvalues --  -20.53463 -20.52418 -15.60462 -15.58003 -11.36897
 Alpha  occ. eigenvalues --  -11.35397 -11.29867 -11.25248 -11.25059 -11.24385
 Alpha  occ. eigenvalues --   -1.39197  -1.37497  -1.24320  -1.21958  -1.05814
 Alpha  occ. eigenvalues --   -0.99550  -0.94092  -0.88534  -0.80867  -0.76533
 Alpha  occ. eigenvalues --   -0.71090  -0.69303  -0.64992  -0.64022  -0.62219
 Alpha  occ. eigenvalues --   -0.60988  -0.59685  -0.57795  -0.57019  -0.56422
 Alpha  occ. eigenvalues --   -0.54420  -0.53887  -0.52519  -0.52027  -0.49981
 Alpha  occ. eigenvalues --   -0.42792  -0.42185  -0.39951  -0.38314
 Alpha virt. eigenvalues --    0.02638   0.03847   0.04104   0.04719   0.05626
 Alpha virt. eigenvalues --    0.06224   0.06344   0.06706   0.07340   0.08203
 Alpha virt. eigenvalues --    0.08594   0.09840   0.10608   0.12088   0.12795

 Mulliken atomic charges:
              1
     1  H   -0.004336
     2  C    0.410717
     3  H   -0.105390
     4  H    0.073327
     5  C    0.630364
     6  O   -0.845591
     7  N   -0.419835
     8  H   -0.102832
     9  C   -0.127314
    10  H   -0.121034
    11  C    0.795152
    12  H   -0.030430
    13  H   -0.012484
    14  H   -0.122759
    15  C    1.180394
    16  O   -0.962506
    17  N   -0.580823
    18  H   -0.052464
    19  C    0.730343
    20  H   -0.112124
    21  H   -0.197451
    22  H   -0.022923
 Sum of Mulliken atomic charges =   0.00000

 Dipole moment (field-independent basis, Debye):
    X=              2.5340    Y=              3.5566    Z=             -1.8405  Tot=              4.7390
 Quadrupole moment (field-independent basis, Debye-Ang):
   XX=            -50.6033   YY=            -60.4619   ZZ=            -65.6720
   XY=              2.1793   XZ=              7.2661   YZ=              1.8417

 Normal termination of Gaussian 09 at Sun Feb 12 21:05:50 2017.
