 Gaussian 09, Revision A.02,
 Gaussian 09:  EM64L-G09RevA.02 11-Jun-2009

 -------------------
 #SP MP2/aug-cc-pVDZ
 -------------------

 -------------------------------
 Single Point calculation at MP2
 -------------------------------
 Symbolic Z-matrix:
 Charge =  0 Multiplicity = 1

                         Standard orientation:
 ---------------------------------------------------------------------
 Center     Atomic      Atomic             Coordinates (Angstroms)
 Number     Number       Type             X           Y           Z
 ---------------------------------------------------------------------
      1          1           0       -3.692009   -0.676077    1.042804
      2          6           0       -3.287409   -0.697881    0.025704
      3          1           0       -3.782700    0.077724   -0.566696
      4          1           0       -3.524919   -1.677979   -0.397496
      5          6           0       -1.771707   -0.558598    0.107804
      6          8           0       -1.095717   -1.421805    0.664404
      7          7           0       -1.269095    0.563997   -0.480696
      8          1           0       -1.958089    1.173404   -0.900296
      9          6           0        0.082411    1.162082   -0.492096
     10          1           0        0.303113    1.373780   -1.548596
     11          6           0        0.046525    2.490383    0.273904
     12          1           0       -0.149376    2.313885    1.335704
     13          1           0        1.005631    3.002373    0.185404
     14          1           0       -0.742368    3.139491   -0.124996
     15          6           0        1.302802    0.315369   -0.030396
     16          8           0        2.223408    0.883860    0.544004
     17          7           0        1.392588   -0.965532   -0.494796
     18          1           0        0.508683   -1.466622   -0.482096
     19          6           0        2.555680   -1.756244   -0.106996
     20          1           0        3.464686   -1.201254   -0.345996
     21          1           0        2.566777   -1.982744    0.967204
     22          1           0        2.544770   -2.692344   -0.671296
 ---------------------------------------------------------------------

 SCF Done:  E(RHF) =  -492.911665683     A.U. after   14 cycles
 E2 =    -0.1603268031D+01 EUMP2 =    -0.49451493371378D+03

 The electronic state is 1-A.
 Alpha  occ. eigenvalues --  -20.54254 -20.53077 -15.61632 -15.57226 -11.38146
 Alpha  occ. eigenvalues --  -11.35749 -11.30486 -11.25908 -11.25189 -11.23276
 Alpha  occ. eigenvalues --   -1.39857  -1.38208  -1.25394  -1.21562  -1.06093
 Alpha  occ. eigenvalues --   -0.99898  -0.94663  -0.87634  -0.81942  -0.76041
 Alpha  occ. eigenvalues --   -0.70913  -0.70585  -0.66223  -0.63752  -0.62732
 Alpha  occ. eigenvalues --   -0.61039  -0.60367  -0.58883  -0.57869  -0.55873
 Alpha  occ. eigenvalues --   -0.53832  -0.53120  -0.52335  -0.51636  -0.50605
 Alpha  occ. eigenvalues --   -0.44046  -0.42372  -0.40806  -0.38285
 Alpha virt. eigenvalues --    0.02316   0.03930   0.04174   0.04684   0.05648
 Alpha virt. eigenvalues --    0.06153   0.06294   0.06923   0.07314   0.08042
 Alpha virt. eigenvalues --    0.09004   0.09599   0.11276   0.12040   0.12707

 Mulliken atomic charges:
              1
     1  H    0.049979
     2  C    0.427029
     3  H   -0.159428
     4  H    0.039891
     5  C    0.569288
     6  O   -0.866566
     7  N   -0.318830
     8  H   -0.108963
     9  C   -0.141958
    10  H   -0.061275
    11  C    0.716634
    12  H   -0.058335
    13  H   -0.014790
    14  H   -0.063121
    15  C    0.853619
    16  O   -0.813098
    17  N   -0.473051
    18  H    0.018458
    19  C    0.771209
    20  H   -0.122450
    21  H   -0.053746
    22  H   -0.190495
 Sum of Mulliken atomic charges =   0.00000

 Dipole moment (field-independent basis, Debye):
    X=             -4.5051    Y=              0.9657    Z=             -2.7603  Tot=              5.3710
 Quadrupole moment (field-independent basis, Debye-Ang):
   XX=            -57.8904   YY=            -60.6476   ZZ=            -62.8290
   XY=             -7.6410   XZ=             -0.2137   YZ=             -0.4751

 Normal termination of Gaussian 09 at Sun Feb 12 20:44:30 2017.
