 Gaussian 09, Revision A.02,
 Gaussian 09:  EM64L-G09RevA.02 11-Jun-2009

 -------------------
 #SP MP2/aug-cc-pVDZ
 -------------------

 -------------------------------
 Single Point calculation at MP2
 -------------------------------
 Symbolic Z-matrix:
 Charge =  0 Multiplicity = 1

                         Standard orientation:
 ---------------------------------------------------------------------
 Center     Atomic      Atomic             Coordinates (Angstroms)
 Number     Number       Type             X           Y           Z
 ---------------------------------------------------------------------
      1          1           0       -2.868015   -1.269622   -1.587501
      2          6           0       -3.228818   -0.670124   -0.742501
      3          1           0       -3.924315   -1.271827   -0.156001
      4          1           0       -3.758323    0.200074   -1.149701
      5          6           0       -2.057020   -0.267617    0.149599
      6          8           0       -1.869318   -0.768416    1.237899
      7          7           0       -1.310226    0.802687   -0.366701
      8          1           0       -1.687228    1.090485   -1.262101
      9          6           0        0.150873    1.008494   -0.373201
     10          1           0        0.407671    1.328396   -1.390001
     11          6           0        0.494567    2.155096    0.607499
     12          1           0        0.247268    1.843795    1.626999
     13          1           0        1.553965    2.434602    0.576699
     14          1           0       -0.102638    3.039793    0.366699
     15          6           0        1.045979   -0.219101   -0.062101
     16          8           0        0.661185   -1.294803    0.357399
     17          7           0        2.357578    0.003706   -0.416901
     18          1           0        2.641373    0.936508   -0.680201
     19          6           0        3.401483   -0.969888   -0.144601
     20          1           0        2.916289   -1.932491    0.021199
     21          1           0        4.080084   -1.047385   -1.000501
     22          1           0        3.985082   -0.712485    0.749099
 ---------------------------------------------------------------------

 SCF Done:  E(RHF) =  -492.892656517     A.U. after   14 cycles
 E2 =    -0.1603815330D+01 EUMP2 =    -0.49449647184646D+03

 The electronic state is 1-A.
 Alpha  occ. eigenvalues --  -20.52942 -20.52255 -15.59335 -15.58889 -11.36194
 Alpha  occ. eigenvalues --  -11.35363 -11.30581 -11.26689 -11.24160 -11.24039
 Alpha  occ. eigenvalues --   -1.38854  -1.37193  -1.23427  -1.22503  -1.05503
 Alpha  occ. eigenvalues --   -0.98638  -0.95277  -0.87915  -0.80193  -0.76848
 Alpha  occ. eigenvalues --   -0.70098  -0.68804  -0.65058  -0.63227  -0.61734
 Alpha  occ. eigenvalues --   -0.61230  -0.60335  -0.58136  -0.56840  -0.56260
 Alpha  occ. eigenvalues --   -0.54737  -0.53837  -0.53275  -0.51337  -0.48965
 Alpha  occ. eigenvalues --   -0.43418  -0.41262  -0.39117  -0.37996
 Alpha virt. eigenvalues --    0.02254   0.03519   0.04184   0.04532   0.05585
 Alpha virt. eigenvalues --    0.05758   0.06158   0.07158   0.07459   0.08076
 Alpha virt. eigenvalues --    0.08623   0.09236   0.10781   0.11799   0.12461

 Mulliken atomic charges:
              1
     1  H    0.046474
     2  C    0.265366
     3  H   -0.059343
     4  H   -0.007008
     5  C    0.799405
     6  O   -0.754282
     7  N   -0.528425
     8  H   -0.054242
     9  C   -0.167673
    10  H   -0.130832
    11  C    0.729523
    12  H   -0.029976
    13  H   -0.128871
    14  H   -0.085271
    15  C    1.170997
    16  O   -0.776935
    17  N   -0.541232
    18  H   -0.110688
    19  C    0.726647
    20  H   -0.128112
    21  H   -0.145748
    22  H   -0.089775
 Sum of Mulliken atomic charges =   0.00000

 Dipole moment (field-independent basis, Debye):
    X=              2.0650    Y=              4.1711    Z=             -4.6535  Tot=              6.5816
 Quadrupole moment (field-independent basis, Debye-Ang):
   XX=            -49.4979   YY=            -62.7324   ZZ=            -62.9751
   XY=              0.4903   XZ=              6.2300   YZ=              1.7185

 Normal termination of Gaussian 09 at Sun Feb 12 20:21:20 2017.
