 Gaussian 09, Revision A.02,
 Gaussian 09:  EM64L-G09RevA.02 11-Jun-2009

 -------------------
 #SP MP2/aug-cc-pVDZ
 -------------------

 -------------------------------
 Single Point calculation at MP2
 -------------------------------
 Symbolic Z-matrix:
 Charge =  0 Multiplicity = 1

                         Standard orientation:
 ---------------------------------------------------------------------
 Center     Atomic      Atomic             Coordinates (Angstroms)
 Number     Number       Type             X           Y           Z
 ---------------------------------------------------------------------
      1          1           0       -3.568794   -1.162546   -1.130797
      2          6           0       -3.374502   -0.497644   -0.282897
      3          1           0       -3.867597   -0.932050    0.591103
      4          1           0       -3.816813    0.480551   -0.494597
      5          6           0       -1.872502   -0.469127   -0.027497
      6          8           0       -1.297690   -1.501020    0.323103
      7          7           0       -1.289316    0.748880   -0.197697
      8          1           0       -1.932425    1.478772   -0.473397
      9          6           0        0.112678    1.234596   -0.225797
     10          1           0        0.184571    1.851497   -1.125397
     11          6           0        0.371068    2.128099    1.003703
     12          1           0        0.317774    1.538099    1.923803
     13          1           0        1.365062    2.578911    0.928903
     14          1           0       -0.371242    2.932791    1.062903
     15          6           0        1.322089    0.274910   -0.378397
     16          8           0        2.269784    0.696921   -1.038497
     17          7           0        1.361802   -0.862089    0.351603
     18          1           0        0.458107   -1.268500    0.602303
     19          6           0        2.520612   -1.736076    0.253603
     20          1           0        3.433006   -1.152065    0.394803
     21          1           0        2.452021   -2.497577    1.034303
     22          1           0        2.585518   -2.231175   -0.724397
 ---------------------------------------------------------------------

 SCF Done:  E(RHF) =  -492.912769385     A.U. after   14 cycles
 E2 =    -0.1604346385D+01 EUMP2 =    -0.49451711577052D+03

 The electronic state is 1-A.
 Alpha  occ. eigenvalues --  -20.54657 -20.52262 -15.61830 -15.57092 -11.38497
 Alpha  occ. eigenvalues --  -11.35359 -11.30367 -11.26004 -11.25353 -11.24160
 Alpha  occ. eigenvalues --   -1.40078  -1.37512  -1.25501  -1.21594  -1.06401
 Alpha  occ. eigenvalues --   -1.00218  -0.94482  -0.88453  -0.82083  -0.76455
 Alpha  occ. eigenvalues --   -0.71524  -0.70800  -0.64954  -0.63575  -0.62442
 Alpha  occ. eigenvalues --   -0.61852  -0.60400  -0.58531  -0.57814  -0.57022
 Alpha  occ. eigenvalues --   -0.54523  -0.53595  -0.52703  -0.51949  -0.50101
 Alpha  occ. eigenvalues --   -0.44150  -0.42670  -0.40239  -0.37745
 Alpha virt. eigenvalues --    0.02357   0.04021   0.04229   0.04561   0.05648
 Alpha virt. eigenvalues --    0.06224   0.06472   0.06665   0.07259   0.07993
 Alpha virt. eigenvalues --    0.08764   0.10086   0.11030   0.11862   0.12464

 Mulliken atomic charges:
              1
     1  H    0.053075
     2  C    0.509800
     3  H    0.031397
     4  H   -0.158376
     5  C    0.546413
     6  O   -0.931472
     7  N   -0.362167
     8  H   -0.088679
     9  C    0.168840
    10  H   -0.137430
    11  C    0.589838
    12  H   -0.017213
    13  H   -0.030729
    14  H   -0.099699
    15  C    0.785170
    16  O   -0.891491
    17  N   -0.413515
    18  H    0.007934
    19  C    0.795523
    20  H   -0.112995
    21  H   -0.194848
    22  H   -0.049376
 Sum of Mulliken atomic charges =   0.00000

 Dipole moment (field-independent basis, Debye):
    X=             -4.5533    Y=              1.6506    Z=              0.8068  Tot=              4.9100
 Quadrupole moment (field-independent basis, Debye-Ang):
   XX=            -59.1850   YY=            -60.2268   ZZ=            -63.5960
   XY=             -8.9743   XZ=              7.7967   YZ=              1.6302

 Normal termination of Gaussian 09 at Sun Feb 12 20:09:42 2017.
