 Gaussian 09, Revision A.02,
 Gaussian 09:  EM64L-G09RevA.02 11-Jun-2009

 -------------------
 #SP MP2/aug-cc-pVDZ
 -------------------

 -------------------------------
 Single Point calculation at MP2
 -------------------------------
 Symbolic Z-matrix:
 Charge =  0 Multiplicity = 1

                         Standard orientation:
 ---------------------------------------------------------------------
 Center     Atomic      Atomic             Coordinates (Angstroms)
 Number     Number       Type             X           Y           Z
 ---------------------------------------------------------------------
      1          1           0       -4.022691   -1.162787    0.129386
      2          6           0       -3.464589   -0.225588    0.141686
      3          1           0       -3.549088    0.219912    1.140686
      4          1           0       -3.913188    0.471113   -0.576614
      5          6           0       -1.999489   -0.528091   -0.173714
      6          8           0       -1.548192   -1.653992   -0.121114
      7          7           0       -1.294787    0.597108   -0.596614
      8          1           0       -1.874786    1.428409   -0.591714
      9          6           0        0.112513    0.983405   -0.426214
     10          1           0        0.457114    1.378204   -1.393414
     11          6           0        0.213516    2.114105    0.619186
     12          1           0       -0.080985    1.733305    1.601786
     13          1           0        1.238116    2.493703    0.681686
     14          1           0       -0.443383    2.950806    0.350486
     15          6           0        1.095111   -0.117897    0.024386
     16          8           0        0.858810   -0.906597    0.921886
     17          7           0        2.370112    0.090601   -0.453114
     18          1           0        2.473313    0.586800   -1.328114
     19          6           0        3.458710   -0.790502   -0.058414
     20          1           0        3.300409   -1.078601    0.981786
     21          1           0        3.498708   -1.705002   -0.664714
     22          1           0        4.409611   -0.257703   -0.150814
 ---------------------------------------------------------------------

 SCF Done:  E(RHF) =  -492.895117533     A.U. after   15 cycles
 E2 =    -0.1605050140D+01 EUMP2 =    -0.49450016767349D+03

 The electronic state is 1-A.
 Alpha  occ. eigenvalues --  -20.52688 -20.52174 -15.59354 -15.59146 -11.35903
 Alpha  occ. eigenvalues --  -11.35534 -11.30420 -11.26484 -11.24690 -11.24137
 Alpha  occ. eigenvalues --   -1.38618  -1.37183  -1.23558  -1.22593  -1.05712
 Alpha  occ. eigenvalues --   -0.98683  -0.95430  -0.87857  -0.80571  -0.76975
 Alpha  occ. eigenvalues --   -0.69207  -0.68300  -0.66181  -0.63572  -0.62455
 Alpha  occ. eigenvalues --   -0.60960  -0.59416  -0.57859  -0.57444  -0.55570
 Alpha  occ. eigenvalues --   -0.54791  -0.54416  -0.53348  -0.51593  -0.49241
 Alpha  occ. eigenvalues --   -0.42831  -0.40586  -0.39230  -0.38500
 Alpha virt. eigenvalues --    0.02439   0.03419   0.04229   0.04577   0.05676
 Alpha virt. eigenvalues --    0.05810   0.06494   0.06691   0.07305   0.08320
 Alpha virt. eigenvalues --    0.08721   0.09431   0.10989   0.11996   0.12270

 Mulliken atomic charges:
              1
     1  H   -0.061208
     2  C    0.263475
     3  H    0.045873
     4  H   -0.006615
     5  C    0.723327
     6  O   -0.759219
     7  N   -0.631987
     8  H   -0.007249
     9  C    0.148408
    10  H   -0.280495
    11  C    0.577384
    12  H    0.024474
    13  H   -0.055413
    14  H   -0.082252
    15  C    1.106315
    16  O   -0.815383
    17  N   -0.499181
    18  H   -0.101188
    19  C    0.767836
    20  H   -0.107961
    21  H   -0.061295
    22  H   -0.187647
 Sum of Mulliken atomic charges =   0.00000

 Dipole moment (field-independent basis, Debye):
    X=              0.7179    Y=              5.7068    Z=             -2.1903  Tot=              6.1547
 Quadrupole moment (field-independent basis, Debye-Ang):
   XX=            -46.6396   YY=            -65.5908   ZZ=            -61.5085
   XY=             -4.8558   XZ=             -4.4223   YZ=              0.3682

 Normal termination of Gaussian 09 at Sun Feb 12 20:45:06 2017.
