 Gaussian 09, Revision A.02,
 Gaussian 09:  EM64L-G09RevA.02 11-Jun-2009

 -------------------
 #SP MP2/aug-cc-pVDZ
 -------------------

 -------------------------------
 Single Point calculation at MP2
 -------------------------------
 Symbolic Z-matrix:
 Charge =  0 Multiplicity = 1

                         Standard orientation:
 ---------------------------------------------------------------------
 Center     Atomic      Atomic             Coordinates (Angstroms)
 Number     Number       Type             X           Y           Z
 ---------------------------------------------------------------------
      1          1           0       -3.544904    0.038504    1.080499
      2          6           0       -3.395305   -0.427996    0.098999
      3          1           0       -3.892603    0.197905   -0.651401
      4          1           0       -3.859107   -1.415395    0.109299
      5          6           0       -1.902705   -0.592700   -0.174801
      6          8           0       -1.332608   -1.659302   -0.048401
      7          7           0       -1.295802    0.563998   -0.652201
      8          1           0       -1.933900    1.351300   -0.685001
      9          6           0        0.080999    1.036295   -0.443201
     10          1           0        0.450300    1.396494   -1.414101
     11          6           0        0.091402    2.215095    0.546499
     12          1           0       -0.221099    1.866595    1.534899
     13          1           0        1.097403    2.640292    0.626599
     14          1           0       -0.586296    3.010196    0.211599
     15          6           0        1.073096   -0.013108    0.102699
     16          8           0        0.903795   -0.577407    1.170699
     17          7           0        2.281496   -0.011311   -0.549401
     18          1           0        2.297297    0.296189   -1.512401
     19          6           0        3.356994   -0.889314   -0.113201
     20          1           0        3.324194   -0.948714    0.975599
     21          1           0        3.254991   -1.905713   -0.515201
     22          1           0        4.317495   -0.472416   -0.429501
 ---------------------------------------------------------------------

 SCF Done:  E(RHF) =  -492.900640979     A.U. after   15 cycles
 E2 =    -0.1605064796D+01 EUMP2 =    -0.49450570577481D+03

 The electronic state is 1-A.
 Alpha  occ. eigenvalues --  -20.52483 -20.52411 -15.59403 -15.59304 -11.35757
 Alpha  occ. eigenvalues --  -11.35725 -11.30155 -11.26363 -11.24383 -11.24309
 Alpha  occ. eigenvalues --   -1.38563  -1.37302  -1.23606  -1.22609  -1.05565
 Alpha  occ. eigenvalues --   -0.98836  -0.95502  -0.87583  -0.80529  -0.77079
 Alpha  occ. eigenvalues --   -0.69335  -0.68434  -0.66269  -0.63477  -0.62252
 Alpha  occ. eigenvalues --   -0.61103  -0.59504  -0.57901  -0.57535  -0.55370
 Alpha  occ. eigenvalues --   -0.54578  -0.54272  -0.53233  -0.51530  -0.49304
 Alpha  occ. eigenvalues --   -0.42535  -0.41075  -0.39229  -0.38695
 Alpha virt. eigenvalues --    0.02516   0.03448   0.04356   0.04532   0.05728
 Alpha virt. eigenvalues --    0.05937   0.06460   0.06830   0.07252   0.08234
 Alpha virt. eigenvalues --    0.08860   0.09268   0.11205   0.12083   0.12404

 Mulliken atomic charges:
              1
     1  H    0.050647
     2  C    0.297986
     3  H   -0.013075
     4  H   -0.053869
     5  C    0.741006
     6  O   -0.781553
     7  N   -0.560684
     8  H   -0.011299
     9  C    0.016067
    10  H   -0.315245
    11  C    0.607410
    12  H    0.029176
    13  H   -0.061248
    14  H   -0.075050
    15  C    1.144255
    16  O   -0.831248
    17  N   -0.490341
    18  H   -0.105058
    19  C    0.758160
    20  H   -0.109643
    21  H   -0.055628
    22  H   -0.180767
 Sum of Mulliken atomic charges =   0.00000

 Dipole moment (field-independent basis, Debye):
    X=              0.0142    Y=              4.8317    Z=             -2.9024  Tot=              5.6365
 Quadrupole moment (field-independent basis, Debye-Ang):
   XX=            -46.4200   YY=            -64.4849   ZZ=            -62.4172
   XY=             -4.8021   XZ=             -4.5501   YZ=              0.6957

 Normal termination of Gaussian 09 at Sun Feb 12 21:06:48 2017.
