 Gaussian 09, Revision A.02,
 Gaussian 09:  EM64L-G09RevA.02 11-Jun-2009

 -------------------
 #SP MP2/aug-cc-pVDZ
 -------------------

 -------------------------------
 Single Point calculation at MP2
 -------------------------------
 Symbolic Z-matrix:
 Charge =  0 Multiplicity = 1

                         Standard orientation:
 ---------------------------------------------------------------------
 Center     Atomic      Atomic             Coordinates (Angstroms)
 Number     Number       Type             X           Y           Z
 ---------------------------------------------------------------------
      1          1           0       -3.172708   -2.093097   -0.091186
      2          6           0       -3.093005   -1.011897    0.045314
      3          1           0       -3.570004   -0.764696    1.000214
      4          1           0       -3.638303   -0.505496   -0.757786
      5          6           0       -1.617003   -0.638902    0.123414
      6          8           0       -0.821006   -1.308805    0.768114
      7          7           0       -1.275100    0.489497   -0.575486
      8          1           0       -2.026098    0.987199   -1.034586
      9          6           0        0.015103    1.197992   -0.567686
     10          1           0        0.282003    1.375591   -1.618986
     11          6           0       -0.106493    2.541793    0.153914
     12          1           0       -0.290793    2.381693    1.218714
     13          1           0        0.821009    3.112990    0.054614
     14          1           0       -0.925491    3.133895   -0.271686
     15          6           0        1.169600    0.363988    0.048414
     16          8           0        1.704501    0.688487    1.095914
     17          7           0        1.640597   -0.636213   -0.761986
     18          1           0        0.980695   -0.987511   -1.444786
     19          6           0        2.553893   -1.626316   -0.205386
     20          1           0        3.337795   -1.104819    0.345714
     21          1           0        2.037991   -2.307814    0.482914
     22          1           0        3.004891   -2.198318   -1.020986
 ---------------------------------------------------------------------

 SCF Done:  E(RHF) =  -492.914963192     A.U. after   14 cycles
 E2 =    -0.1603326077D+01 EUMP2 =    -0.49451828926908D+03

 The electronic state is 1-A.
 Alpha  occ. eigenvalues --  -20.53577 -20.52574 -15.60962 -15.58034 -11.37239
 Alpha  occ. eigenvalues --  -11.35481 -11.29929 -11.25445 -11.25234 -11.23123
 Alpha  occ. eigenvalues --   -1.39327  -1.37723  -1.24821  -1.21840  -1.05697
 Alpha  occ. eigenvalues --   -0.99530  -0.94815  -0.87164  -0.81381  -0.76510
 Alpha  occ. eigenvalues --   -0.70731  -0.69526  -0.66081  -0.63533  -0.62264
 Alpha  occ. eigenvalues --   -0.60813  -0.60153  -0.58394  -0.57717  -0.55731
 Alpha  occ. eigenvalues --   -0.53442  -0.53053  -0.52465  -0.51284  -0.50911
 Alpha  occ. eigenvalues --   -0.42910  -0.41952  -0.40260  -0.38379
 Alpha virt. eigenvalues --    0.02274   0.03757   0.03929   0.04734   0.05668
 Alpha virt. eigenvalues --    0.06089   0.06329   0.06900   0.07191   0.08542
 Alpha virt. eigenvalues --    0.08976   0.09126   0.10996   0.11942   0.12674

 Mulliken atomic charges:
              1
     1  H    0.020428
     2  C    0.461601
     3  H    0.057400
     4  H   -0.130480
     5  C    0.572784
     6  O   -0.835096
     7  N   -0.346274
     8  H   -0.144247
     9  C   -0.232430
    10  H   -0.161681
    11  C    0.706112
    12  H   -0.000574
    13  H   -0.032781
    14  H   -0.045750
    15  C    1.148239
    16  O   -0.867235
    17  N   -0.508055
    18  H   -0.060115
    19  C    0.737468
    20  H   -0.111094
    21  H   -0.042258
    22  H   -0.185961
 Sum of Mulliken atomic charges =   0.00000

 Dipole moment (field-independent basis, Debye):
    X=             -3.8569    Y=              0.7313    Z=             -4.6085  Tot=              6.0538
 Quadrupole moment (field-independent basis, Debye-Ang):
   XX=            -54.6991   YY=            -59.6355   ZZ=            -63.7514
   XY=             -4.9412   XZ=             -1.7584   YZ=              0.4293

 Normal termination of Gaussian 09 at Sun Feb 12 20:34:19 2017.
