 Gaussian 09, Revision A.02,
 Gaussian 09:  EM64L-G09RevA.02 11-Jun-2009

 ----------------------------------------------------------------------
 # b3lyp/6-31G* Opt=(ModRedundant, maxcycles=1000, calcfc) geom=nocrowd
 ----------------------------------------------------------------------

 ------------------
 Phi Psi fixed scan
 ------------------
 Symbolic Z-matrix:
 Charge =  0 Multiplicity = 1

 SCF Done:  E(RB3LYP) =  -990.461183431     A.U. after   15 cycles

  Exact polarizability:   0.000   0.000   0.000   0.000   0.000   0.000
 Approx polarizability: 239.083  -3.271 238.988   5.842  23.254 193.507

 SCF Done:  E(RB3LYP) =  -990.473235761     A.U. after   12 cycles
 SCF Done:  E(RB3LYP) =  -990.488783505     A.U. after   13 cycles
 SCF Done:  E(RB3LYP) =  -990.494227545     A.U. after   13 cycles
 SCF Done:  E(RB3LYP) =  -990.496914468     A.U. after   12 cycles
 SCF Done:  E(RB3LYP) =  -990.499746863     A.U. after   13 cycles
 SCF Done:  E(RB3LYP) =  -990.501439230     A.U. after   15 cycles
 SCF Done:  E(RB3LYP) =  -990.467689126     A.U. after   13 cycles
 SCF Done:  E(RB3LYP) =  -990.501808477     A.U. after   14 cycles
 SCF Done:  E(RB3LYP) =  -990.502190407     A.U. after   12 cycles
 SCF Done:  E(RB3LYP) =  -990.502674929     A.U. after   10 cycles
 SCF Done:  E(RB3LYP) =  -990.502684335     A.U. after   10 cycles
 SCF Done:  E(RB3LYP) =  -990.502689345     A.U. after    9 cycles
 SCF Done:  E(RB3LYP) =  -990.502691845     A.U. after   10 cycles
 SCF Done:  E(RB3LYP) =  -990.502693330     A.U. after   10 cycles
 SCF Done:  E(RB3LYP) =  -990.502694517     A.U. after   10 cycles
 SCF Done:  E(RB3LYP) =  -990.502695387     A.U. after   10 cycles
 SCF Done:  E(RB3LYP) =  -990.502695622     A.U. after    8 cycles
 SCF Done:  E(RB3LYP) =  -990.502695549     A.U. after    8 cycles
 SCF Done:  E(RB3LYP) =  -990.502695510     A.U. after    6 cycles
 Optimization completed.
    -- Stationary point found.

                         Standard orientation:
 ---------------------------------------------------------------------
 Center     Atomic      Atomic             Coordinates (Angstroms)
 Number     Number       Type             X           Y           Z
 ---------------------------------------------------------------------
      1          1           0       -3.521994    3.785704    0.565909
      2          6           0       -3.703078    3.091208   -0.260079
      3          1           0       -2.935631    3.237082   -1.026101
      4          1           0       -4.681484    3.338343   -0.684376
      5          6           0       -3.751189    1.675446    0.294049
      6          8           0       -4.522710    1.350290    1.192722
      7          7           0       -2.887542    0.790261   -0.278808
      8          1           0       -2.205937    1.070638   -0.974370
      9          6           0       -2.781456   -0.579050    0.185277
     10          1           0       -2.872624   -0.573688    1.278765
     11          6           0       -3.893534   -1.477672   -0.392179
     12          1           0       -3.828740   -1.509242   -1.484607
     13          1           0       -3.817876   -2.501018   -0.007701
     14          1           0       -4.862946   -1.065225   -0.101914
     15          6           0       -1.392944   -1.086708   -0.230685
     16          8           0       -0.788240   -0.562254   -1.169217
     17          7           0       -0.941013   -2.171914    0.447774
     18          1           0       -1.459494   -2.419516    1.280352
     19          6           0        0.395617   -2.790025    0.330828
     20          1           0        0.426401   -3.555628    1.107708
     21          6           0        0.585722   -3.459711   -1.040235
     22          1           0        0.533950   -2.724221   -1.845894
     23          1           0        1.560999   -3.956015   -1.076952
     24          1           0       -0.193739   -4.211354   -1.202374
     25          6           0        1.605035   -1.883419    0.678676
     26          8           0        2.390928   -2.260498    1.548600
     27          7           0        1.789503   -0.752851   -0.042741
     28          1           0        1.082122   -0.428328   -0.702735
     29          6           0        2.921179    0.116214    0.231663
     30          1           0        3.127189    0.062897    1.307052
     31          6           0        4.184109   -0.335800   -0.528545
     32          1           0        4.009520   -0.304094   -1.608870
     33          1           0        5.039683    0.308437   -0.295641
     34          1           0        4.430645   -1.359841   -0.235446
     35          6           0        2.531719    1.547679   -0.164099
     36          8           0        1.663100    1.775169   -0.999420
     37          7           0        3.255308    2.522934    0.455575
     38          1           0        3.923647    2.251098    1.162500
     39          6           0        3.082508    3.936313    0.167997
     40          1           0        2.333522    4.018141   -0.620602
     41          1           0        2.731874    4.481463    1.052293
     42          1           0        4.020353    4.386854   -0.177085
 ---------------------------------------------------------------------

 The electronic state is 1-A.
 Alpha  occ. eigenvalues --  -19.13738 -19.11855 -19.10821 -19.09969 -14.38289
 Alpha  occ. eigenvalues --  -14.37068 -14.35128 -14.34772 -10.30627 -10.29128
 Alpha  occ. eigenvalues --  -10.28275 -10.27959 -10.24627 -10.24092 -10.23481
 Alpha  occ. eigenvalues --  -10.22433 -10.18739 -10.18667 -10.18502 -10.18476
 Alpha  occ. eigenvalues --   -1.05623  -1.03948  -1.02596  -1.01997  -0.94208
 Alpha  occ. eigenvalues --   -0.92790  -0.91707  -0.91407  -0.79601  -0.77338
 Alpha  occ. eigenvalues --   -0.75880  -0.72169  -0.71289  -0.67299  -0.65715
 Alpha  occ. eigenvalues --   -0.64004  -0.60385  -0.58730  -0.57853  -0.57147
 Alpha  occ. eigenvalues --   -0.55145  -0.53491  -0.49891  -0.48591  -0.47467
 Alpha  occ. eigenvalues --   -0.46975  -0.46126  -0.45820  -0.45366  -0.44499
 Alpha  occ. eigenvalues --   -0.43987  -0.43325  -0.42877  -0.41957  -0.41489
 Alpha  occ. eigenvalues --   -0.40941  -0.40383  -0.39690  -0.39423  -0.39123
 Alpha  occ. eigenvalues --   -0.38875  -0.38334  -0.37509  -0.37162  -0.36914
 Alpha  occ. eigenvalues --   -0.36881  -0.36479  -0.34722  -0.34054  -0.28934
 Alpha  occ. eigenvalues --   -0.27427  -0.26212  -0.26039  -0.24636  -0.24472
 Alpha  occ. eigenvalues --   -0.24001  -0.23856
 Alpha virt. eigenvalues --   -0.00064   0.02016   0.02978   0.03692   0.05630
 Alpha virt. eigenvalues --    0.06642   0.09767   0.11586   0.11710   0.12534
 Alpha virt. eigenvalues --    0.13175   0.13822   0.14325   0.14578   0.15345

 Mulliken atomic charges:
              1
     1  H    0.181524
     2  C   -0.533985
     3  H    0.153576
     4  H    0.181846
     5  C    0.596466
     6  O   -0.525002
     7  N   -0.605663
     8  H    0.354413
     9  C   -0.027462
    10  H    0.168174
    11  C   -0.442019
    12  H    0.159933
    13  H    0.139133
    14  H    0.190595
    15  C    0.612718
    16  O   -0.540895
    17  N   -0.606472
    18  H    0.339793
    19  C   -0.051444
    20  H    0.170334
    21  C   -0.453208
    22  H    0.185077
    23  H    0.164138
    24  H    0.153518
    25  C    0.598616
    26  O   -0.535064
    27  N   -0.631399
    28  H    0.404809
    29  C   -0.035389
    30  H    0.165142
    31  C   -0.441462
    32  H    0.162437
    33  H    0.137417
    34  H    0.180347
    35  C    0.599596
    36  O   -0.520898
    37  N   -0.592373
    38  H    0.329142
    39  C   -0.311891
    40  H    0.205216
    41  H    0.160914
    42  H    0.159755
 Sum of Mulliken atomic charges =   0.00000

 Dipole moment (field-independent basis, Debye):
    X=              2.5385    Y=              0.5888    Z=             -0.1483  Tot=              2.6101
 Quadrupole moment (field-independent basis, Debye-Ang):
   XX=           -122.6473   YY=           -104.2341   ZZ=           -125.1875
   XY=             18.8558   XZ=              7.3653   YZ=              3.4957

 Normal termination of Gaussian 09 at Fri Dec 30 07:44:40 2016.
