 Gaussian 09, Revision A.02,
 Gaussian 09:  EM64L-G09RevA.02 11-Jun-2009

 ----------------------------------------------------------------------
 # b3lyp/6-31G* Opt=(ModRedundant, maxcycles=1000, calcfc) geom=nocrowd
 ----------------------------------------------------------------------

 ------------------
 Phi Psi fixed scan
 ------------------
 Symbolic Z-matrix:
 Charge =  0 Multiplicity = 1

 SCF Done:  E(RB3LYP) =  -990.484977769     A.U. after   15 cycles

  Exact polarizability:   0.000   0.000   0.000   0.000   0.000   0.000
 Approx polarizability: 215.463  11.987 219.357  29.550   9.737 232.873

 SCF Done:  E(RB3LYP) =  -990.493019044     A.U. after   12 cycles
 SCF Done:  E(RB3LYP) =  -990.500478625     A.U. after   13 cycles
 SCF Done:  E(RB3LYP) =  -990.501683126     A.U. after   12 cycles
 SCF Done:  E(RB3LYP) =  -990.499448882     A.U. after   13 cycles
 SCF Done:  E(RB3LYP) =  -990.502225511     A.U. after   13 cycles
 SCF Done:  E(RB3LYP) =  -990.502355254     A.U. after   12 cycles
 SCF Done:  E(RB3LYP) =  -990.502804616     A.U. after   12 cycles
 SCF Done:  E(RB3LYP) =  -990.503121223     A.U. after   12 cycles
 SCF Done:  E(RB3LYP) =  -990.503373530     A.U. after   12 cycles
 SCF Done:  E(RB3LYP) =  -990.503440185     A.U. after   11 cycles
 SCF Done:  E(RB3LYP) =  -990.503488782     A.U. after   11 cycles
 SCF Done:  E(RB3LYP) =  -990.503507544     A.U. after   10 cycles
 SCF Done:  E(RB3LYP) =  -990.503529388     A.U. after   10 cycles
 SCF Done:  E(RB3LYP) =  -990.503575201     A.U. after   11 cycles
 SCF Done:  E(RB3LYP) =  -990.503600301     A.U. after   11 cycles
 SCF Done:  E(RB3LYP) =  -990.503605986     A.U. after    9 cycles
 SCF Done:  E(RB3LYP) =  -990.503608878     A.U. after   10 cycles
 SCF Done:  E(RB3LYP) =  -990.503609606     A.U. after    9 cycles
 SCF Done:  E(RB3LYP) =  -990.503609669     A.U. after    7 cycles
 Optimization completed.
    -- Stationary point found.

                         Standard orientation:
 ---------------------------------------------------------------------
 Center     Atomic      Atomic             Coordinates (Angstroms)
 Number     Number       Type             X           Y           Z
 ---------------------------------------------------------------------
      1          1           0       -3.373299   -3.943855    1.145105
      2          6           0       -3.837519   -2.983068    1.389159
      3          1           0       -3.409023   -2.606932    2.323182
      4          1           0       -4.906575   -3.165664    1.534908
      5          6           0       -3.656986   -2.038836    0.209893
      6          8           0       -4.103241   -2.293862   -0.905280
      7          7           0       -2.970853   -0.891622    0.475233
      8          1           0       -2.544864   -0.710257    1.376560
      9          6           0       -2.655205    0.069207   -0.562058
     10          1           0       -2.354016   -0.481708   -1.462424
     11          6           0       -3.865770    0.957208   -0.915684
     12          1           0       -4.186064    1.534038   -0.041878
     13          1           0       -3.629110    1.656168   -1.726347
     14          1           0       -4.686675    0.314377   -1.241831
     15          6           0       -1.479063    0.914321   -0.046971
     16          8           0       -1.167357    0.934151    1.140726
     17          7           0       -0.824279    1.641455   -0.997636
     18          1           0       -1.179931    1.611245   -1.943289
     19          6           0        0.202492    2.644634   -0.683670
     20          1           0        0.595127    2.969080   -1.655783
     21          6           0       -0.363535    3.862459    0.053703
     22          1           0       -0.806830    3.556062    1.004069
     23          1           0        0.441193    4.569837    0.262919
     24          1           0       -1.128269    4.352453   -0.558023
     25          6           0        1.416907    2.054438    0.074866
     26          8           0        2.110349    2.764474    0.796501
     27          7           0        1.705397    0.759014   -0.192600
     28          1           0        1.092770    0.182632   -0.756835
     29          6           0        2.802697    0.061307    0.446358
     30          1           0        3.687524    0.708690    0.411469
     31          6           0        2.494352   -0.279177    1.918678
     32          1           0        1.609603   -0.920339    1.980969
     33          1           0        3.337936   -0.795049    2.391637
     34          1           0        2.297630    0.646695    2.464005
     35          6           0        3.046237   -1.216873   -0.371533
     36          8           0        2.169303   -1.694164   -1.087938
     37          7           0        4.273363   -1.779653   -0.208306
     38          1           0        4.942663   -1.308177    0.383594
     39          6           0        4.661342   -3.030062   -0.839450
     40          1           0        3.811292   -3.376054   -1.428488
     41          1           0        5.522406   -2.886265   -1.502121
     42          1           0        4.912993   -3.789465   -0.090068
 ---------------------------------------------------------------------

 The electronic state is 1-A.
 Alpha  occ. eigenvalues --  -19.13232 -19.12505 -19.10741 -19.09901 -14.37921
 Alpha  occ. eigenvalues --  -14.37564 -14.35126 -14.35059 -10.30138 -10.29659
 Alpha  occ. eigenvalues --  -10.28319 -10.27902 -10.24518 -10.23921 -10.23854
 Alpha  occ. eigenvalues --  -10.22755 -10.18716 -10.18496 -10.18258 -10.17614
 Alpha  occ. eigenvalues --   -1.05231  -1.04509  -1.02651  -1.01925  -0.94093
 Alpha  occ. eigenvalues --   -0.93303  -0.91761  -0.91549  -0.79289  -0.77371
 Alpha  occ. eigenvalues --   -0.75670  -0.72135  -0.71558  -0.67248  -0.65875
 Alpha  occ. eigenvalues --   -0.63488  -0.60645  -0.59178  -0.57667  -0.57553
 Alpha  occ. eigenvalues --   -0.54902  -0.53131  -0.49754  -0.48292  -0.48221
 Alpha  occ. eigenvalues --   -0.47205  -0.46358  -0.45908  -0.45331  -0.44863
 Alpha  occ. eigenvalues --   -0.43817  -0.43236  -0.42653  -0.41770  -0.41517
 Alpha  occ. eigenvalues --   -0.40776  -0.40153  -0.39990  -0.39345  -0.38847
 Alpha  occ. eigenvalues --   -0.38619  -0.38416  -0.37318  -0.37132  -0.36876
 Alpha  occ. eigenvalues --   -0.36602  -0.36209  -0.34736  -0.33936  -0.28259
 Alpha  occ. eigenvalues --   -0.26976  -0.26679  -0.26529  -0.24654  -0.24633
 Alpha  occ. eigenvalues --   -0.24061  -0.23891
 Alpha virt. eigenvalues --    0.00852   0.01547   0.02747   0.03775   0.06026
 Alpha virt. eigenvalues --    0.06472   0.09658   0.11293   0.11594   0.12375
 Alpha virt. eigenvalues --    0.13138   0.13203   0.13802   0.14671   0.15059

 Mulliken atomic charges:
              1
     1  H    0.183456
     2  C   -0.533535
     3  H    0.147874
     4  H    0.182282
     5  C    0.599194
     6  O   -0.523616
     7  N   -0.606268
     8  H    0.346634
     9  C   -0.032168
    10  H    0.175026
    11  C   -0.446565
    12  H    0.159063
    13  H    0.132130
    14  H    0.194708
    15  C    0.609008
    16  O   -0.525456
    17  N   -0.625872
    18  H    0.336918
    19  C   -0.054278
    20  H    0.165377
    21  C   -0.440306
    22  H    0.183619
    23  H    0.179592
    24  H    0.132582
    25  C    0.649708
    26  O   -0.541820
    27  N   -0.611260
    28  H    0.349869
    29  C   -0.032161
    30  H    0.163548
    31  C   -0.441912
    32  H    0.164697
    33  H    0.131800
    34  H    0.195614
    35  C    0.606335
    36  O   -0.530908
    37  N   -0.593001
    38  H    0.331142
    39  C   -0.313488
    40  H    0.207783
    41  H    0.162427
    42  H    0.162225
 Sum of Mulliken atomic charges =   0.00000

 Dipole moment (field-independent basis, Debye):
    X=              3.3206    Y=             -0.2443    Z=             -0.3973  Tot=              3.3532
 Quadrupole moment (field-independent basis, Debye-Ang):
   XX=           -106.4739   YY=           -122.8770   ZZ=           -117.8511
   XY=            -21.7265   XZ=             -5.7661   YZ=            -17.6617

 Normal termination of Gaussian 09 at Fri Dec 30 09:20:35 2016.
