 Gaussian 09, Revision A.02,
 Gaussian 09:  EM64L-G09RevA.02 11-Jun-2009

 ----------------------------------------------------------------------
 # b3lyp/6-31G* Opt=(ModRedundant, maxcycles=1000, calcfc) geom=nocrowd
 ----------------------------------------------------------------------

 ------------------
 Phi Psi fixed scan
 ------------------
 Symbolic Z-matrix:
 Charge =  0 Multiplicity = 1

 SCF Done:  E(RB3LYP) =  -990.477599888     A.U. after   14 cycles

  Exact polarizability:   0.000   0.000   0.000   0.000   0.000   0.000
 Approx polarizability: 236.658  14.852 221.889 -20.630   3.118 207.905

 SCF Done:  E(RB3LYP) =  -990.486216149     A.U. after   12 cycles
 SCF Done:  E(RB3LYP) =  -990.496185575     A.U. after   13 cycles
 SCF Done:  E(RB3LYP) =  -990.499273565     A.U. after   12 cycles
 SCF Done:  E(RB3LYP) =  -990.501045706     A.U. after   13 cycles
 SCF Done:  E(RB3LYP) =  -990.501806451     A.U. after   14 cycles
 SCF Done:  E(RB3LYP) =  -990.502013127     A.U. after   12 cycles
 SCF Done:  E(RB3LYP) =  -990.449782489     A.U. after   15 cycles
 SCF Done:  E(RB3LYP) =  -990.502054905     A.U. after   15 cycles
 SCF Done:  E(RB3LYP) =  -990.502163452     A.U. after   12 cycles
 SCF Done:  E(RB3LYP) =  -990.502287224     A.U. after   10 cycles
 SCF Done:  E(RB3LYP) =  -990.502292484     A.U. after    9 cycles
 SCF Done:  E(RB3LYP) =  -990.502300687     A.U. after   10 cycles
 SCF Done:  E(RB3LYP) =  -990.502306867     A.U. after    9 cycles
 SCF Done:  E(RB3LYP) =  -990.502315574     A.U. after   10 cycles
 SCF Done:  E(RB3LYP) =  -990.502322740     A.U. after   10 cycles
 SCF Done:  E(RB3LYP) =  -990.502327286     A.U. after    9 cycles
 SCF Done:  E(RB3LYP) =  -990.502327893     A.U. after    8 cycles
 SCF Done:  E(RB3LYP) =  -990.502327972     A.U. after    7 cycles
 SCF Done:  E(RB3LYP) =  -990.502328157     A.U. after    6 cycles
 Optimization completed.
    -- Stationary point found.

                         Standard orientation:
 ---------------------------------------------------------------------
 Center     Atomic      Atomic             Coordinates (Angstroms)
 Number     Number       Type             X           Y           Z
 ---------------------------------------------------------------------
      1          1           0       -4.556899    3.751136    0.611359
      2          6           0       -4.673902    3.094022   -0.256280
      3          1           0       -3.931581    3.366344   -1.012876
      4          1           0       -5.675881    3.265287   -0.661528
      5          6           0       -4.571751    1.647731    0.206963
      6          8           0       -5.348228    1.171320    1.030643
      7          7           0       -3.568606    0.920578   -0.359126
      8          1           0       -2.869142    1.343195   -0.958652
      9          6           0       -3.280847   -0.439625    0.050900
     10          1           0       -3.369125   -0.497043    1.144051
     11          6           0       -4.262202   -1.452081   -0.571558
     12          1           0       -4.192067   -1.430521   -1.664154
     13          1           0       -4.052524   -2.471421   -0.229902
     14          1           0       -5.278255   -1.183351   -0.272956
     15          6           0       -1.829118   -0.733158   -0.359109
     16          8           0       -1.209524    0.008787   -1.117470
     17          7           0       -1.311707   -1.899383    0.127706
     18          1           0       -1.766817   -2.272798    0.949918
     19          6           0        0.115032   -2.203601   -0.001096
     20          1           0        0.270194   -3.113429    0.592220
     21          6           0        0.512809   -2.509516   -1.450622
     22          1           0        0.450196   -1.614924   -2.072997
     23          1           0        1.528494   -2.917581   -1.497563
     24          1           0       -0.163707   -3.265017   -1.861252
     25          6           0        0.937908   -1.106398    0.726460
     26          8           0        0.500237   -0.580172    1.745719
     27          7           0        2.171645   -0.843020    0.230037
     28          1           0        2.465096   -1.159749   -0.687411
     29          6           0        3.014416    0.189588    0.806115
     30          1           0        2.376756    1.036606    1.090256
     31          6           0        3.755231   -0.309505    2.061260
     32          1           0        4.410758   -1.149748    1.810292
     33          1           0        4.364021    0.484436    2.508445
     34          1           0        3.019127   -0.637118    2.799510
     35          6           0        3.996443    0.622254   -0.296138
     36          8           0        4.160183   -0.054503   -1.309100
     37          7           0        4.669959    1.775827   -0.046747
     38          1           0        4.444511    2.292740    0.791445
     39          6           0        5.659854    2.326824   -0.957666
     40          1           0        5.763277    1.628771   -1.788920
     41          1           0        5.340541    3.300881   -1.345865
     42          1           0        6.629420    2.442624   -0.460203
 ---------------------------------------------------------------------

 The electronic state is 1-A.
 Alpha  occ. eigenvalues --  -19.12887 -19.12694 -19.11011 -19.09418 -14.37817
 Alpha  occ. eigenvalues --  -14.36623 -14.35664 -14.34460 -10.30016 -10.29360
 Alpha  occ. eigenvalues --  -10.28527 -10.27406 -10.24426 -10.24198 -10.23177
 Alpha  occ. eigenvalues --  -10.22938 -10.19040 -10.18631 -10.18130 -10.17928
 Alpha  occ. eigenvalues --   -1.04944  -1.04626  -1.02875  -1.01406  -0.93597
 Alpha  occ. eigenvalues --   -0.93027  -0.92299  -0.90993  -0.79474  -0.77451
 Alpha  occ. eigenvalues --   -0.75342  -0.71834  -0.71645  -0.67085  -0.65982
 Alpha  occ. eigenvalues --   -0.63684  -0.60519  -0.58649  -0.57741  -0.56844
 Alpha  occ. eigenvalues --   -0.54946  -0.53097  -0.49503  -0.48766  -0.47867
 Alpha  occ. eigenvalues --   -0.47108  -0.46475  -0.45832  -0.44937  -0.44353
 Alpha  occ. eigenvalues --   -0.43753  -0.43154  -0.42822  -0.42052  -0.41041
 Alpha  occ. eigenvalues --   -0.40516  -0.40401  -0.39833  -0.39383  -0.39114
 Alpha  occ. eigenvalues --   -0.38684  -0.38347  -0.37726  -0.37607  -0.36953
 Alpha  occ. eigenvalues --   -0.36564  -0.36012  -0.34718  -0.33384  -0.27526
 Alpha  occ. eigenvalues --   -0.26983  -0.26845  -0.26175  -0.25260  -0.24752
 Alpha  occ. eigenvalues --   -0.23974  -0.23413
 Alpha virt. eigenvalues --    0.00876   0.01521   0.02853   0.04225   0.06105
 Alpha virt. eigenvalues --    0.07090   0.09974   0.10364   0.11323   0.12865
 Alpha virt. eigenvalues --    0.13264   0.13546   0.13774   0.14415   0.15191

 Mulliken atomic charges:
              1
     1  H    0.181162
     2  C   -0.533114
     3  H    0.146798
     4  H    0.180868
     5  C    0.597320
     6  O   -0.524639
     7  N   -0.605138
     8  H    0.346203
     9  C   -0.035267
    10  H    0.176003
    11  C   -0.442251
    12  H    0.153848
    13  H    0.138228
    14  H    0.190016
    15  C    0.620193
    16  O   -0.534854
    17  N   -0.582640
    18  H    0.338268
    19  C   -0.060617
    20  H    0.165716
    21  C   -0.476339
    22  H    0.198978
    23  H    0.150952
    24  H    0.160560
    25  C    0.641153
    26  O   -0.544209
    27  N   -0.631892
    28  H    0.362181
    29  C   -0.029449
    30  H    0.174615
    31  C   -0.444070
    32  H    0.159018
    33  H    0.135732
    34  H    0.189093
    35  C    0.605504
    36  O   -0.529217
    37  N   -0.592414
    38  H    0.332193
    39  C   -0.313454
    40  H    0.207995
    41  H    0.164751
    42  H    0.162218
 Sum of Mulliken atomic charges =   0.00000

 Dipole moment (field-independent basis, Debye):
    X=              4.9967    Y=              0.3390    Z=             -0.2874  Tot=              5.0164
 Quadrupole moment (field-independent basis, Debye-Ang):
   XX=           -123.4216   YY=            -98.7453   ZZ=           -125.9867
   XY=             15.8149   XZ=             15.6883   YZ=             -2.8767

 Normal termination of Gaussian 09 at Fri Dec 30 05:21:13 2016.
