 Gaussian 09, Revision A.02,
 Gaussian 09:  EM64L-G09RevA.02 11-Jun-2009

 -------------------
 #SP MP2/aug-cc-pVDZ
 -------------------

 -------------------------------
 Single Point calculation at MP2
 -------------------------------
 Symbolic Z-matrix:
 Charge =  0 Multiplicity = 1

                         Standard orientation:
 ---------------------------------------------------------------------
 Center     Atomic      Atomic             Coordinates (Angstroms)
 Number     Number       Type             X           Y           Z
 ---------------------------------------------------------------------
      1          1           0       -3.749903   -1.502386    0.202388
      2          6           0       -2.863702   -1.439689   -0.430812
      3          1           0       -3.169502   -1.327088   -1.477312
      4          1           0       -2.305305   -2.379490   -0.337512
      5          6           0       -1.997399   -0.281991    0.054888
      6          8           0       -2.102098    0.180409    1.175788
      7          7           0       -1.139498    0.220007   -0.919212
      8          1           0       -1.091300   -0.367993   -1.743412
      9          6           0        0.133604    0.903603   -0.643612
     10          1           0        0.549904    1.136702   -1.631712
     11          6           0       -0.072493    2.218004    0.122388
     12          1           0       -0.473993    2.008105    1.113788
     13          1           0        0.881808    2.748302    0.221188
     14          1           0       -0.776291    2.857906   -0.419012
     15          6           0        1.125501    0.002401    0.130288
     16          8           0        0.873600   -0.476998    1.224788
     17          7           0        2.305301   -0.225802   -0.531612
     18          1           0        2.470102    0.244297   -1.409712
     19          6           0        3.396299   -0.980505    0.060688
     20          1           0        3.022298   -1.411704    0.990288
     21          1           0        3.722197   -1.786406   -0.606812
     22          1           0        4.256500   -0.337907    0.285988
 ---------------------------------------------------------------------

 SCF Done:  E(RHF) =  -492.909589020     A.U. after   14 cycles
 E2 =    -0.1602993218D+01 EUMP2 =    -0.49451258223805D+03

 The electronic state is 1-A.
 Alpha  occ. eigenvalues --  -20.52878 -20.52571 -15.60106 -15.59526 -11.35948
 Alpha  occ. eigenvalues --  -11.35711 -11.29909 -11.27061 -11.24219 -11.22516
 Alpha  occ. eigenvalues --   -1.38743  -1.37599  -1.23866  -1.22985  -1.05185
 Alpha  occ. eigenvalues --   -0.98656  -0.95879  -0.87346  -0.80171  -0.77023
 Alpha  occ. eigenvalues --   -0.71050  -0.69578  -0.65289  -0.63385  -0.62213
 Alpha  occ. eigenvalues --   -0.61592  -0.59498  -0.58629  -0.56187  -0.55715
 Alpha  occ. eigenvalues --   -0.54869  -0.53017  -0.51961  -0.50773  -0.50145
 Alpha  occ. eigenvalues --   -0.44551  -0.41481  -0.39475  -0.38151
 Alpha virt. eigenvalues --    0.02066   0.03661   0.03946   0.04579   0.05662
 Alpha virt. eigenvalues --    0.05915   0.06050   0.06721   0.07730   0.07867
 Alpha virt. eigenvalues --    0.08484   0.09548   0.10926   0.12117   0.12524

 Mulliken atomic charges:
              1
     1  H   -0.042939
     2  C    0.325167
     3  H   -0.030478
     4  H    0.057582
     5  C    0.746098
     6  O   -0.776965
     7  N   -0.381025
     8  H   -0.061274
     9  C   -0.312787
    10  H   -0.321240
    11  C    0.769720
    12  H    0.039248
    13  H   -0.068117
    14  H   -0.042647
    15  C    1.144536
    16  O   -0.815085
    17  N   -0.467222
    18  H   -0.128100
    19  C    0.740677
    20  H   -0.150901
    21  H   -0.123931
    22  H   -0.100318
 Sum of Mulliken atomic charges =   0.00000

 Dipole moment (field-independent basis, Debye):
    X=              2.6762    Y=             -0.4128    Z=             -6.2155  Tot=              6.7797
 Quadrupole moment (field-independent basis, Debye-Ang):
   XX=            -54.2472   YY=            -58.4429   ZZ=            -64.3226
   XY=              4.4565   XZ=              2.1371   YZ=              1.1847

 Normal termination of Gaussian 09 at Tue Feb 14 01:22:48 2017.
