 Gaussian 09, Revision A.02,
 Gaussian 09:  EM64L-G09RevA.02 11-Jun-2009

 -------------------
 #SP MP2/aug-cc-pVDZ
 -------------------

 -------------------------------
 Single Point calculation at MP2
 -------------------------------
 Symbolic Z-matrix:
 Charge =  0 Multiplicity = 1

                         Standard orientation:
 ---------------------------------------------------------------------
 Center     Atomic      Atomic             Coordinates (Angstroms)
 Number     Number       Type             X           Y           Z
 ---------------------------------------------------------------------
      1          1           0       -3.134407   -2.080199    0.542688
      2          6           0       -3.042707   -1.185799   -0.077212
      3          1           0       -3.856808   -0.504899    0.198288
      4          1           0       -3.162407   -1.459099   -1.130812
      5          6           0       -1.707508   -0.518499    0.224988
      6          8           0       -1.211508   -0.518799    1.341088
      7          7           0       -1.090808    0.071701   -0.857012
      8          1           0       -1.653208    0.182401   -1.691112
      9          6           0        0.026492    1.020801   -0.708112
     10          1           0        0.360292    1.236801   -1.730212
     11          6           0       -0.382708    2.320401   -0.013112
     12          1           0       -0.703408    2.113601    1.009688
     13          1           0        0.465992    3.007701    0.032188
     14          1           0       -1.200008    2.801501   -0.562312
     15          6           0        1.230892    0.362302    0.012588
     16          8           0        1.773892    0.875402    0.977088
     17          7           0        1.736192   -0.728898   -0.646712
     18          1           0        1.100393   -1.197998   -1.279412
     19          6           0        2.797493   -1.529298   -0.055812
     20          1           0        3.452992   -0.859198    0.501988
     21          1           0        2.411993   -2.289698    0.636588
     22          1           0        3.370093   -2.022798   -0.846912
 ---------------------------------------------------------------------

 SCF Done:  E(RHF) =  -492.918407520     A.U. after   14 cycles
 E2 =    -0.1602861895D+01 EUMP2 =    -0.49452126941468D+03

 The electronic state is 1-A.
 Alpha  occ. eigenvalues --  -20.53931 -20.52468 -15.60751 -15.58519 -11.37031
 Alpha  occ. eigenvalues --  -11.35299 -11.29667 -11.25977 -11.25535 -11.22282
 Alpha  occ. eigenvalues --   -1.39475  -1.37736  -1.24782  -1.21983  -1.05330
 Alpha  occ. eigenvalues --   -0.99500  -0.95263  -0.87246  -0.80809  -0.76665
 Alpha  occ. eigenvalues --   -0.71059  -0.69780  -0.64790  -0.64468  -0.62218
 Alpha  occ. eigenvalues --   -0.61020  -0.60076  -0.58780  -0.57420  -0.55964
 Alpha  occ. eigenvalues --   -0.53906  -0.52470  -0.52275  -0.51324  -0.50619
 Alpha  occ. eigenvalues --   -0.43469  -0.42395  -0.39877  -0.38603
 Alpha virt. eigenvalues --    0.02094   0.03678   0.03719   0.04633   0.05694
 Alpha virt. eigenvalues --    0.06082   0.06260   0.06496   0.07294   0.08243
 Alpha virt. eigenvalues --    0.08720   0.09217   0.10872   0.12151   0.12647

 Mulliken atomic charges:
              1
     1  H    0.007794
     2  C    0.390812
     3  H    0.053239
     4  H   -0.097304
     5  C    0.641507
     6  O   -0.821995
     7  N   -0.323844
     8  H   -0.127594
     9  C   -0.243212
    10  H   -0.164987
    11  C    0.758610
    12  H   -0.001389
    13  H   -0.059115
    14  H   -0.025704
    15  C    1.112788
    16  O   -0.819119
    17  N   -0.609756
    18  H   -0.053542
    19  C    0.742045
    20  H   -0.121655
    21  H   -0.073190
    22  H   -0.164388
 Sum of Mulliken atomic charges =   0.00000

 Dipole moment (field-independent basis, Debye):
    X=             -2.9683    Y=             -1.5451    Z=             -5.8589  Tot=              6.7472
 Quadrupole moment (field-independent basis, Debye-Ang):
   XX=            -55.7052   YY=            -58.1468   ZZ=            -64.7122
   XY=             -4.0259   XZ=              1.0753   YZ=             -0.7754

 Normal termination of Gaussian 09 at Tue Feb 14 03:02:24 2017.
