 Gaussian 09, Revision A.02,
 Gaussian 09:  EM64L-G09RevA.02 11-Jun-2009

 -------------------
 #SP MP2/aug-cc-pVDZ
 -------------------

 -------------------------------
 Single Point calculation at MP2
 -------------------------------
 Symbolic Z-matrix:
 Charge =  0 Multiplicity = 1

                         Standard orientation:
 ---------------------------------------------------------------------
 Center     Atomic      Atomic             Coordinates (Angstroms)
 Number     Number       Type             X           Y           Z
 ---------------------------------------------------------------------
      1          1           0       -3.800612   -1.317854    0.277091
      2          6           0       -2.961512   -1.228361   -0.414509
      3          1           0       -3.336710   -1.006058   -1.420009
      4          1           0       -2.433820   -2.189265   -0.448609
      5          6           0       -2.005703   -0.163269    0.103191
      6          8           0       -1.993100    0.191031    1.268891
      7          7           0       -1.202398    0.407024   -0.883409
      8          1           0       -1.231602   -0.109876   -1.755309
      9          6           0        0.135706    0.922013   -0.597109
     10          1           0        0.538809    1.247710   -1.564709
     11          6           0        0.112617    2.139613    0.344391
     12          1           0       -0.270186    1.852316    1.323691
     13          1           0        1.120420    2.556705    0.453491
     14          1           0       -0.540177    2.913119   -0.072009
     15          6           0        1.065097   -0.191095   -0.046709
     16          8           0        0.649489   -1.177391    0.542991
     17          7           0        2.386899   -0.009406   -0.358509
     18          1           0        2.663906    0.868092   -0.776609
     19          6           0        3.432591   -0.875715    0.160591
     20          1           0        2.954484   -1.793011    0.506291
     21          1           0        4.154089   -1.116321   -0.627209
     22          1           0        3.965995   -0.417119    1.003191
 ---------------------------------------------------------------------

 SCF Done:  E(RHF) =  -492.914193178     A.U. after   14 cycles
 E2 =    -0.1602160711D+01 EUMP2 =    -0.49451635388885D+03

 The electronic state is 1-A.
 Alpha  occ. eigenvalues --  -20.53340 -20.52333 -15.59960 -15.59000 -11.36094
 Alpha  occ. eigenvalues --  -11.35468 -11.29824 -11.27094 -11.23719 -11.23128
 Alpha  occ. eigenvalues --   -1.39040  -1.37410  -1.23710  -1.23019  -1.05137
 Alpha  occ. eigenvalues --   -0.98493  -0.95671  -0.87659  -0.79920  -0.76860
 Alpha  occ. eigenvalues --   -0.71062  -0.69571  -0.65337  -0.62765  -0.62297
 Alpha  occ. eigenvalues --   -0.61901  -0.59139  -0.58436  -0.56337  -0.55680
 Alpha  occ. eigenvalues --   -0.54955  -0.53212  -0.53027  -0.50623  -0.49710
 Alpha  occ. eigenvalues --   -0.44278  -0.41343  -0.39622  -0.38576
 Alpha virt. eigenvalues --    0.02342   0.03692   0.04191   0.04608   0.05772
 Alpha virt. eigenvalues --    0.05921   0.06160   0.06958   0.07702   0.08237
 Alpha virt. eigenvalues --    0.08621   0.09246   0.11237   0.11626   0.12701

 Mulliken atomic charges:
              1
     1  H   -0.047189
     2  C    0.325304
     3  H   -0.027109
     4  H    0.073771
     5  C    0.765773
     6  O   -0.818298
     7  N   -0.468886
     8  H   -0.053189
     9  C   -0.302907
    10  H   -0.210798
    11  C    0.719780
    12  H    0.021284
    13  H   -0.088676
    14  H   -0.021949
    15  C    1.178147
    16  O   -0.826508
    17  N   -0.463343
    18  H   -0.120238
    19  C    0.733934
    20  H   -0.134528
    21  H   -0.144009
    22  H   -0.090364
 Sum of Mulliken atomic charges =   0.00000

 Dipole moment (field-independent basis, Debye):
    X=              2.9336    Y=              1.3267    Z=             -4.7302  Tot=              5.7220
 Quadrupole moment (field-independent basis, Debye-Ang):
   XX=            -51.8889   YY=            -60.9852   ZZ=            -63.2185
   XY=              5.9340   XZ=              5.0029   YZ=              1.0035

 Normal termination of Gaussian 09 at Tue Feb 14 01:54:47 2017.
