 Gaussian 09, Revision A.02,
 Gaussian 09:  EM64L-G09RevA.02 11-Jun-2009

 -------------------
 #SP MP2/aug-cc-pVDZ
 -------------------

 -------------------------------
 Single Point calculation at MP2
 -------------------------------
 Symbolic Z-matrix:
 Charge =  0 Multiplicity = 1

                         Standard orientation:
 ---------------------------------------------------------------------
 Center     Atomic      Atomic             Coordinates (Angstroms)
 Number     Number       Type             X           Y           Z
 ---------------------------------------------------------------------
      1          1           0       -3.688611   -1.075188    0.981997
      2          6           0       -3.088511   -1.033790    0.070997
      3          1           0       -3.692910   -0.634588   -0.750103
      4          1           0       -2.787414   -2.056391   -0.187103
      5          6           0       -1.841708   -0.206694    0.337997
      6          8           0       -1.335808   -0.117396    1.449197
      7          7           0       -1.325306    0.441504   -0.763003
      8          1           0       -1.606907    0.062105   -1.657503
      9          6           0        0.038995    0.969800   -0.723603
     10          1           0        0.254196    1.293599   -1.750003
     11          6           0        0.158999    2.198199    0.187897
     12          1           0        0.025399    1.924300    1.236097
     13          1           0        1.127901    2.692696    0.049597
     14          1           0       -0.617498    2.922002   -0.077203
     15          6           0        1.031292   -0.196303   -0.467003
     16          8           0        0.815588   -1.300003   -0.953303
     17          7           0        2.177193    0.111793    0.203797
     18          1           0        2.193095    0.960293    0.750097
     19          6           0        3.160189   -0.912410    0.522297
     20          1           0        3.145487   -1.656410   -0.275003
     21          1           0        4.154891   -0.461213    0.584397
     22          1           0        2.935388   -1.417910    1.470497
 ---------------------------------------------------------------------

 SCF Done:  E(RHF) =  -492.922275572     A.U. after   15 cycles
 E2 =    -0.1601851106D+01 EUMP2 =    -0.49452412667864D+03

 The electronic state is 1-A.
 Alpha  occ. eigenvalues --  -20.53239 -20.52801 -15.59367 -15.59174 -11.36036
 Alpha  occ. eigenvalues --  -11.35766 -11.29618 -11.26511 -11.24232 -11.23626
 Alpha  occ. eigenvalues --   -1.38987  -1.37821  -1.23498  -1.23029  -1.05324
 Alpha  occ. eigenvalues --   -0.98970  -0.95034  -0.88541  -0.79881  -0.76826
 Alpha  occ. eigenvalues --   -0.71454  -0.69968  -0.65076  -0.63879  -0.61539
 Alpha  occ. eigenvalues --   -0.61329  -0.59667  -0.58355  -0.56318  -0.55753
 Alpha  occ. eigenvalues --   -0.54827  -0.54333  -0.52817  -0.50974  -0.49942
 Alpha  occ. eigenvalues --   -0.42802  -0.42252  -0.40017  -0.39107
 Alpha virt. eigenvalues --    0.03017   0.03738   0.04400   0.04676   0.05916
 Alpha virt. eigenvalues --    0.06092   0.06234   0.06790   0.07635   0.07819
 Alpha virt. eigenvalues --    0.09075   0.09574   0.10871   0.11733   0.12905

 Mulliken atomic charges:
              1
     1  H   -0.015258
     2  C    0.355095
     3  H   -0.039351
     4  H    0.071556
     5  C    0.674107
     6  O   -0.850723
     7  N   -0.418217
     8  H   -0.052123
     9  C   -0.050946
    10  H   -0.113932
    11  C    0.770285
    12  H    0.035218
    13  H    0.006469
    14  H   -0.143190
    15  C    0.874314
    16  O   -0.883169
    17  N   -0.464798
    18  H   -0.121162
    19  C    0.730746
    20  H   -0.123540
    21  H   -0.178069
    22  H   -0.063311
 Sum of Mulliken atomic charges =   0.00000

 Dipole moment (field-independent basis, Debye):
    X=              0.4066    Y=              2.4558    Z=             -1.4692  Tot=              2.8904
 Quadrupole moment (field-independent basis, Debye-Ang):
   XX=            -49.5747   YY=            -61.9199   ZZ=            -64.3307
   XY=              4.5049   XZ=              8.0679   YZ=             -2.2078

 Normal termination of Gaussian 09 at Tue Feb 14 02:28:32 2017.
