 Gaussian 09, Revision A.02,
 Gaussian 09:  EM64L-G09RevA.02 11-Jun-2009

 -------------------
 #SP MP2/aug-cc-pVDZ
 -------------------

 -------------------------------
 Single Point calculation at MP2
 -------------------------------
 Symbolic Z-matrix:
 Charge =  0 Multiplicity = 1

                         Standard orientation:
 ---------------------------------------------------------------------
 Center     Atomic      Atomic             Coordinates (Angstroms)
 Number     Number       Type             X           Y           Z
 ---------------------------------------------------------------------
      1          1           0       -3.886293   -0.856547    0.159104
      2          6           0       -3.134194   -0.760637   -0.628996
      3          1           0       -3.492604   -0.050942   -1.380696
      4          1           0       -3.023280   -1.745235   -1.095196
      5          6           0       -1.810800   -0.370718    0.011404
      6          8           0       -1.359091   -1.016212    0.960904
      7          7           0       -1.205515    0.728591   -0.515096
      8          1           0       -1.623721    1.108385   -1.352396
      9          6           0        0.121977    1.280809   -0.172096
     10          1           0        0.289565    2.086712   -0.888296
     11          6           0        0.130269    1.864710    1.250804
     12          1           0       -0.083021    1.091307    1.992204
     13          1           0        1.111462    2.299623    1.467304
     14          1           0       -0.626743    2.650999    1.340704
     15          6           0        1.339690    0.344227   -0.398296
     16          8           0        2.255585    0.730840   -1.120896
     17          7           0        1.347507   -0.823673    0.288804
     18          1           0        0.496110   -1.082385    0.785204
     19          6           0        2.436920   -1.776058    0.172804
     20          1           0        3.267213   -1.280846   -0.332296
     21          1           0        2.760125   -2.108553    1.165504
     22          1           0        2.142132   -2.657962   -0.410896
 ---------------------------------------------------------------------

 SCF Done:  E(RHF) =  -492.922647042     A.U. after   14 cycles
 E2 =    -0.1604297298D+01 EUMP2 =    -0.49452694434012D+03

 The electronic state is 1-A.
 Alpha  occ. eigenvalues --  -20.54733 -20.52137 -15.61705 -15.57482 -11.38298
 Alpha  occ. eigenvalues --  -11.35105 -11.29911 -11.26041 -11.25558 -11.23578
 Alpha  occ. eigenvalues --   -1.40127  -1.37300  -1.25381  -1.21765  -1.06128
 Alpha  occ. eigenvalues --   -1.00224  -0.94648  -0.88742  -0.81190  -0.76722
 Alpha  occ. eigenvalues --   -0.72372  -0.70806  -0.65169  -0.63352  -0.62539
 Alpha  occ. eigenvalues --   -0.61229  -0.60429  -0.58602  -0.57769  -0.56752
 Alpha  occ. eigenvalues --   -0.54402  -0.53999  -0.52387  -0.51567  -0.50567
 Alpha  occ. eigenvalues --   -0.44594  -0.43558  -0.39425  -0.37643
 Alpha virt. eigenvalues --    0.02496   0.04005   0.04332   0.04536   0.05647
 Alpha virt. eigenvalues --    0.06160   0.06531   0.06763   0.07493   0.08137
 Alpha virt. eigenvalues --    0.08912   0.10025   0.10847   0.11604   0.12180

 Mulliken atomic charges:
              1
     1  H    0.038091
     2  C    0.434369
     3  H   -0.137756
     4  H    0.051380
     5  C    0.610971
     6  O   -0.913461
     7  N   -0.168260
     8  H   -0.114878
     9  C   -0.160362
    10  H   -0.197576
    11  C    0.787910
    12  H   -0.083802
    13  H   -0.054925
    14  H   -0.094775
    15  C    1.016045
    16  O   -0.862258
    17  N   -0.502779
    18  H   -0.018031
    19  C    0.737168
    20  H   -0.158583
    21  H   -0.115327
    22  H   -0.093162
 Sum of Mulliken atomic charges =   0.00000

 Dipole moment (field-independent basis, Debye):
    X=             -4.0633    Y=              0.3761    Z=             -0.6077  Tot=              4.1257
 Quadrupole moment (field-independent basis, Debye-Ang):
   XX=            -61.4867   YY=            -58.7973   ZZ=            -63.8322
   XY=             -6.7973   XZ=             11.4942   YZ=              2.7821

 Normal termination of Gaussian 09 at Tue Feb 14 02:25:40 2017.
