 Gaussian 09, Revision A.02,
 Gaussian 09:  EM64L-G09RevA.02 11-Jun-2009

 -------------------
 #SP MP2/aug-cc-pVDZ
 -------------------

 -------------------------------
 Single Point calculation at MP2
 -------------------------------
 Symbolic Z-matrix:
 Charge =  0 Multiplicity = 1

                         Standard orientation:
 ---------------------------------------------------------------------
 Center     Atomic      Atomic             Coordinates (Angstroms)
 Number     Number       Type             X           Y           Z
 ---------------------------------------------------------------------
      1          1           0        3.639008   -1.202973   -0.834799
      2          6           0        3.023807   -1.119878    0.064401
      3          1           0        3.604904   -0.640973    0.858601
      4          1           0        2.764015   -2.135580    0.384101
      5          6           0        1.747102   -0.371088   -0.283799
      6          8           0        1.139803   -0.568492   -1.331999
      7          7           0        1.323095    0.540009    0.648401
      8          1           0        1.718995    0.470212    1.575401
      9          6           0       -0.004210    1.161799    0.550901
     10          1           0       -0.141314    1.699598    1.494601
     11          6           0       -0.077718    2.176898   -0.595399
     12          1           0        0.133086    1.707300   -1.559199
     13          1           0       -1.066122    2.647190   -0.627799
     14          1           0        0.669276    2.961004   -0.436199
     15          6           0       -1.090302    0.056090    0.601701
     16          8           0       -1.197996   -0.630511    1.611501
     17          7           0       -1.920701   -0.049916   -0.472899
     18          1           0       -1.568404    0.313687   -1.347699
     19          6           0       -2.882492   -1.139324   -0.551399
     20          1           0       -3.315791   -1.289627    0.438401
     21          1           0       -3.672595   -0.875530   -1.259999
     22          1           0       -2.413385   -2.079920   -0.868399
 ---------------------------------------------------------------------

 SCF Done:  E(RHF) =  -492.922578590     A.U. after   15 cycles
 E2 =    -0.1602480392D+01 EUMP2 =    -0.49452505898185D+03

 The electronic state is 1-A.
 Alpha  occ. eigenvalues --  -20.53682 -20.52738 -15.60094 -15.58699 -11.36783
 Alpha  occ. eigenvalues --  -11.35467 -11.29608 -11.26045 -11.24941 -11.23574
 Alpha  occ. eigenvalues --   -1.39232  -1.37856  -1.24070  -1.22565  -1.05540
 Alpha  occ. eigenvalues --   -0.99431  -0.94682  -0.88717  -0.80225  -0.76743
 Alpha  occ. eigenvalues --   -0.71619  -0.70130  -0.65018  -0.64142  -0.61945
 Alpha  occ. eigenvalues --   -0.61288  -0.59656  -0.58184  -0.56775  -0.55880
 Alpha  occ. eigenvalues --   -0.54547  -0.54331  -0.52567  -0.51346  -0.50435
 Alpha  occ. eigenvalues --   -0.43231  -0.42859  -0.40120  -0.38431
 Alpha virt. eigenvalues --    0.03062   0.03839   0.04249   0.04774   0.05868
 Alpha virt. eigenvalues --    0.06022   0.06421   0.06766   0.07510   0.07961
 Alpha virt. eigenvalues --    0.08919   0.09984   0.10875   0.11689   0.13217

 Mulliken atomic charges:
              1
     1  H    0.015115
     2  C    0.391700
     3  H   -0.090359
     4  H    0.062111
     5  C    0.613844
     6  O   -0.841503
     7  N   -0.387311
     8  H   -0.084422
     9  C   -0.125259
    10  H   -0.144395
    11  C    0.876313
    12  H    0.022113
    13  H   -0.012758
    14  H   -0.120640
    15  C    0.958032
    16  O   -0.918462
    17  N   -0.568712
    18  H   -0.039280
    19  C    0.748347
    20  H   -0.119207
    21  H   -0.180644
    22  H   -0.054622
 Sum of Mulliken atomic charges =   0.00000

 Dipole moment (field-independent basis, Debye):
    X=              1.4717    Y=              1.9639    Z=             -0.1615  Tot=              2.4594
 Quadrupole moment (field-independent basis, Debye-Ang):
   XX=            -52.4004   YY=            -59.3367   ZZ=            -66.6452
   XY=             -1.4968   XZ=             10.0927   YZ=              1.9377

 Normal termination of Gaussian 09 at Tue Feb 14 02:28:03 2017.
