 Gaussian 09, Revision A.02,
 Gaussian 09:  EM64L-G09RevA.02 11-Jun-2009

 -------------------
 #SP MP2/aug-cc-pVDZ
 -------------------

 -------------------------------
 Single Point calculation at MP2
 -------------------------------
 Symbolic Z-matrix:
 Charge =  0 Multiplicity = 1

                         Standard orientation:
 ---------------------------------------------------------------------
 Center     Atomic      Atomic             Coordinates (Angstroms)
 Number     Number       Type             X           Y           Z
 ---------------------------------------------------------------------
      1          1           0       -3.101874   -1.737736   -0.997499
      2          6           0       -3.172084   -0.727037   -0.582199
      3          1           0       -3.918084   -0.755044    0.217101
      4          1           0       -3.513891   -0.044440   -1.365999
      5          6           0       -1.828488   -0.353224    0.025201
      6          8           0       -1.384982   -0.972420    0.996501
      7          7           0       -1.191598    0.695882   -0.560199
      8          1           0       -1.616501    1.060978   -1.400599
      9          6           0        0.135497    1.257495   -0.235699
     10          1           0        0.317990    2.020897   -0.994099
     11          6           0        0.129291    1.926795    1.151101
     12          1           0       -0.092802    1.194393    1.931401
     13          1           0        1.109986    2.370604    1.348701
     14          1           0       -0.627817    2.716988    1.188501
     15          6           0        1.369006    0.325507   -0.360299
     16          8           0        2.390702    0.777316   -0.873099
     17          7           0        1.271418   -0.923394    0.148501
     18          1           0        0.419520   -1.173002    0.648501
     19          6           0        2.414626   -1.819383    0.149501
     20          1           0        2.957825   -1.717778   -0.792899
     21          1           0        3.112424   -1.595177    0.967101
     22          1           0        2.061636   -2.848187    0.258801
 ---------------------------------------------------------------------

 SCF Done:  E(RHF) =  -492.923304658     A.U. after   14 cycles
 E2 =    -0.1604166342D+01 EUMP2 =    -0.49452747099998D+03

 The electronic state is 1-A.
 Alpha  occ. eigenvalues --  -20.54722 -20.52079 -15.61729 -15.57502 -11.38334
 Alpha  occ. eigenvalues --  -11.35006 -11.29972 -11.26082 -11.25697 -11.23541
 Alpha  occ. eigenvalues --   -1.40134  -1.37307  -1.25432  -1.21747  -1.06153
 Alpha  occ. eigenvalues --   -1.00233  -0.94722  -0.88686  -0.81248  -0.76873
 Alpha  occ. eigenvalues --   -0.72496  -0.70819  -0.65123  -0.63281  -0.62380
 Alpha  occ. eigenvalues --   -0.61198  -0.60439  -0.58980  -0.57847  -0.56585
 Alpha  occ. eigenvalues --   -0.54554  -0.54198  -0.52352  -0.51765  -0.49872
 Alpha  occ. eigenvalues --   -0.44504  -0.43512  -0.39503  -0.37786
 Alpha virt. eigenvalues --    0.02432   0.03982   0.04367   0.04479   0.05781
 Alpha virt. eigenvalues --    0.06170   0.06498   0.06851   0.07425   0.07940
 Alpha virt. eigenvalues --    0.08860   0.09956   0.10979   0.11781   0.12168

 Mulliken atomic charges:
              1
     1  H    0.051881
     2  C    0.428865
     3  H    0.041272
     4  H   -0.138900
     5  C    0.614242
     6  O   -0.914123
     7  N   -0.146091
     8  H   -0.121002
     9  C   -0.235994
    10  H   -0.155259
    11  C    0.749219
    12  H   -0.057945
    13  H   -0.067255
    14  H   -0.089393
    15  C    1.017417
    16  O   -0.889247
    17  N   -0.473030
    18  H   -0.031684
    19  C    0.753718
    20  H   -0.101943
    21  H   -0.051214
    22  H   -0.183534
 Sum of Mulliken atomic charges =   0.00000

 Dipole moment (field-independent basis, Debye):
    X=             -4.3306    Y=              0.2075    Z=             -1.1060  Tot=              4.4744
 Quadrupole moment (field-independent basis, Debye-Ang):
   XX=            -63.0225   YY=            -58.5792   ZZ=            -62.6749
   XY=             -7.4329   XZ=             10.6092   YZ=              2.2371

 Normal termination of Gaussian 09 at Tue Feb 14 02:24:55 2017.
