 Gaussian 09, Revision A.02,
 Gaussian 09:  EM64L-G09RevA.02 11-Jun-2009

 -------------------
 #SP MP2/aug-cc-pVDZ
 -------------------

 -------------------------------
 Single Point calculation at MP2
 -------------------------------
 Symbolic Z-matrix:
 Charge =  0 Multiplicity = 1

                         Standard orientation:
 ---------------------------------------------------------------------
 Center     Atomic      Atomic             Coordinates (Angstroms)
 Number     Number       Type             X           Y           Z
 ---------------------------------------------------------------------
      1          1           0        3.742999   -1.174837   -0.281205
      2          6           0        3.027701   -0.994030    0.525695
      3          1           0        3.488107   -0.341834    1.273995
      4          1           0        2.805192   -1.961328    0.988895
      5          6           0        1.749406   -0.431218   -0.075305
      6          8           0        1.214101   -0.963313   -1.048205
      7          7           0        1.265317    0.699687    0.516695
      8          1           0        1.682220    0.972283    1.395495
      9          6           0       -0.047777    1.296299    0.205795
     10          1           0       -0.188970    2.078301    0.955595
     11          6           0       -0.067571    1.935599   -1.188205
     12          1           0        0.147222    1.205397   -1.970705
     13          1           0       -1.048067    2.381209   -1.384205
     14          1           0        0.690036    2.724692   -1.242505
     15          6           0       -1.211787    0.312710    0.499195
     16          8           0       -1.779586    0.348316    1.586395
     17          7           0       -1.591695   -0.500286   -0.525705
     18          1           0       -0.858997   -0.712393   -1.197005
     19          6           0       -2.615204   -1.511076   -0.305605
     20          1           0       -3.442500   -1.062169    0.246795
     21          1           0       -2.976008   -1.870273   -1.273105
     22          1           0       -2.241312   -2.364580    0.276095
 ---------------------------------------------------------------------

 SCF Done:  E(RHF) =  -492.922744934     A.U. after   14 cycles
 E2 =    -0.1603454603D+01 EUMP2 =    -0.49452619953626D+03

 The electronic state is 1-A.
 Alpha  occ. eigenvalues --  -20.54408 -20.52827 -15.61211 -15.57769 -11.37787
 Alpha  occ. eigenvalues --  -11.35191 -11.29743 -11.25692 -11.25681 -11.23504
 Alpha  occ. eigenvalues --   -1.39816  -1.37784  -1.24936  -1.21962  -1.05888
 Alpha  occ. eigenvalues --   -0.99963  -0.94435  -0.88758  -0.80896  -0.76318
 Alpha  occ. eigenvalues --   -0.71950  -0.70545  -0.65195  -0.63855  -0.62491
 Alpha  occ. eigenvalues --   -0.61459  -0.60114  -0.58063  -0.57382  -0.56294
 Alpha  occ. eigenvalues --   -0.54484  -0.53802  -0.52248  -0.51385  -0.51129
 Alpha  occ. eigenvalues --   -0.44240  -0.43540  -0.39873  -0.38046
 Alpha virt. eigenvalues --    0.02761   0.04000   0.04211   0.04739   0.05708
 Alpha virt. eigenvalues --    0.06084   0.06451   0.06705   0.07480   0.08259
 Alpha virt. eigenvalues --    0.08852   0.10158   0.11225   0.11535   0.12239

 Mulliken atomic charges:
              1
     1  H    0.032023
     2  C    0.422475
     3  H   -0.123936
     4  H    0.053062
     5  C    0.613813
     6  O   -0.858440
     7  N   -0.382426
     8  H   -0.092301
     9  C    0.026573
    10  H   -0.210889
    11  C    0.811147
    12  H   -0.081566
    13  H   -0.019072
    14  H   -0.064107
    15  C    0.915916
    16  O   -0.875457
    17  N   -0.612079
    18  H    0.031826
    19  C    0.779974
    20  H   -0.120940
    21  H   -0.182268
    22  H   -0.063326
 Sum of Mulliken atomic charges =   0.00000

 Dipole moment (field-independent basis, Debye):
    X=              3.1448    Y=              0.8103    Z=             -0.2220  Tot=              3.2551
 Quadrupole moment (field-independent basis, Debye-Ang):
   XX=            -57.1896   YY=            -58.0185   ZZ=            -66.8283
   XY=              3.4026   XZ=             11.6070   YZ=             -1.7272

 Normal termination of Gaussian 09 at Tue Feb 14 02:26:23 2017.
