 Gaussian 09, Revision A.02,
 Gaussian 09:  EM64L-G09RevA.02 11-Jun-2009

 -------------------
 #SP MP2/aug-cc-pVDZ
 -------------------

 ------------------
 Phi Psi fixed scan
 ------------------
 Symbolic Z-matrix:
 Charge =  0 Multiplicity = 1

                         Standard orientation:
 ---------------------------------------------------------------------
 Center     Atomic      Atomic             Coordinates (Angstroms)
 Number     Number       Type             X           Y           Z
 ---------------------------------------------------------------------
      1          1           0       -5.750798   -2.518012   -0.833899
      2          6           0       -5.467399   -1.502212   -1.127099
      3          1           0       -6.390600   -0.923513   -1.229399
      4          1           0       -4.959199   -1.540712   -2.095499
      5          6           0       -4.624300   -0.888111   -0.019199
      6          8           0       -5.050500   -0.749712    1.124401
      7          7           0       -3.364300   -0.514510   -0.379199
      8          1           0       -3.056700   -0.520610   -1.344899
      9          6           0       -2.476901    0.166491    0.542301
     10          1           0       -3.068501    0.892390    1.116701
     11          6           0       -1.809700   -0.807009    1.535001
     12          1           0       -1.146999   -1.507608    1.017501
     13          1           0       -1.220600   -0.270008    2.288001
     14          1           0       -2.593899   -1.363009    2.054301
     15          6           0       -1.439601    0.914792   -0.310999
     16          8           0       -1.350301    0.746692   -1.523899
     17          7           0       -0.614702    1.758492    0.376201
     18          1           0       -0.769602    1.891092    1.367001
     19          6           0        0.403797    2.575893   -0.277399
     20          1           0        0.064897    2.729293   -1.306999
     21          6           0        0.546596    3.931093    0.421901
     22          1           0        0.822796    3.805494    1.476901
     23          1           0        1.337295    4.504094   -0.066399
     24          1           0       -0.391105    4.492993    0.371401
     25          6           0        1.786498    1.898494   -0.411199
     26          8           0        2.714397    2.501695   -0.945199
     27          7           0        1.897399    0.643895    0.084201
     28          1           0        1.089699    0.145894    0.439001
     29          6           0        3.093699   -0.154904   -0.094499
     30          1           0        3.487099    0.035596   -1.101399
     31          6           0        4.185099    0.203397    0.932901
     32          1           0        3.829199    0.013296    1.950801
     33          1           0        5.096200   -0.382903    0.768401
     34          1           0        4.431198    1.263297    0.831401
     35          6           0        2.665001   -1.627005    0.032801
     36          8           0        1.597901   -1.941006    0.556801
     37          7           0        3.561802   -2.529804   -0.442599
     38          1           0        4.395601   -2.184203   -0.896499
     39          6           0        3.351003   -3.966804   -0.376599
     40          1           0        2.410603   -4.135705    0.148901
     41          1           0        3.283403   -4.402204   -1.380199
     42          1           0        4.163903   -4.457503    0.170301
 ---------------------------------------------------------------------

 SCF Done:  E(RHF) =  -984.699590159     A.U. after   15 cycles
 E2 =    -0.3194460353D+01 EUMP2 =    -0.98789405051233D+03

 The electronic state is 1-A.
 Alpha  occ. eigenvalues --  -20.55154 -20.54867 -20.53137 -20.52256 -15.61231
 Alpha  occ. eigenvalues --  -15.61161 -15.59403 -15.58724 -11.37720 -11.37669
 Alpha  occ. eigenvalues --  -11.36148 -11.35666 -11.30032 -11.29823 -11.29495
 Alpha  occ. eigenvalues --  -11.28014 -11.24337 -11.24256 -11.24098 -11.23194
 Alpha  occ. eigenvalues --   -1.40662  -1.40335  -1.38478  -1.37605  -1.26056
 Alpha  occ. eigenvalues --   -1.24974  -1.23761  -1.23376  -1.07356  -1.05080
 Alpha  occ. eigenvalues --   -1.02997  -0.98391  -0.96854  -0.91840  -0.89869
 Alpha  occ. eigenvalues --   -0.86996  -0.81826  -0.80899  -0.78940  -0.78258
 Alpha  occ. eigenvalues --   -0.75443  -0.71841  -0.69118  -0.68114  -0.67494
 Alpha  occ. eigenvalues --   -0.65688  -0.64943  -0.64615  -0.63436  -0.62821
 Alpha  occ. eigenvalues --   -0.61761  -0.60792  -0.60433  -0.59103  -0.58460
 Alpha  occ. eigenvalues --   -0.57998  -0.56604  -0.56447  -0.56173  -0.55738
 Alpha  occ. eigenvalues --   -0.55386  -0.54503  -0.53993  -0.53505  -0.52809
 Alpha  occ. eigenvalues --   -0.52246  -0.52032  -0.49615  -0.49166  -0.45302
 Alpha  occ. eigenvalues --   -0.44254  -0.43832  -0.41868  -0.41233  -0.40141
 Alpha  occ. eigenvalues --   -0.39317  -0.38581
 Alpha virt. eigenvalues --    0.02535   0.03170   0.03750   0.04125   0.04384
 Alpha virt. eigenvalues --    0.04767   0.05182   0.05761   0.06007   0.06392
 Alpha virt. eigenvalues --    0.06538   0.06967   0.07420   0.07533   0.08186

 Mulliken atomic charges:
              1
     1  H    0.044636
     2  C    0.407135
     3  H    0.042452
     4  H   -0.166349
     5  C    0.430901
     6  O   -0.872909
     7  N   -0.171325
     8  H   -0.106810
     9  C    0.059838
    10  H   -0.171148
    11  C    0.883427
    12  H    0.005452
    13  H   -0.140644
    14  H   -0.144586
    15  C    0.882674
    16  O   -0.898505
    17  N   -0.222808
    18  H   -0.068114
    19  C   -0.505691
    20  H   -0.005477
    21  C    0.977939
    22  H   -0.065792
    23  H   -0.049642
    24  H   -0.069980
    25  C    0.770868
    26  O   -0.912459
    27  N   -0.037885
    28  H   -0.004871
    29  C   -0.568876
    30  H   -0.201689
    31  C    0.924461
    32  H   -0.035306
    33  H   -0.114157
    34  H   -0.049273
    35  C    1.221139
    36  O   -0.868124
    37  N   -0.466434
    38  H   -0.120049
    39  C    0.736968
    40  H   -0.145483
    41  H   -0.085541
    42  H   -0.117963
 Sum of Mulliken atomic charges =   0.00000

 Dipole moment (field-independent basis, Debye):
    X=              3.8008    Y=             -1.7145    Z=              0.0083  Tot=              4.1696
 Quadrupole moment (field-independent basis, Debye-Ang):
   XX=           -122.5758   YY=           -114.4290   ZZ=           -126.0233
   XY=            -18.7846   XZ=             13.1607   YZ=             14.6434

 Normal termination of Gaussian 09 at Wed Jan 18 06:40:50 2017.
