 Gaussian 09, Revision A.02,
 Gaussian 09:  EM64L-G09RevA.02 11-Jun-2009

 -------------------
 #SP MP2/aug-cc-pVDZ
 -------------------

 ------------------
 Phi Psi fixed scan
 ------------------
 Symbolic Z-matrix:
 Charge =  0 Multiplicity = 1

                         Standard orientation:
 ---------------------------------------------------------------------
 Center     Atomic      Atomic             Coordinates (Angstroms)
 Number     Number       Type             X           Y           Z
 ---------------------------------------------------------------------
      1          1           0        7.378806   -1.131902    1.044398
      2          6           0        6.787807   -0.211701    1.088698
      3          1           0        7.464808    0.620498    0.872098
      4          1           0        6.388707   -0.093401    2.100898
      5          6           0        5.715207   -0.264301    0.009798
      6          8           0        5.994407   -0.384201   -1.180202
      7          7           0        4.431807   -0.169500    0.454598
      8          1           0        4.206807   -0.039600    1.433398
      9          6           0        3.296307   -0.170599   -0.448302
     10          1           0        3.570007    0.406901   -1.339002
     11          6           0        2.898106   -1.596599   -0.882302
     12          1           0        2.675006   -2.206899   -0.001202
     13          1           0        2.008906   -1.587099   -1.520802
     14          1           0        3.732706   -2.044900   -1.427502
     15          6           0        2.133407    0.506201    0.284998
     16          8           0        2.073007    0.528401    1.510798
     17          7           0        1.195108    1.090702   -0.524902
     18          1           0        1.220508    0.802402   -1.496502
     19          6           0       -0.136092    1.382203   -0.017602
     20          1           0       -0.023992    1.512803    1.063198
     21          6           0       -0.682491    2.673603   -0.646302
     22          1           0       -0.798891    2.564903   -1.731102
     23          1           0       -1.658691    2.945204   -0.232902
     24          1           0        0.011009    3.497703   -0.456602
     25          6           0       -1.056393    0.161503   -0.269202
     26          8           0       -0.654093   -0.844097   -0.851502
     27          7           0       -2.334993    0.299304    0.157898
     28          1           0       -2.671892    1.136204    0.621698
     29          6           0       -3.340493   -0.729595   -0.033602
     30          1           0       -3.247494   -1.113996   -1.056902
     31          6           0       -3.168494   -1.902396    0.951598
     32          1           0       -3.275694   -1.553396    1.983798
     33          1           0       -3.912394   -2.686595    0.771198
     34          1           0       -2.172594   -2.332696    0.821598
     35          6           0       -4.704893   -0.041495    0.148198
     36          8           0       -4.797892    1.049705    0.706798
     37          7           0       -5.770493   -0.738594   -0.324102
     38          1           0       -5.601094   -1.619894   -0.788202
     39          6           0       -7.142393   -0.275193   -0.191802
     40          1           0       -7.114592    0.689307    0.316198
     41          1           0       -7.610193   -0.150193   -1.174802
     42          1           0       -7.740693   -0.976993    0.400398
 ---------------------------------------------------------------------

 SCF Done:  E(RHF) =  -984.699463558     A.U. after   14 cycles
 E2 =    -0.3191380702D+01 EUMP2 =    -0.98789084425979D+03

 The electronic state is 1-A.
 Alpha  occ. eigenvalues --  -20.55189 -20.54422 -20.54256 -20.51774 -15.61499
 Alpha  occ. eigenvalues --  -15.59975 -15.59835 -15.58379 -11.37986 -11.36914
 Alpha  occ. eigenvalues --  -11.36739 -11.35280 -11.30488 -11.29781 -11.28606
 Alpha  occ. eigenvalues --  -11.28299 -11.24817 -11.24442 -11.23814 -11.22350
 Alpha  occ. eigenvalues --   -1.40765  -1.40014  -1.39145  -1.37132  -1.25309
 Alpha  occ. eigenvalues --   -1.24828  -1.24608  -1.22922  -1.07577  -1.04977
 Alpha  occ. eigenvalues --   -1.02456  -0.97973  -0.97106  -0.91844  -0.89906
 Alpha  occ. eigenvalues --   -0.86654  -0.81643  -0.80041  -0.79421  -0.77847
 Alpha  occ. eigenvalues --   -0.75827  -0.71380  -0.68617  -0.68198  -0.67412
 Alpha  occ. eigenvalues --   -0.65430  -0.64974  -0.64575  -0.63443  -0.62035
 Alpha  occ. eigenvalues --   -0.61540  -0.60944  -0.60496  -0.59868  -0.58803
 Alpha  occ. eigenvalues --   -0.57717  -0.56843  -0.56394  -0.56080  -0.55506
 Alpha  occ. eigenvalues --   -0.55456  -0.54618  -0.53925  -0.53603  -0.52471
 Alpha  occ. eigenvalues --   -0.52149  -0.51457  -0.50468  -0.48712  -0.44658
 Alpha  occ. eigenvalues --   -0.43890  -0.43392  -0.41582  -0.41444  -0.40606
 Alpha  occ. eigenvalues --   -0.39835  -0.38259
 Alpha virt. eigenvalues --    0.02307   0.03533   0.03834   0.03964   0.04314
 Alpha virt. eigenvalues --    0.04975   0.05052   0.05913   0.06058   0.06262
 Alpha virt. eigenvalues --    0.06360   0.06642   0.07372   0.07615   0.07852

 Mulliken atomic charges:
              1
     1  H    0.040988
     2  C    0.378067
     3  H    0.044247
     4  H   -0.164843
     5  C    0.492556
     6  O   -0.877057
     7  N   -0.092993
     8  H   -0.103616
     9  C   -0.286703
    10  H   -0.219941
    11  C    0.888945
    12  H   -0.030793
    13  H   -0.056079
    14  H   -0.093683
    15  C    0.964580
    16  O   -0.936527
    17  N   -0.333056
    18  H   -0.022948
    19  C   -0.100329
    20  H   -0.119006
    21  C    0.884163
    22  H   -0.039746
    23  H   -0.114169
    24  H   -0.080643
    25  C    0.788035
    26  O   -0.835869
    27  N   -0.266188
    28  H   -0.077397
    29  C   -0.306099
    30  H   -0.185411
    31  C    0.898653
    32  H   -0.041996
    33  H   -0.097771
    34  H   -0.055045
    35  C    1.266316
    36  O   -0.905924
    37  N   -0.465694
    38  H   -0.122409
    39  C    0.709053
    40  H   -0.142907
    41  H   -0.087357
    42  H   -0.093404
 Sum of Mulliken atomic charges =   0.00000

 Dipole moment (field-independent basis, Debye):
    X=             -6.2934    Y=             -0.7673    Z=              0.0006  Tot=              6.3400
 Quadrupole moment (field-independent basis, Debye-Ang):
   XX=           -112.7141   YY=           -118.5751   ZZ=           -126.4544
   XY=             16.0151   XZ=             22.9632   YZ=             -4.6277

 Normal termination of Gaussian 09 at Wed Jan 18 08:30:34 2017.
