 Gaussian 09, Revision A.02,
 Gaussian 09:  EM64L-G09RevA.02 11-Jun-2009

 -------------------
 #SP MP2/aug-cc-pVDZ
 -------------------

 ------------------
 Phi Psi fixed scan
 ------------------
 Symbolic Z-matrix:
 Charge =  0 Multiplicity = 1

                         Standard orientation:
 ---------------------------------------------------------------------
 Center     Atomic      Atomic             Coordinates (Angstroms)
 Number     Number       Type             X           Y           Z
 ---------------------------------------------------------------------
      1          1           0        7.551800    0.623785    0.076288
      2          6           0        6.911898   -0.139613    0.529488
      3          1           0        6.667399    0.160487    1.553088
      4          1           0        7.487196   -1.070415    0.559588
      5          6           0        5.690998   -0.344511   -0.356412
      6          8           0        5.790697   -0.659111   -1.539612
      7          7           0        4.487698   -0.156808    0.252088
      8          1           0        4.409699    0.138892    1.217588
      9          6           0        3.231198   -0.277805   -0.462412
     10          1           0        3.372099    0.139595   -1.466612
     11          6           0        2.775195   -1.745304   -0.592812
     12          1           0        2.660494   -2.192604    0.399088
     13          1           0        1.812195   -1.821202   -1.107912
     14          1           0        3.530694   -2.299206   -1.156112
     15          6           0        2.190700    0.539697    0.310788
     16          8           0        2.320300    0.777297    1.506988
     17          7           0        1.138301    0.999599   -0.437012
     18          1           0        1.047200    0.600800   -1.364012
     19          6           0       -0.105598    1.404602    0.203888
     20          1           0        0.176102    1.656102    1.232488
     21          6           0       -0.695595    2.644803   -0.478612
     22          1           0       -1.032796    2.429104   -1.499412
     23          1           0       -1.544395    3.050005    0.082988
     24          1           0        0.066806    3.426902   -0.529912
     25          6           0       -1.043001    0.172204    0.299188
     26          8           0       -0.584403   -0.963297    0.401488
     27          7           0       -2.376000    0.418307    0.260588
     28          1           0       -2.765098    1.340208    0.100088
     29          6           0       -3.359203   -0.646291    0.343088
     30          1           0       -3.020505   -1.476291   -0.289812
     31          6           0       -3.530904   -1.165990    1.783788
     32          1           0       -3.884302   -0.364189    2.440188
     33          1           0       -4.250106   -1.991889    1.826488
     34          1           0       -2.566405   -1.528192    2.147888
     35          6           0       -4.674601   -0.068788   -0.207412
     36          8           0       -4.835999    1.143513   -0.332812
     37          7           0       -5.625803   -0.989586   -0.510812
     38          1           0       -5.400906   -1.967986   -0.396912
     39          6           0       -6.950303   -0.632283   -0.992712
     40          1           0       -6.995600    0.455717   -1.049012
     41          1           0       -7.132204   -1.051382   -1.988812
     42          1           0       -7.728203   -0.990381   -0.308812
 ---------------------------------------------------------------------

 SCF Done:  E(RHF) =  -984.695769186     A.U. after   14 cycles
 E2 =    -0.3192551731D+01 EUMP2 =    -0.98788832091731D+03

 The electronic state is 1-A.
 Alpha  occ. eigenvalues --  -20.55231 -20.54147 -20.53828 -20.51742 -15.61504
 Alpha  occ. eigenvalues --  -15.60038 -15.60011 -15.58313 -11.38010 -11.36800
 Alpha  occ. eigenvalues --  -11.36626 -11.35240 -11.30441 -11.29834 -11.28572
 Alpha  occ. eigenvalues --  -11.28319 -11.24841 -11.24481 -11.23769 -11.22335
 Alpha  occ. eigenvalues --   -1.40775  -1.39844  -1.38908  -1.37086  -1.25326
 Alpha  occ. eigenvalues --   -1.24783  -1.24563  -1.22870  -1.07545  -1.04932
 Alpha  occ. eigenvalues --   -1.02438  -0.97933  -0.97115  -0.91873  -0.89922
 Alpha  occ. eigenvalues --   -0.86841  -0.81554  -0.80272  -0.79432  -0.77814
 Alpha  occ. eigenvalues --   -0.75777  -0.71281  -0.68463  -0.68039  -0.67519
 Alpha  occ. eigenvalues --   -0.65442  -0.64982  -0.64473  -0.63685  -0.62158
 Alpha  occ. eigenvalues --   -0.61395  -0.61006  -0.60087  -0.59500  -0.58670
 Alpha  occ. eigenvalues --   -0.57639  -0.56783  -0.56377  -0.56180  -0.55539
 Alpha  occ. eigenvalues --   -0.55398  -0.54872  -0.54027  -0.53556  -0.52430
 Alpha  occ. eigenvalues --   -0.52062  -0.51427  -0.50299  -0.48642  -0.44690
 Alpha  occ. eigenvalues --   -0.43909  -0.43100  -0.41623  -0.41399  -0.40382
 Alpha  occ. eigenvalues --   -0.39709  -0.38209
 Alpha virt. eigenvalues --    0.02291   0.03448   0.03725   0.03943   0.04258
 Alpha virt. eigenvalues --    0.04879   0.05079   0.05910   0.05947   0.06153
 Alpha virt. eigenvalues --    0.06452   0.06622   0.07479   0.07704   0.07792

 Mulliken atomic charges:
              1
     1  H    0.043334
     2  C    0.371726
     3  H   -0.164897
     4  H    0.041990
     5  C    0.492360
     6  O   -0.876930
     7  N   -0.122847
     8  H   -0.100957
     9  C   -0.255913
    10  H   -0.216484
    11  C    0.914693
    12  H   -0.011561
    13  H   -0.056407
    14  H   -0.100772
    15  C    1.025854
    16  O   -0.949104
    17  N   -0.334817
    18  H   -0.063463
    19  C   -0.106916
    20  H   -0.095549
    21  C    0.809302
    22  H   -0.042803
    23  H    0.086584
    24  H   -0.135639
    25  C    0.590551
    26  O   -0.853213
    27  N   -0.228449
    28  H   -0.098684
    29  C   -0.241558
    30  H   -0.174157
    31  C    0.904061
    32  H   -0.046018
    33  H   -0.116213
    34  H   -0.060163
    35  C    1.302102
    36  O   -0.899810
    37  N   -0.489387
    38  H   -0.121106
    39  C    0.707033
    40  H   -0.144246
    41  H   -0.084613
    42  H   -0.096913
 Sum of Mulliken atomic charges =   0.00000

 Dipole moment (field-independent basis, Debye):
    X=             -6.1020    Y=             -0.7564    Z=              0.2145  Tot=              6.1524
 Quadrupole moment (field-independent basis, Debye-Ang):
   XX=           -111.3614   YY=           -119.5500   ZZ=           -127.2104
   XY=             20.7855   XZ=             16.0141   YZ=             -1.8999

 Normal termination of Gaussian 09 at Wed Jan 18 10:14:27 2017.
