 Gaussian 09, Revision A.02,
 Gaussian 09:  EM64L-G09RevA.02 11-Jun-2009

 -------------------
 #SP MP2/aug-cc-pVDZ
 -------------------

 ------------------
 Phi Psi fixed scan
 ------------------
 Symbolic Z-matrix:
 Charge =  0 Multiplicity = 1

                         Standard orientation:
 ---------------------------------------------------------------------
 Center     Atomic      Atomic             Coordinates (Angstroms)
 Number     Number       Type             X           Y           Z
 ---------------------------------------------------------------------
      1          1           0       -5.521701   -3.174895   -0.141696
      2          6           0       -5.158702   -2.401995   -0.826496
      3          1           0       -6.014002   -2.066595   -1.421196
      4          1           0       -4.409201   -2.840495   -1.492296
      5          6           0       -4.639202   -1.227795   -0.010796
      6          8           0       -5.354902   -0.607595    0.771104
      7          7           0       -3.326102   -0.915694   -0.199996
      8          1           0       -2.754602   -1.374694   -0.899696
      9          6           0       -2.709103    0.218506    0.457404
     10          1           0       -3.431803    1.044306    0.466604
     11          6           0       -2.316503   -0.100894    1.914404
     12          1           0       -1.581502   -0.911794    1.944004
     13          1           0       -1.890303    0.774106    2.418604
     14          1           0       -3.213402   -0.409394    2.456904
     15          6           0       -1.481803    0.609507   -0.378296
     16          8           0       -1.014003   -0.146293   -1.233696
     17          7           0       -0.930903    1.814907   -0.094896
     18          1           0       -1.338304    2.385407    0.634304
     19          6           0        0.212396    2.364307   -0.832096
     20          1           0        0.166197    1.910707   -1.828296
     21          6           0        0.101696    3.882007   -0.932696
     22          1           0        0.137496    4.345507    0.058804
     23          1           0        0.943996    4.282308   -1.501196
     24          1           0       -0.831404    4.162607   -1.431296
     25          6           0        1.554997    1.941808   -0.182496
     26          8           0        2.354196    2.767508    0.253204
     27          7           0        1.762397    0.602108   -0.126396
     28          1           0        1.112397   -0.055192   -0.555196
     29          6           0        2.978497    0.053208    0.446704
     30          1           0        3.811197    0.705709    0.156904
     31          6           0        2.914597   -0.002592    1.986204
     32          1           0        2.092298   -0.649692    2.308504
     33          1           0        3.848498   -0.390391    2.408704
     34          1           0        2.750897    1.006308    2.374104
     35          6           0        3.174598   -1.352792   -0.139196
     36          8           0        2.229298   -2.006892   -0.567496
     37          7           0        4.455798   -1.813291   -0.101796
     38          1           0        5.180798   -1.193191    0.230304
     39          6           0        4.828999   -3.143491   -0.552196
     40          1           0        3.916399   -3.644991   -0.876496
     41          1           0        5.528799   -3.093791   -1.394496
     42          1           0        5.289399   -3.720591    0.258104
 ---------------------------------------------------------------------

 SCF Done:  E(RHF) =  -984.698602459     A.U. after   15 cycles
 E2 =    -0.3194622149D+01 EUMP2 =    -0.98789322460837D+03

 The electronic state is 1-A.
 Alpha  occ. eigenvalues --  -20.55298 -20.53929 -20.53551 -20.52473 -15.61573
 Alpha  occ. eigenvalues --  -15.60468 -15.59024 -15.58724 -11.37978 -11.36792
 Alpha  occ. eigenvalues --  -11.36108 -11.35907 -11.30035 -11.29863 -11.29409
 Alpha  occ. eigenvalues --  -11.27477 -11.24246 -11.23979 -11.23893 -11.23826
 Alpha  occ. eigenvalues --   -1.40800  -1.39540  -1.38544  -1.37852  -1.25937
 Alpha  occ. eigenvalues --   -1.24229  -1.23736  -1.23364  -1.07489  -1.04883
 Alpha  occ. eigenvalues --   -1.03026  -0.98680  -0.96290  -0.91858  -0.89990
 Alpha  occ. eigenvalues --   -0.86423  -0.82049  -0.80089  -0.78712  -0.78466
 Alpha  occ. eigenvalues --   -0.75135  -0.71798  -0.68740  -0.68438  -0.67275
 Alpha  occ. eigenvalues --   -0.65735  -0.65132  -0.63832  -0.63703  -0.62930
 Alpha  occ. eigenvalues --   -0.61575  -0.60757  -0.60313  -0.59316  -0.58327
 Alpha  occ. eigenvalues --   -0.58170  -0.56647  -0.56043  -0.55566  -0.55290
 Alpha  occ. eigenvalues --   -0.54771  -0.54414  -0.53871  -0.53353  -0.52863
 Alpha  occ. eigenvalues --   -0.52619  -0.51893  -0.50357  -0.49523  -0.45354
 Alpha  occ. eigenvalues --   -0.44288  -0.43295  -0.42112  -0.40502  -0.40241
 Alpha  occ. eigenvalues --   -0.38944  -0.38623
 Alpha virt. eigenvalues --    0.02771   0.03286   0.03861   0.03944   0.04493
 Alpha virt. eigenvalues --    0.04837   0.05041   0.05705   0.05852   0.06342
 Alpha virt. eigenvalues --    0.06610   0.07017   0.07198   0.07820   0.07978

 Mulliken atomic charges:
              1
     1  H    0.041436
     2  C    0.394070
     3  H    0.044654
     4  H   -0.172506
     5  C    0.469295
     6  O   -0.877637
     7  N   -0.109187
     8  H   -0.095717
     9  C    0.054644
    10  H   -0.145541
    11  C    0.796687
    12  H   -0.010219
    13  H   -0.075722
    14  H   -0.112990
    15  C    0.816538
    16  O   -0.944491
    17  N   -0.362167
    18  H   -0.104740
    19  C   -0.057555
    20  H   -0.184662
    21  C    0.883961
    22  H   -0.030444
    23  H   -0.063868
    24  H   -0.026464
    25  C    0.517199
    26  O   -0.857680
    27  N    0.071378
    28  H   -0.074488
    29  C   -0.512017
    30  H   -0.231483
    31  C    0.976014
    32  H   -0.027623
    33  H   -0.117026
    34  H   -0.055252
    35  C    1.262338
    36  O   -0.873241
    37  N   -0.463284
    38  H   -0.123739
    39  C    0.733018
    40  H   -0.146648
    41  H   -0.099280
    42  H   -0.105560
 Sum of Mulliken atomic charges =   0.00000

 Dipole moment (field-independent basis, Debye):
    X=              3.7057    Y=             -0.5952    Z=              0.0082  Tot=              3.7533
 Quadrupole moment (field-independent basis, Debye-Ang):
   XX=           -120.8589   YY=           -119.4579   ZZ=           -121.3285
   XY=            -11.2930   XZ=              9.9077   YZ=             -2.0078

 Normal termination of Gaussian 09 at Wed Jan 18 12:38:01 2017.
