 Gaussian 09, Revision A.02,
 Gaussian 09:  EM64L-G09RevA.02 11-Jun-2009

 -------------------
 #SP MP2/aug-cc-pVDZ
 -------------------

 ------------------
 Phi Psi fixed scan
 ------------------
 Symbolic Z-matrix:
 Charge =  0 Multiplicity = 1

                         Standard orientation:
 ---------------------------------------------------------------------
 Center     Atomic      Atomic             Coordinates (Angstroms)
 Number     Number       Type             X           Y           Z
 ---------------------------------------------------------------------
      1          1           0        3.833682    3.767718   -0.126003
      2          6           0        4.081185    2.947319    0.554797
      3          1           0        3.439885    3.011617    1.438997
      4          1           0        5.123885    3.080322    0.859397
      5          6           0        3.953889    1.632019   -0.198403
      6          8           0        4.600090    1.396021   -1.215903
      7          7           0        3.080192    0.731116    0.333097
      8          1           0        2.497391    0.947714    1.133097
      9          6           0        2.805296   -0.536785   -0.312903
     10          1           0        2.780095   -0.368085   -1.396903
     11          6           0        3.889099   -1.590781   -0.009503
     12          1           0        3.939700   -1.788681    1.066197
     13          1           0        3.684302   -2.533682   -0.529703
     14          1           0        4.854598   -1.207778   -0.348903
     15          6           0        1.430297   -1.006089    0.181497
     16          8           0        0.961496   -0.594891    1.245297
     17          7           0        0.784100   -1.881691   -0.629203
     18          1           0        1.227601   -2.114690   -1.507003
     19          6           0       -0.400398   -2.680995   -0.264703
     20          1           0       -0.408595   -3.517495   -0.968303
     21          6           0       -0.369696   -3.254695    1.157897
     22          1           0       -0.390498   -2.472795    1.916597
     23          1           0       -1.239394   -3.906697    1.289297
     24          1           0        0.534906   -3.855392    1.301397
     25          6           0       -1.713600   -1.932499   -0.584203
     26          8           0       -2.546698   -2.421301   -1.344103
     27          7           0       -1.880504   -0.745199    0.050997
     28          1           0       -1.147305   -0.350797    0.639197
     29          6           0       -3.056006    0.073597   -0.184403
     30          1           0       -3.343206   -0.051604   -1.235203
     31          6           0       -4.241705   -0.358907    0.700997
     32          1           0       -3.985405   -0.249206    1.759697
     33          1           0       -5.133407    0.244191    0.494797
     34          1           0       -4.476101   -1.407007    0.496197
     35          6           0       -2.673011    1.535198    0.091497
     36          8           0       -1.738212    1.826901    0.830197
     37          7           0       -3.472613    2.457496   -0.513603
     38          1           0       -4.197412    2.131293   -1.136903
     39          6           0       -3.308518    3.888696   -0.324903
     40          1           0       -2.482118    4.031899    0.372197
     41          1           0       -3.069319    4.387797   -1.271103
     42          1           0       -4.215919    4.338993    0.094097
 ---------------------------------------------------------------------

 SCF Done:  E(RHF) =  -984.694210265     A.U. after   14 cycles
 E2 =    -0.3195111554D+01 EUMP2 =    -0.98788932181931D+03

 The electronic state is 1-A.
 Alpha  occ. eigenvalues --  -20.55234 -20.53897 -20.53385 -20.52414 -15.61683
 Alpha  occ. eigenvalues --  -15.60420 -15.58991 -15.58626 -11.37989 -11.36737
 Alpha  occ. eigenvalues --  -11.35992 -11.35851 -11.30315 -11.29796 -11.29276
 Alpha  occ. eigenvalues --  -11.27476 -11.24159 -11.23981 -11.23863 -11.23665
 Alpha  occ. eigenvalues --   -1.40718  -1.39478  -1.38378  -1.37794  -1.25816
 Alpha  occ. eigenvalues --   -1.24186  -1.23679  -1.23261  -1.07536  -1.04836
 Alpha  occ. eigenvalues --   -1.02820  -0.98670  -0.96230  -0.91995  -0.89792
 Alpha  occ. eigenvalues --   -0.87378  -0.81591  -0.79415  -0.78762  -0.78175
 Alpha  occ. eigenvalues --   -0.74491  -0.73252  -0.68817  -0.67521  -0.66361
 Alpha  occ. eigenvalues --   -0.66039  -0.64438  -0.63778  -0.63431  -0.62772
 Alpha  occ. eigenvalues --   -0.61783  -0.61310  -0.59864  -0.59318  -0.58656
 Alpha  occ. eigenvalues --   -0.57682  -0.57079  -0.56595  -0.55549  -0.55390
 Alpha  occ. eigenvalues --   -0.55047  -0.54651  -0.53465  -0.53077  -0.52911
 Alpha  occ. eigenvalues --   -0.52703  -0.51835  -0.50047  -0.49435  -0.45002
 Alpha  occ. eigenvalues --   -0.43971  -0.43268  -0.42044  -0.40321  -0.40096
 Alpha  occ. eigenvalues --   -0.39020  -0.38605
 Alpha virt. eigenvalues --    0.02736   0.03163   0.03848   0.04029   0.04656
 Alpha virt. eigenvalues --    0.04785   0.04885   0.05650   0.06021   0.06304
 Alpha virt. eigenvalues --    0.06577   0.06996   0.07131   0.07612   0.08023

 Mulliken atomic charges:
              1
     1  H    0.047739
     2  C    0.355498
     3  H   -0.175150
     4  H    0.034154
     5  C    0.472399
     6  O   -0.879231
     7  N   -0.041590
     8  H   -0.086011
     9  C   -0.187995
    10  H   -0.171443
    11  C    0.892561
    12  H   -0.023135
    13  H   -0.061019
    14  H   -0.080623
    15  C    0.903970
    16  O   -0.882663
    17  N    0.100704
    18  H   -0.132849
    19  C   -0.364222
    20  H   -0.292341
    21  C    0.943907
    22  H   -0.008021
    23  H   -0.074383
    24  H   -0.096003
    25  C    0.612577
    26  O   -0.849855
    27  N   -0.102822
    28  H   -0.002037
    29  C   -0.553940
    30  H   -0.234865
    31  C    0.913908
    32  H   -0.004784
    33  H   -0.122224
    34  H   -0.043119
    35  C    1.298360
    36  O   -0.891797
    37  N   -0.468024
    38  H   -0.127468
    39  C    0.735605
    40  H   -0.150089
    41  H   -0.094488
    42  H   -0.109192
 Sum of Mulliken atomic charges =   0.00000

 Dipole moment (field-independent basis, Debye):
    X=             -2.4179    Y=              0.5559    Z=              0.4079  Tot=              2.5143
 Quadrupole moment (field-independent basis, Debye-Ang):
   XX=           -123.7193   YY=           -110.1382   ZZ=           -128.0845
   XY=            -20.6347   XZ=              9.5804   YZ=             -2.8252

 Normal termination of Gaussian 09 at Thu Jan 19 18:57:14 2017.
