 Gaussian 09, Revision A.02,
 Gaussian 09:  EM64L-G09RevA.02 11-Jun-2009

 -------------------
 #SP MP2/aug-cc-pVDZ
 -------------------

 ------------------
 Phi Psi fixed scan
 ------------------
 Symbolic Z-matrix:
 Charge =  0 Multiplicity = 1

                         Standard orientation:
 ---------------------------------------------------------------------
 Center     Atomic      Atomic             Coordinates (Angstroms)
 Number     Number       Type             X           Y           Z
 ---------------------------------------------------------------------
      1          1           0        6.811191   -1.817309   -0.821691
      2          6           0        5.803791   -1.759307   -1.245991
      3          1           0        5.593389   -2.723807   -1.718091
      4          1           0        5.783793   -0.975107   -2.008891
      5          6           0        4.806792   -1.538405   -0.117591
      6          8           0        4.678290   -2.338905    0.805409
      7          7           0        4.076594   -0.391504   -0.196691
      8          1           0        4.122595    0.227796   -0.997991
      9          6           0        3.038095   -0.073402    0.761709
     10          1           0        2.500493   -0.999700    1.002909
     11          6           0        3.616096    0.508697    2.066709
     12          1           0        4.154298    1.440396    1.863309
     13          1           0        2.826596    0.716099    2.797909
     14          1           0        4.309194   -0.217504    2.498809
     15          6           0        2.087297    0.927000    0.071509
     16          8           0        2.438098    1.542600   -0.928591
     17          7           0        0.889397    1.076903    0.708109
     18          1           0        0.698496    0.419303    1.452409
     19          6           0       -0.253601    1.913405    0.304009
     20          1           0       -0.783001    2.138206    1.239409
     21          6           0        0.131401    3.231104   -0.365491
     22          1           0        0.546201    3.053703   -1.355791
     23          1           0       -0.766398    3.852206   -0.458291
     24          1           0        0.866302    3.768503    0.240409
     25          6           0       -1.193803    1.080907   -0.602291
     26          8           0       -1.042203    1.003807   -1.815691
     27          7           0       -2.165304    0.400709    0.066709
     28          1           0       -2.373704    0.568109    1.046009
     29          6           0       -3.148906   -0.413389   -0.623291
     30          1           0       -3.447905    0.111311   -1.539991
     31          6           0       -2.581909   -1.792390   -1.011791
     32          1           0       -2.287510   -2.351591   -0.117691
     33          1           0       -3.317310   -2.386589   -1.565891
     34          1           0       -1.705808   -1.647692   -1.648691
     35          6           0       -4.355606   -0.539687    0.323309
     36          8           0       -4.269106   -0.235987    1.511809
     37          7           0       -5.488507   -1.023785   -0.247791
     38          1           0       -5.480208   -1.223185   -1.238091
     39          6           0       -6.716708   -1.251882    0.496409
     40          1           0       -6.526007   -0.979382    1.534809
     41          1           0       -7.532906   -0.632880    0.107009
     42          1           0       -7.015310   -2.305181    0.449009
 ---------------------------------------------------------------------

 SCF Done:  E(RHF) =  -984.688220628     A.U. after   15 cycles
 E2 =    -0.3192742201D+01 EUMP2 =    -0.98788096282975D+03

 The electronic state is 1-A.
 Alpha  occ. eigenvalues --  -20.55218 -20.54322 -20.53677 -20.52104 -15.61443
 Alpha  occ. eigenvalues --  -15.61083 -15.59951 -15.58566 -11.37980 -11.37252
 Alpha  occ. eigenvalues --  -11.36431 -11.35541 -11.30496 -11.30308 -11.29243
 Alpha  occ. eigenvalues --  -11.28264 -11.24470 -11.23962 -11.23501 -11.22624
 Alpha  occ. eigenvalues --   -1.40724  -1.39903  -1.38864  -1.37433  -1.25428
 Alpha  occ. eigenvalues --   -1.25274  -1.24239  -1.23212  -1.07439  -1.05139
 Alpha  occ. eigenvalues --   -1.02628  -0.98310  -0.97075  -0.92052  -0.89949
 Alpha  occ. eigenvalues --   -0.86813  -0.81858  -0.79653  -0.78911  -0.78046
 Alpha  occ. eigenvalues --   -0.74644  -0.72640  -0.69263  -0.68318  -0.66865
 Alpha  occ. eigenvalues --   -0.66006  -0.65255  -0.64316  -0.63823  -0.62424
 Alpha  occ. eigenvalues --   -0.62230  -0.61112  -0.60721  -0.58821  -0.58741
 Alpha  occ. eigenvalues --   -0.57568  -0.56884  -0.56331  -0.56165  -0.54741
 Alpha  occ. eigenvalues --   -0.54492  -0.54423  -0.53725  -0.53368  -0.52660
 Alpha  occ. eigenvalues --   -0.52295  -0.51652  -0.50863  -0.49059  -0.45388
 Alpha  occ. eigenvalues --   -0.44408  -0.42826  -0.41719  -0.41565  -0.39843
 Alpha  occ. eigenvalues --   -0.39571  -0.38365
 Alpha virt. eigenvalues --    0.02429   0.03161   0.03782   0.03944   0.04268
 Alpha virt. eigenvalues --    0.04810   0.04881   0.05795   0.05992   0.06241
 Alpha virt. eigenvalues --    0.06432   0.06700   0.07176   0.07660   0.07775

 Mulliken atomic charges:
              1
     1  H    0.041644
     2  C    0.360869
     3  H    0.039785
     4  H   -0.170107
     5  C    0.465958
     6  O   -0.875623
     7  N   -0.140428
     8  H   -0.076050
     9  C   -0.084405
    10  H   -0.153815
    11  C    0.852818
    12  H   -0.029062
    13  H   -0.077376
    14  H   -0.089802
    15  C    0.925061
    16  O   -0.865572
    17  N   -0.254165
    18  H   -0.073736
    19  C   -0.104873
    20  H   -0.425894
    21  C    0.846790
    22  H    0.076537
    23  H   -0.086781
    24  H   -0.003220
    25  C    0.545337
    26  O   -0.809327
    27  N   -0.146240
    28  H   -0.112806
    29  C   -0.116371
    30  H   -0.163337
    31  C    0.853876
    32  H   -0.044417
    33  H   -0.123089
    34  H   -0.045835
    35  C    1.174221
    36  O   -0.897339
    37  N   -0.470592
    38  H   -0.118924
    39  C    0.703061
    40  H   -0.143218
    41  H   -0.087524
    42  H   -0.096028
 Sum of Mulliken atomic charges =   0.00000

 Dipole moment (field-independent basis, Debye):
    X=             -5.0131    Y=             -0.0620    Z=             -0.0283  Tot=              5.0135
 Quadrupole moment (field-independent basis, Debye-Ang):
   XX=            -98.9198   YY=           -127.5404   ZZ=           -128.4695
   XY=             15.8193   XZ=              3.3797   YZ=             14.2537

 Normal termination of Gaussian 09 at Thu Jan 19 20:37:55 2017.
