 Gaussian 09, Revision A.02,
 Gaussian 09:  EM64L-G09RevA.02 11-Jun-2009

 -------------------
 #SP MP2/aug-cc-pVDZ
 -------------------

 ------------------
 Phi Psi fixed scan
 ------------------
 Symbolic Z-matrix:
 Charge =  0 Multiplicity = 1

                         Standard orientation:
 ---------------------------------------------------------------------
 Center     Atomic      Atomic             Coordinates (Angstroms)
 Number     Number       Type             X           Y           Z
 ---------------------------------------------------------------------
      1          1           0       -3.931899   -3.606510    1.393908
      2          6           0       -4.388801   -2.613311    1.450708
      3          1           0       -4.110201   -2.147910    2.401108
      4          1           0       -5.473800   -2.751613    1.424108
      5          6           0       -3.966302   -1.809110    0.230208
      6          8           0       -4.253001   -2.156211   -0.912292
      7          7           0       -3.249104   -0.679909    0.490508
      8          1           0       -2.958004   -0.426108    1.427308
      9          6           0       -2.707005    0.145392   -0.569192
     10          1           0       -2.317204   -0.515107   -1.354592
     11          6           0       -3.777907    1.064190   -1.191892
     12          1           0       -4.183008    1.746190   -0.437092
     13          1           0       -3.366608    1.659791   -2.015092
     14          1           0       -4.586406    0.442489   -1.583792
     15          6           0       -1.561007    0.968794    0.043708
     16          8           0       -1.454907    1.113794    1.257608
     17          7           0       -0.696808    1.508496   -0.866992
     18          1           0       -0.894207    1.317195   -1.839992
     19          6           0        0.304890    2.552797   -0.600392
     20          1           0        0.494390    3.018998   -1.574992
     21          6           0       -0.164712    3.659496    0.352908
     22          1           0       -0.385511    3.259196    1.342708
     23          1           0        0.633487    4.400498    0.431908
     24          1           0       -1.065212    4.140795   -0.042192
     25          6           0        1.688091    2.011200   -0.170992
     26          8           0        2.608890    2.795901    0.047008
     27          7           0        1.816094    0.668400   -0.091292
     28          1           0        1.042995    0.047399   -0.298692
     29          6           0        3.068295    0.028202    0.257508
     30          1           0        3.877894    0.555103   -0.263192
     31          6           0        3.341495    0.084003    1.773808
     32          1           0        2.553696   -0.441599    2.322808
     33          1           0        4.305795   -0.373596    2.023008
     34          1           0        3.360593    1.129503    2.090908
     35          6           0        2.976597   -1.423398   -0.242592
     36          8           0        1.895298   -1.938300   -0.516992
     37          7           0        4.164398   -2.079596   -0.324492
     38          1           0        5.009698   -1.572595   -0.103292
     39          6           0        4.272801   -3.473796   -0.721692
     40          1           0        3.262701   -3.839298   -0.909292
     41          1           0        4.867701   -3.577895   -1.636292
     42          1           0        4.732202   -4.074895    0.071308
 ---------------------------------------------------------------------

 SCF Done:  E(RHF) =  -984.694426552     A.U. after   14 cycles
 E2 =    -0.3193950555D+01 EUMP2 =    -0.98788837710694D+03

 The electronic state is 1-A.
 Alpha  occ. eigenvalues --  -20.55260 -20.54574 -20.52958 -20.52333 -15.61475
 Alpha  occ. eigenvalues --  -15.60920 -15.59199 -15.58922 -11.37888 -11.37363
 Alpha  occ. eigenvalues --  -11.36101 -11.35784 -11.30402 -11.29779 -11.29697
 Alpha  occ. eigenvalues --  -11.27831 -11.24162 -11.23931 -11.23831 -11.22780
 Alpha  occ. eigenvalues --   -1.40696  -1.40078  -1.38338  -1.37711  -1.25982
 Alpha  occ. eigenvalues --   -1.24718  -1.23720  -1.23460  -1.07281  -1.04934
 Alpha  occ. eigenvalues --   -1.02826  -0.98599  -0.96585  -0.91802  -0.90012
 Alpha  occ. eigenvalues --   -0.87098  -0.81717  -0.79695  -0.78741  -0.78434
 Alpha  occ. eigenvalues --   -0.74559  -0.73155  -0.69079  -0.67757  -0.66738
 Alpha  occ. eigenvalues --   -0.66273  -0.64629  -0.64299  -0.63251  -0.62966
 Alpha  occ. eigenvalues --   -0.61703  -0.61184  -0.60210  -0.58963  -0.58450
 Alpha  occ. eigenvalues --   -0.58031  -0.56802  -0.56461  -0.56046  -0.55449
 Alpha  occ. eigenvalues --   -0.54827  -0.54645  -0.53602  -0.53235  -0.52637
 Alpha  occ. eigenvalues --   -0.52327  -0.51897  -0.49602  -0.49345  -0.45049
 Alpha  occ. eigenvalues --   -0.43841  -0.43648  -0.41955  -0.40929  -0.40105
 Alpha  occ. eigenvalues --   -0.39051  -0.38838
 Alpha virt. eigenvalues --    0.02582   0.03077   0.03718   0.04250   0.04476
 Alpha virt. eigenvalues --    0.04745   0.05083   0.05722   0.06023   0.06300
 Alpha virt. eigenvalues --    0.06623   0.07014   0.07123   0.07677   0.07958

 Mulliken atomic charges:
              1
     1  H    0.049599
     2  C    0.377909
     3  H   -0.164662
     4  H    0.034640
     5  C    0.473864
     6  O   -0.875046
     7  N   -0.135939
     8  H   -0.086465
     9  C   -0.215047
    10  H   -0.161289
    11  C    0.912533
    12  H   -0.028935
    13  H   -0.081765
    14  H   -0.079062
    15  C    1.126257
    16  O   -0.922027
    17  N    0.043333
    18  H   -0.139293
    19  C   -0.763329
    20  H   -0.073853
    21  C    0.870479
    22  H    0.002501
    23  H   -0.067734
    24  H   -0.046138
    25  C    0.810234
    26  O   -0.903867
    27  N   -0.065641
    28  H   -0.016834
    29  C   -0.538341
    30  H   -0.244288
    31  C    0.976647
    32  H   -0.029454
    33  H   -0.123327
    34  H   -0.043336
    35  C    1.209474
    36  O   -0.868790
    37  N   -0.472811
    38  H   -0.125367
    39  C    0.725707
    40  H   -0.143774
    41  H   -0.094683
    42  H   -0.102081
 Sum of Mulliken atomic charges =   0.00000

 Dipole moment (field-independent basis, Debye):
    X=              3.0354    Y=             -0.5789    Z=             -0.0826  Tot=              3.0912
 Quadrupole moment (field-independent basis, Debye-Ang):
   XX=           -110.0506   YY=           -129.1044   ZZ=           -119.2305
   XY=            -25.6617   XZ=             -8.4901   YZ=            -13.9770

 Normal termination of Gaussian 09 at Thu Jan 19 17:08:00 2017.
