 Gaussian 09, Revision A.02,
 Gaussian 09:  EM64L-G09RevA.02 11-Jun-2009

 -------------------------------------------------------------------
 # HF/6-31G* Opt=(ModRedundant, maxcycles=1000, calcfc) geom=nocrowd
 -------------------------------------------------------------------

 ------------------
 Phi Psi fixed scan
 ------------------
 Symbolic Z-matrix:
 Charge =  0 Multiplicity = 1

 SCF Done:  E(RHF) =  -984.515637462     A.U. after   15 cycles

  Exact polarizability:   0.000   0.000   0.000   0.000   0.000   0.000
 Approx polarizability: 125.721  -2.276 120.006   6.506  -8.437 144.021

 SCF Done:  E(RHF) =  -984.528838583     A.U. after   13 cycles
 SCF Done:  E(RHF) =  -984.543016811     A.U. after   15 cycles
 SCF Done:  E(RHF) =  -984.545001979     A.U. after   15 cycles
 SCF Done:  E(RHF) =  -984.538153853     A.U. after   14 cycles
 SCF Done:  E(RHF) =  -984.547196886     A.U. after   13 cycles
 SCF Done:  E(RHF) =  -984.548817496     A.U. after   13 cycles
 SCF Done:  E(RHF) =  -984.549649897     A.U. after   13 cycles
 SCF Done:  E(RHF) =  -984.550704412     A.U. after   13 cycles
 SCF Done:  E(RHF) =  -984.370125187     A.U. after   15 cycles
 SCF Done:  E(RHF) =  -984.552413577     A.U. after    9 cycles
 SCF Done:  E(RHF) =  -984.552412142     A.U. after   10 cycles
 SCF Done:  E(RHF) =  -984.552413637     A.U. after   10 cycles
 SCF Done:  E(RHF) =  -984.552413248     A.U. after    9 cycles
 SCF Done:  E(RHF) =  -984.552413748     A.U. after   10 cycles
 SCF Done:  E(RHF) =  -984.552413778     A.U. after    9 cycles
 SCF Done:  E(RHF) =  -984.552413699     A.U. after   10 cycles
 SCF Done:  E(RHF) =  -984.551762531     A.U. after   12 cycles
 SCF Done:  E(RHF) =  -984.552414098     A.U. after   12 cycles
 SCF Done:  E(RHF) =  -984.552414152     A.U. after    8 cycles
 Optimization completed.
    -- Stationary point found.

                         Standard orientation:
 ---------------------------------------------------------------------
 Center     Atomic      Atomic             Coordinates (Angstroms)
 Number     Number       Type             X           Y           Z
 ---------------------------------------------------------------------
      1          1           0       -5.733715   -2.840969    1.096937
      2          6           0       -4.815338   -2.973153    0.535291
      3          1           0       -4.972973   -3.776017   -0.172605
      4          1           0       -4.022503   -3.244651    1.221540
      5          6           0       -4.532734   -1.699908   -0.231942
      6          8           0       -5.183381   -1.385139   -1.194617
      7          7           0       -3.525923   -0.938789    0.242432
      8          1           0       -2.986944   -1.223463    1.029099
      9          6           0       -3.144550    0.304021   -0.380227
     10          1           0       -3.208013    0.177511   -1.453727
     11          6           0       -4.055884    1.465449    0.041032
     12          1           0       -3.999705    1.618869    1.113130
     13          1           0       -3.776664    2.390320   -0.454078
     14          1           0       -5.076791    1.229595   -0.228173
     15          6           0       -1.700339    0.595277    0.023419
     16          8           0       -1.225141    0.119966    1.017794
     17          7           0       -1.033956    1.409177   -0.826801
     18          1           0       -1.550026    1.738894   -1.611814
     19          6           0        0.217056    2.131602   -0.596721
     20          1           0        0.717959    2.168675   -1.557177
     21          6           0       -0.052005    3.555572   -0.116797
     22          1           0       -0.519982    3.539542    0.857863
     23          1           0        0.873573    4.114576   -0.039677
     24          1           0       -0.702794    4.069260   -0.818086
     25          6           0        1.165405    1.422380    0.386567
     26          8           0        1.232614    1.735553    1.540787
     27          7           0        2.027886    0.563816   -0.194782
     28          1           0        1.890034    0.264312   -1.134973
     29          6           0        2.946832   -0.230473    0.586530
     30          1           0        3.411801    0.422288    1.313779
     31          6           0        2.251340   -1.387139    1.317966
     32          1           0        1.808171   -2.070536    0.601880
     33          1           0        2.956614   -1.939829    1.930657
     34          1           0        1.469450   -0.993378    1.952703
     35          6           0        3.995427   -0.777063   -0.375942
     36          8           0        3.736786   -0.978196   -1.534771
     37          7           0        5.192589   -1.064364    0.164734
     38          1           0        5.376273   -0.791462    1.101989
     39          6           0        6.272044   -1.619504   -0.625153
     40          1           0        5.918370   -2.470207   -1.189861
     41          1           0        6.673861   -0.890162   -1.318989
     42          1           0        7.059283   -1.941880    0.042827
 ---------------------------------------------------------------------

 The electronic state is 1-A.
 Alpha  occ. eigenvalues --  -20.53982 -20.53331 -20.52113 -20.51517 -15.60383
 Alpha  occ. eigenvalues --  -15.59614 -15.58157 -15.57976 -11.36157 -11.35300
 Alpha  occ. eigenvalues --  -11.34868 -11.34400 -11.29261 -11.28295 -11.27963
 Alpha  occ. eigenvalues --  -11.26532 -11.22825 -11.22578 -11.22360 -11.21817
 Alpha  occ. eigenvalues --   -1.41158  -1.40330  -1.39046  -1.38411  -1.25635
 Alpha  occ. eigenvalues --   -1.24352  -1.23721  -1.23542  -1.07386  -1.04835
 Alpha  occ. eigenvalues --   -1.02823  -0.98765  -0.96405  -0.91735  -0.89827
 Alpha  occ. eigenvalues --   -0.86460  -0.82311  -0.79817  -0.78821  -0.78485
 Alpha  occ. eigenvalues --   -0.73867  -0.72248  -0.68294  -0.67884  -0.66558
 Alpha  occ. eigenvalues --   -0.65843  -0.65030  -0.64251  -0.63410  -0.62755
 Alpha  occ. eigenvalues --   -0.61590  -0.61097  -0.60214  -0.59276  -0.58980
 Alpha  occ. eigenvalues --   -0.58511  -0.57105  -0.56494  -0.56224  -0.55483
 Alpha  occ. eigenvalues --   -0.54763  -0.54012  -0.53306  -0.53250  -0.52759
 Alpha  occ. eigenvalues --   -0.52247  -0.52100  -0.50407  -0.49601  -0.43303
 Alpha  occ. eigenvalues --   -0.42670  -0.41658  -0.41295  -0.40379  -0.40176
 Alpha  occ. eigenvalues --   -0.38463  -0.38294
 Alpha virt. eigenvalues --    0.17814   0.18871   0.19506   0.21051   0.21175
 Alpha virt. eigenvalues --    0.21808   0.24003   0.24777   0.26130   0.27173
 Alpha virt. eigenvalues --    0.28111   0.28823   0.28966   0.29722   0.30288

 Mulliken atomic charges:
              1
     1  H    0.203097
     2  C   -0.575440
     3  H    0.207866
     4  H    0.173388
     5  C    0.756932
     6  O   -0.623330
     7  N   -0.823205
     8  H    0.419371
     9  C   -0.038872
    10  H    0.217418
    11  C   -0.488017
    12  H    0.182217
    13  H    0.154685
    14  H    0.213548
    15  C    0.793809
    16  O   -0.617142
    17  N   -0.830818
    18  H    0.389201
    19  C   -0.042743
    20  H    0.198988
    21  C   -0.470809
    22  H    0.208169
    23  H    0.178323
    24  H    0.151660
    25  C    0.826298
    26  O   -0.616436
    27  N   -0.830266
    28  H    0.415729
    29  C   -0.040052
    30  H    0.211408
    31  C   -0.492488
    32  H    0.177173
    33  H    0.155515
    34  H    0.231265
    35  C    0.781969
    36  O   -0.633787
    37  N   -0.800099
    38  H    0.390207
    39  C   -0.272090
    40  H    0.202189
    41  H    0.183877
    42  H    0.171293
 Sum of Mulliken atomic charges =   0.00000

 Dipole moment (field-independent basis, Debye):
    X=              3.5682    Y=              0.4015    Z=              0.5016  Tot=              3.6256
 Quadrupole moment (field-independent basis, Debye-Ang):
   XX=           -111.0119   YY=           -112.1316   ZZ=           -128.3452
   XY=             -8.0349   XZ=             -1.5665   YZ=            -15.8392

 Normal termination of Gaussian 09 at Tue Dec 27 11:49:00 2016.
