 Gaussian 09, Revision A.02,
 Gaussian 09:  EM64L-G09RevA.02 11-Jun-2009

 -------------------------------------------------------------------
 # HF/6-31G* Opt=(ModRedundant, maxcycles=1000, calcfc) geom=nocrowd
 -------------------------------------------------------------------

 ------------------
 Phi Psi fixed scan
 ------------------
 Symbolic Z-matrix:
 Charge =  0 Multiplicity = 1

 SCF Done:  E(RHF) =  -984.505723374     A.U. after   15 cycles

  Exact polarizability:   0.000   0.000   0.000   0.000   0.000   0.000
 Approx polarizability: 136.000   5.275 139.874   7.336  -2.472 114.203

 SCF Done:  E(RHF) =  -984.521727002     A.U. after   14 cycles
 SCF Done:  E(RHF) =  -984.540223278     A.U. after   14 cycles
 SCF Done:  E(RHF) =  -984.544997609     A.U. after   13 cycles
 SCF Done:  E(RHF) =  -984.546062665     A.U. after   14 cycles
 SCF Done:  E(RHF) =  -984.548769298     A.U. after   13 cycles
 SCF Done:  E(RHF) =  -984.550862964     A.U. after   14 cycles
 SCF Done:  E(RHF) =  -984.549795903     A.U. after   15 cycles
 SCF Done:  E(RHF) =  -984.552511292     A.U. after   13 cycles
 SCF Done:  E(RHF) =  -984.553182345     A.U. after   13 cycles
 SCF Done:  E(RHF) =  -984.554282396     A.U. after   10 cycles
 SCF Done:  E(RHF) =  -984.554285658     A.U. after    9 cycles
 SCF Done:  E(RHF) =  -984.554287999     A.U. after    9 cycles
 SCF Done:  E(RHF) =  -984.554288668     A.U. after    9 cycles
 SCF Done:  E(RHF) =  -984.554288958     A.U. after    8 cycles
 SCF Done:  E(RHF) =  -984.554289133     A.U. after    8 cycles
 SCF Done:  E(RHF) =  -984.554289185     A.U. after    7 cycles
 SCF Done:  E(RHF) =  -984.554289278     A.U. after    8 cycles
 SCF Done:  E(RHF) =  -984.554289328     A.U. after    8 cycles
 SCF Done:  E(RHF) =  -984.554289345     A.U. after    7 cycles
 Optimization completed.
    -- Stationary point found.

                         Standard orientation:
 ---------------------------------------------------------------------
 Center     Atomic      Atomic             Coordinates (Angstroms)
 Number     Number       Type             X           Y           Z
 ---------------------------------------------------------------------
      1          1           0       -5.554040    3.409808   -0.295240
      2          6           0       -4.524846    3.082745   -0.243767
      3          1           0       -4.031411    3.642683    0.544214
      4          1           0       -4.026025    3.295552   -1.181779
      5          6           0       -4.496108    1.612926    0.115806
      6          8           0       -5.308460    1.124729    0.857444
      7          7           0       -3.491353    0.899294   -0.433269
      8          1           0       -2.775528    1.347565   -0.960324
      9          6           0       -3.243809   -0.473661   -0.068252
     10          1           0       -3.400474   -0.581833    0.998746
     11          6           0       -4.176054   -1.440079   -0.812308
     12          1           0       -4.015346   -1.368382   -1.882445
     13          1           0       -4.012324   -2.468636   -0.508576
     14          1           0       -5.201712   -1.177309   -0.592416
     15          6           0       -1.781807   -0.774990   -0.381835
     16          8           0       -1.116845   -0.050230   -1.069380
     17          7           0       -1.318483   -1.971008    0.082541
     18          1           0       -1.909787   -2.393622    0.763689
     19          6           0        0.101704   -2.197714    0.333798
     20          1           0        0.158822   -2.817988    1.221351
     21          6           0        0.730034   -2.957218   -0.836933
     22          1           0        0.749905   -2.341090   -1.728163
     23          1           0        1.737206   -3.291217   -0.611665
     24          1           0        0.133852   -3.835980   -1.049385
     25          6           0        0.813536   -0.894779    0.739275
     26          8           0        0.258765   -0.105622    1.458279
     27          7           0        2.110992   -0.784602    0.407582
     28          1           0        2.522420   -1.366701   -0.286237
     29          6           0        2.872107    0.393615    0.755788
     30          1           0        2.217380    1.254474    0.700180
     31          6           0        3.451661    0.296791    2.172558
     32          1           0        4.125123   -0.549987    2.247093
     33          1           0        3.997616    1.195901    2.438350
     34          1           0        2.642584    0.165849    2.878761
     35          6           0        3.989319    0.534473   -0.274981
     36          8           0        4.341468   -0.395872   -0.953629
     37          7           0        4.570615    1.745268   -0.339568
     38          1           0        4.160461    2.501923    0.156832
     39          6           0        5.636777    2.028086   -1.278713
     40          1           0        6.393915    1.260007   -1.217558
     41          1           0        5.270943    2.070042   -2.298248
     42          1           0        6.079514    2.981063   -1.022509
 ---------------------------------------------------------------------

 The electronic state is 1-A.
 Alpha  occ. eigenvalues --  -20.53837 -20.53823 -20.52164 -20.51108 -15.59837
 Alpha  occ. eigenvalues --  -15.59189 -15.58408 -15.57249 -11.35721 -11.35549
 Alpha  occ. eigenvalues --  -11.35046 -11.33849 -11.29192 -11.28370 -11.27679
 Alpha  occ. eigenvalues --  -11.26685 -11.22764 -11.22674 -11.22386 -11.21968
 Alpha  occ. eigenvalues --   -1.41167  -1.40715  -1.38994  -1.37932  -1.24670
 Alpha  occ. eigenvalues --   -1.24642  -1.24128  -1.22986  -1.07407  -1.04929
 Alpha  occ. eigenvalues --   -1.02329  -0.98234  -0.96637  -0.91362  -0.89792
 Alpha  occ. eigenvalues --   -0.87138  -0.81683  -0.79689  -0.78866  -0.77859
 Alpha  occ. eigenvalues --   -0.73914  -0.72762  -0.68102  -0.67700  -0.66778
 Alpha  occ. eigenvalues --   -0.65789  -0.64633  -0.64222  -0.63667  -0.62830
 Alpha  occ. eigenvalues --   -0.61101  -0.60822  -0.60258  -0.59339  -0.58265
 Alpha  occ. eigenvalues --   -0.57772  -0.56418  -0.56268  -0.56090  -0.55618
 Alpha  occ. eigenvalues --   -0.55148  -0.54671  -0.54206  -0.53594  -0.52722
 Alpha  occ. eigenvalues --   -0.52176  -0.52002  -0.49749  -0.48728  -0.43299
 Alpha  occ. eigenvalues --   -0.42770  -0.42541  -0.40900  -0.40590  -0.40349
 Alpha  occ. eigenvalues --   -0.38768  -0.37843
 Alpha virt. eigenvalues --    0.17335   0.18923   0.19712   0.20956   0.21382
 Alpha virt. eigenvalues --    0.22843   0.24695   0.25119   0.26240   0.27830
 Alpha virt. eigenvalues --    0.27970   0.29017   0.29417   0.30113   0.30576

 Mulliken atomic charges:
              1
     1  H    0.207117
     2  C   -0.578284
     3  H    0.201504
     4  H    0.174202
     5  C    0.754253
     6  O   -0.621937
     7  N   -0.818859
     8  H    0.420477
     9  C   -0.038690
    10  H    0.219977
    11  C   -0.483853
    12  H    0.175430
    13  H    0.156052
    14  H    0.214913
    15  C    0.803234
    16  O   -0.628345
    17  N   -0.794383
    18  H    0.384456
    19  C   -0.040247
    20  H    0.212540
    21  C   -0.503693
    22  H    0.203566
    23  H    0.166980
    24  H    0.185667
    25  C    0.810370
    26  O   -0.643138
    27  N   -0.851924
    28  H    0.438486
    29  C   -0.033162
    30  H    0.220255
    31  C   -0.481863
    32  H    0.177903
    33  H    0.158631
    34  H    0.209463
    35  C    0.774519
    36  O   -0.631304
    37  N   -0.797875
    38  H    0.390147
    39  C   -0.273398
    40  H    0.203715
    41  H    0.184880
    42  H    0.172216
 Sum of Mulliken atomic charges =   0.00000

 Dipole moment (field-independent basis, Debye):
    X=              4.0186    Y=              0.6020    Z=             -0.2331  Tot=              4.0701
 Quadrupole moment (field-independent basis, Debye-Ang):
   XX=           -132.6842   YY=            -97.6810   ZZ=           -125.5587
   XY=             17.0532   XZ=             12.7434   YZ=             -7.1936

 Normal termination of Gaussian 09 at Tue Dec 27 06:32:03 2016.
