 Gaussian 09, Revision A.02,
 Gaussian 09:  EM64L-G09RevA.02 11-Jun-2009

 -------------------------------------------------------------------
 # HF/6-31G* Opt=(ModRedundant, maxcycles=1000, calcfc) geom=nocrowd
 -------------------------------------------------------------------

 ------------------
 Phi Psi fixed scan
 ------------------
 Symbolic Z-matrix:
 Charge =  0 Multiplicity = 1

 SCF Done:  E(RHF) =  -984.523325573     A.U. after   15 cycles

  Exact polarizability:   0.000   0.000   0.000   0.000   0.000   0.000
 Approx polarizability: 133.048  10.617 132.264  -1.853   5.284 124.058

 SCF Done:  E(RHF) =  -984.534559098     A.U. after   12 cycles
 SCF Done:  E(RHF) =  -984.547418318     A.U. after   13 cycles
 SCF Done:  E(RHF) =  -984.551478420     A.U. after   13 cycles
 SCF Done:  E(RHF) =  -984.554531855     A.U. after   13 cycles
 SCF Done:  E(RHF) =  -984.555530986     A.U. after   13 cycles
 SCF Done:  E(RHF) =  -984.511408612     A.U. after   14 cycles
 SCF Done:  E(RHF) =  -984.555741134     A.U. after   15 cycles
 SCF Done:  E(RHF) =  -984.482584733     A.U. after   15 cycles
 SCF Done:  E(RHF) =  -984.556020563     A.U. after   15 cycles
 SCF Done:  E(RHF) =  -984.556109121     A.U. after    8 cycles
 SCF Done:  E(RHF) =  -984.556109288     A.U. after    8 cycles
 SCF Done:  E(RHF) =  -984.556109381     A.U. after    8 cycles
 SCF Done:  E(RHF) =  -984.556109408     A.U. after    7 cycles
 SCF Done:  E(RHF) =  -984.556109433     A.U. after    7 cycles
 SCF Done:  E(RHF) =  -984.556109474     A.U. after    7 cycles
 SCF Done:  E(RHF) =  -984.556109530     A.U. after    7 cycles
 SCF Done:  E(RHF) =  -984.556109586     A.U. after    7 cycles
 SCF Done:  E(RHF) =  -984.556109623     A.U. after    7 cycles
 SCF Done:  E(RHF) =  -984.556109628     A.U. after    6 cycles
 Optimization completed.
    -- Stationary point found.

                         Standard orientation:
 ---------------------------------------------------------------------
 Center     Atomic      Atomic             Coordinates (Angstroms)
 Number     Number       Type             X           Y           Z
 ---------------------------------------------------------------------
      1          1           0       -5.265917    3.467360    0.308456
      2          6           0       -4.292657    3.060881    0.546877
      3          1           0       -4.086882    3.272863    1.590955
      4          1           0       -3.536663    3.544664   -0.059941
      5          6           0       -4.331402    1.559997    0.357606
      6          8           0       -5.297592    0.907964    0.656805
      7          7           0       -3.208420    1.004949   -0.142912
      8          1           0       -2.400775    1.555433   -0.330313
      9          6           0       -3.056159   -0.422295   -0.279402
     10          1           0       -3.509551   -0.897991    0.581686
     11          6           0       -3.726722   -0.953876   -1.553812
     12          1           0       -3.274558   -0.505475   -2.431760
     13          1           0       -3.634155   -2.032093   -1.631107
     14          1           0       -4.777825   -0.699757   -1.531048
     15          6           0       -1.560047   -0.724282   -0.296966
     16          8           0       -0.748205    0.124495   -0.556487
     17          7           0       -1.231447   -2.017746   -0.081478
     18          1           0       -1.953454   -2.598626    0.280736
     19          6           0        0.128646   -2.487691    0.170443
     20          1           0        0.044250   -3.271268    0.912070
     21          6           0        0.734326   -3.074246   -1.104643
     22          1           0        0.782154   -2.331673   -1.893360
     23          1           0        1.730151   -3.465479   -0.926553
     24          1           0        0.111239   -3.887608   -1.458411
     25          6           0        0.963883   -1.404274    0.877339
     26          8           0        0.638544   -1.047993    1.979379
     27          7           0        2.067956   -0.960743    0.256670
     28          1           0        2.213962   -1.141126   -0.710886
     29          6           0        2.819746    0.149580    0.793645
     30          1           0        2.127794    0.839028    1.262263
     31          6           0        3.849522   -0.311048    1.832560
     32          1           0        4.565056   -0.987999    1.378873
     33          1           0        4.389581    0.530344    2.254069
     34          1           0        3.338051   -0.826598    2.634470
     35          6           0        3.509292    0.842961   -0.378476
     36          8           0        3.670215    0.289694   -1.435461
     37          7           0        3.956386    2.088190   -0.132774
     38          1           0        3.682648    2.537743    0.709883
     39          6           0        4.611613    2.875396   -1.156693
     40          1           0        5.389069    2.291465   -1.627281
     41          1           0        3.914310    3.198759   -1.921290
     42          1           0        5.056262    3.745577   -0.692820
 ---------------------------------------------------------------------

 The electronic state is 1-A.
 Alpha  occ. eigenvalues --  -20.54222 -20.53387 -20.51852 -20.51456 -15.59997
 Alpha  occ. eigenvalues --  -15.59420 -15.57785 -15.57714 -11.36100 -11.35281
 Alpha  occ. eigenvalues --  -11.34690 -11.34269 -11.29099 -11.28184 -11.27842
 Alpha  occ. eigenvalues --  -11.26381 -11.22953 -11.22750 -11.22352 -11.22245
 Alpha  occ. eigenvalues --   -1.41355  -1.40343  -1.38754  -1.38315  -1.25243
 Alpha  occ. eigenvalues --   -1.24230  -1.23657  -1.23439  -1.07492  -1.04894
 Alpha  occ. eigenvalues --   -1.02540  -0.98638  -0.96265  -0.91526  -0.89719
 Alpha  occ. eigenvalues --   -0.87242  -0.81952  -0.79717  -0.78547  -0.78211
 Alpha  occ. eigenvalues --   -0.74131  -0.72851  -0.68327  -0.67497  -0.66636
 Alpha  occ. eigenvalues --   -0.65887  -0.64237  -0.64201  -0.63603  -0.63223
 Alpha  occ. eigenvalues --   -0.61581  -0.60927  -0.59884  -0.59312  -0.58616
 Alpha  occ. eigenvalues --   -0.57339  -0.56767  -0.56244  -0.56084  -0.55658
 Alpha  occ. eigenvalues --   -0.55206  -0.54559  -0.54183  -0.53511  -0.52813
 Alpha  occ. eigenvalues --   -0.52498  -0.52130  -0.49796  -0.49266  -0.43164
 Alpha  occ. eigenvalues --   -0.42843  -0.42455  -0.41233  -0.40327  -0.40016
 Alpha  occ. eigenvalues --   -0.38410  -0.38106
 Alpha virt. eigenvalues --    0.17199   0.19150   0.19786   0.21079   0.21361
 Alpha virt. eigenvalues --    0.22823   0.24151   0.25076   0.26346   0.27397
 Alpha virt. eigenvalues --    0.28284   0.28814   0.29442   0.29991   0.30399

 Mulliken atomic charges:
              1
     1  H    0.207986
     2  C   -0.576766
     3  H    0.203163
     4  H    0.172544
     5  C    0.755727
     6  O   -0.621617
     7  N   -0.821566
     8  H    0.419014
     9  C   -0.032620
    10  H    0.217486
    11  C   -0.483759
    12  H    0.176813
    13  H    0.158625
    14  H    0.213683
    15  C    0.796883
    16  O   -0.637818
    17  N   -0.812044
    18  H    0.391971
    19  C   -0.021190
    20  H    0.213405
    21  C   -0.500947
    22  H    0.191160
    23  H    0.179694
    24  H    0.177958
    25  C    0.797247
    26  O   -0.637166
    27  N   -0.833242
    28  H    0.436223
    29  C   -0.030463
    30  H    0.218227
    31  C   -0.481306
    32  H    0.177546
    33  H    0.156596
    34  H    0.208704
    35  C    0.774882
    36  O   -0.630897
    37  N   -0.797648
    38  H    0.388863
    39  C   -0.272897
    40  H    0.203358
    41  H    0.183505
    42  H    0.170682
 Sum of Mulliken atomic charges =   0.00000

 Dipole moment (field-independent basis, Debye):
    X=              2.9436    Y=              0.8148    Z=             -0.4426  Tot=              3.0862
 Quadrupole moment (field-independent basis, Debye-Ang):
   XX=           -135.8385   YY=            -92.8071   ZZ=           -129.3773
   XY=             11.9121   XZ=             12.2960   YZ=              2.8943

 Normal termination of Gaussian 09 at Tue Dec 27 07:57:07 2016.
