 Gaussian 09, Revision A.02,
 Gaussian 09:  EM64L-G09RevA.02 11-Jun-2009

 -------------------------------------------------------------------
 # HF/6-31G* Opt=(ModRedundant, maxcycles=1000, calcfc) geom=nocrowd
 -------------------------------------------------------------------

 ------------------
 Phi Psi fixed scan
 ------------------
 Symbolic Z-matrix:
 Charge =  0 Multiplicity = 1

 SCF Done:  E(RHF) =  -984.510027737     A.U. after   15 cycles

  Exact polarizability:   0.000   0.000   0.000   0.000   0.000   0.000
 Approx polarizability: 131.821 -10.512 132.690   5.321   0.049 125.299

 SCF Done:  E(RHF) =  -984.524291523     A.U. after   14 cycles
 SCF Done:  E(RHF) =  -984.539603886     A.U. after   16 cycles
 SCF Done:  E(RHF) =  -984.543487608     A.U. after   13 cycles
 SCF Done:  E(RHF) =  -984.538829180     A.U. after   16 cycles
 SCF Done:  E(RHF) =  -984.546444754     A.U. after   13 cycles
 SCF Done:  E(RHF) =  -984.548611624     A.U. after   12 cycles
 SCF Done:  E(RHF) =  -984.549722188     A.U. after   13 cycles
 SCF Done:  E(RHF) =  -984.550877815     A.U. after   13 cycles
 SCF Done:  E(RHF) =  -984.328218003     A.U. after   15 cycles
 SCF Done:  E(RHF) =  -984.552162479     A.U. after   10 cycles
 SCF Done:  E(RHF) =  -984.552164263     A.U. after   10 cycles
 SCF Done:  E(RHF) =  -984.552165451     A.U. after   10 cycles
 SCF Done:  E(RHF) =  -984.552166114     A.U. after    9 cycles
 SCF Done:  E(RHF) =  -984.552166353     A.U. after    8 cycles
 SCF Done:  E(RHF) =  -984.552166420     A.U. after    8 cycles
 SCF Done:  E(RHF) =  -984.552166433     A.U. after    7 cycles
 SCF Done:  E(RHF) =  -984.552166440     A.U. after    8 cycles
 SCF Done:  E(RHF) =  -984.552166442     A.U. after    6 cycles
 SCF Done:  E(RHF) =  -984.552166443     A.U. after    5 cycles
 Optimization completed.
    -- Stationary point found.

                         Standard orientation:
 ---------------------------------------------------------------------
 Center     Atomic      Atomic             Coordinates (Angstroms)
 Number     Number       Type             X           Y           Z
 ---------------------------------------------------------------------
      1          1           0        5.304358    3.259305   -0.466061
      2          6           0        4.386005    2.839642   -0.854529
      3          1           0        4.414347    2.921788   -1.935647
      4          1           0        3.541854    3.407909   -0.483248
      5          6           0        4.328074    1.373389   -0.485137
      6          8           0        5.286608    0.654631   -0.599934
      7          7           0        3.134930    0.925158   -0.044334
      8          1           0        2.347323    1.529529    0.023444
      9          6           0        2.911162   -0.460563    0.284223
     10          1           0        3.444259   -1.068794   -0.435523
     11          6           0        3.407153   -0.805996    1.695394
     12          1           0        2.876340   -0.217259    2.435563
     13          1           0        3.261054   -1.857341    1.921575
     14          1           0        4.464000   -0.584934    1.762088
     15          6           0        1.409560   -0.721502    0.173039
     16          8           0        0.615209    0.177498    0.269631
     17          7           0        1.077051   -2.016769    0.014268
     18          1           0        1.830627   -2.650291   -0.129017
     19          6           0       -0.248793   -2.618848   -0.137941
     20          1           0       -0.124742   -3.420767   -0.850636
     21          6           0       -0.730275   -3.203198    1.192631
     22          1           0       -0.808795   -2.440174    1.958088
     23          1           0       -1.699161   -3.676906    1.079176
     24          1           0       -0.024966   -3.949894    1.541807
     25          6           0       -1.291009   -1.710339   -0.817925
     26          8           0       -1.447224   -1.796249   -2.007710
     27          7           0       -2.033782   -0.909263   -0.035927
     28          1           0       -1.711728   -0.685028    0.879110
     29          6           0       -2.916161    0.072956   -0.623637
     30          1           0       -2.457764    0.461766   -1.525844
     31          6           0       -4.279596   -0.533077   -0.978204
     32          1           0       -4.766651   -0.907387   -0.084670
     33          1           0       -4.928129    0.201486   -1.444214
     34          1           0       -4.136690   -1.352267   -1.670135
     35          6           0       -3.083398    1.205070    0.386321
     36          8           0       -2.857348    1.050376    1.557516
     37          7           0       -3.543877    2.365214   -0.119864
     38          1           0       -3.587720    2.474016   -1.106358
     39          6           0       -3.737566    3.532106    0.715058
     40          1           0       -4.306279    3.264834    1.593768
     41          1           0       -2.793077    3.958235    1.034361
     42          1           0       -4.287613    4.273902    0.151599
 ---------------------------------------------------------------------

 The electronic state is 1-A.
 Alpha  occ. eigenvalues --  -20.54309 -20.53015 -20.52507 -20.51655 -15.60671
 Alpha  occ. eigenvalues --  -15.59133 -15.58123 -15.57286 -11.36555 -11.34957
 Alpha  occ. eigenvalues --  -11.34798 -11.34536 -11.29309 -11.28483 -11.27620
 Alpha  occ. eigenvalues --  -11.26190 -11.23237 -11.22973 -11.22666 -11.22003
 Alpha  occ. eigenvalues --   -1.41405  -1.40073  -1.39100  -1.38565  -1.25777
 Alpha  occ. eigenvalues --   -1.23940  -1.23784  -1.23318  -1.07693  -1.04865
 Alpha  occ. eigenvalues --   -1.02798  -0.98899  -0.96044  -0.91734  -0.89689
 Alpha  occ. eigenvalues --   -0.87344  -0.82292  -0.79582  -0.78942  -0.77720
 Alpha  occ. eigenvalues --   -0.74217  -0.72704  -0.68878  -0.67577  -0.66274
 Alpha  occ. eigenvalues --   -0.65924  -0.64237  -0.63957  -0.63724  -0.63209
 Alpha  occ. eigenvalues --   -0.62027  -0.61504  -0.59841  -0.59274  -0.58981
 Alpha  occ. eigenvalues --   -0.57296  -0.56900  -0.56729  -0.55870  -0.55768
 Alpha  occ. eigenvalues --   -0.55069  -0.54829  -0.53863  -0.53499  -0.52887
 Alpha  occ. eigenvalues --   -0.52483  -0.52350  -0.49841  -0.49718  -0.43706
 Alpha  occ. eigenvalues --   -0.43173  -0.42330  -0.41471  -0.40058  -0.39741
 Alpha  occ. eigenvalues --   -0.38580  -0.37843
 Alpha virt. eigenvalues --    0.17381   0.19017   0.19562   0.20802   0.21543
 Alpha virt. eigenvalues --    0.21743   0.23808   0.25150   0.26453   0.27062
 Alpha virt. eigenvalues --    0.28112   0.28561   0.29419   0.29557   0.30336

 Mulliken atomic charges:
              1
     1  H    0.207790
     2  C   -0.575147
     3  H    0.204189
     4  H    0.171935
     5  C    0.756996
     6  O   -0.622296
     7  N   -0.823277
     8  H    0.419006
     9  C   -0.035347
    10  H    0.217161
    11  C   -0.485720
    12  H    0.180171
    13  H    0.157039
    14  H    0.213637
    15  C    0.795646
    16  O   -0.638888
    17  N   -0.832426
    18  H    0.394605
    19  C   -0.026137
    20  H    0.222812
    21  C   -0.478823
    22  H    0.180635
    23  H    0.183272
    24  H    0.168003
    25  C    0.771655
    26  O   -0.622476
    27  N   -0.798145
    28  H    0.434777
    29  C   -0.030374
    30  H    0.209148
    31  C   -0.482174
    32  H    0.179348
    33  H    0.156460
    34  H    0.207728
    35  C    0.774757
    36  O   -0.627102
    37  N   -0.798583
    38  H    0.387756
    39  C   -0.271878
    40  H    0.202767
    41  H    0.181998
    42  H    0.169501
 Sum of Mulliken atomic charges =   0.00000

 Dipole moment (field-independent basis, Debye):
    X=             -2.1723    Y=              1.0389    Z=              0.2919  Tot=              2.4256
 Quadrupole moment (field-independent basis, Debye-Ang):
   XX=           -134.5413   YY=            -95.8106   ZZ=           -129.5903
   XY=             -9.2509   XZ=              8.8559   YZ=            -11.0326

 Normal termination of Gaussian 09 at Tue Dec 27 09:10:53 2016.
