 Gaussian 09, Revision A.02,
 Gaussian 09:  EM64L-G09RevA.02 11-Jun-2009

 -------------------------------------------------------------------
 # HF/6-31G* Opt=(ModRedundant, maxcycles=1000, calcfc) geom=nocrowd
 -------------------------------------------------------------------

 ------------------
 Phi Psi fixed scan
 ------------------
 Symbolic Z-matrix:
 Charge =  0 Multiplicity = 1

 SCF Done:  E(RHF) =  -984.440858858     A.U. after   16 cycles

  Exact polarizability:   0.000   0.000   0.000   0.000   0.000   0.000
 Approx polarizability: 138.256   0.319 142.142   6.059   8.512 112.233

 SCF Done:  E(RHF) =  -984.480437886     A.U. after   15 cycles
 SCF Done:  E(RHF) =  -984.510220914     A.U. after   15 cycles
 SCF Done:  E(RHF) =  -984.520819814     A.U. after   15 cycles
 SCF Done:  E(RHF) =  -984.525927981     A.U. after   15 cycles
 SCF Done:  E(RHF) =  -984.527208708     A.U. after   16 cycles
 SCF Done:  E(RHF) =  -984.527854710     A.U. after   14 cycles
 SCF Done:  E(RHF) =  -984.528613888     A.U. after   14 cycles
 SCF Done:  E(RHF) =  -984.521698275     A.U. after   15 cycles
 SCF Done:  E(RHF) =  -984.529074258     A.U. after   15 cycles
 SCF Done:  E(RHF) =  -984.547587258     A.U. after    9 cycles
 SCF Done:  E(RHF) =  -984.547588133     A.U. after   10 cycles
 SCF Done:  E(RHF) =  -984.547588492     A.U. after    9 cycles
 SCF Done:  E(RHF) =  -984.547588563     A.U. after    7 cycles
 SCF Done:  E(RHF) =  -984.547588593     A.U. after    7 cycles
 SCF Done:  E(RHF) =  -984.547588612     A.U. after    7 cycles
 SCF Done:  E(RHF) =  -984.547588626     A.U. after    7 cycles
 SCF Done:  E(RHF) =  -984.547588640     A.U. after    7 cycles
 SCF Done:  E(RHF) =  -984.547588652     A.U. after    7 cycles
 SCF Done:  E(RHF) =  -984.547588658     A.U. after    6 cycles
 Optimization completed.
    -- Stationary point found.

                         Standard orientation:
 ---------------------------------------------------------------------
 Center     Atomic      Atomic             Coordinates (Angstroms)
 Number     Number       Type             X           Y           Z
 ---------------------------------------------------------------------
      1          1           0        4.696080   -2.593889   -1.930291
      2          6           0        4.835964   -2.786597   -0.873269
      3          1           0        5.842835   -3.137887   -0.695794
      4          1           0        4.145973   -3.568422   -0.571898
      5          6           0        4.586065   -1.562998   -0.018228
      6          8           0        5.090179   -1.432599    1.067017
      7          7           0        3.750063   -0.646163   -0.547703
      8          1           0        3.254918   -0.836423   -1.390517
      9          6           0        3.282707    0.486376    0.212887
     10          1           0        3.083599    0.165615    1.228826
     11          6           0        4.319024    1.619420    0.235734
     12          1           0        4.509170    1.974794   -0.770942
     13          1           0        3.989716    2.459218    0.839119
     14          1           0        5.241104    1.241399    0.655358
     15          6           0        1.971249    0.949024   -0.414055
     16          8           0        1.616069    0.566932   -1.490458
     17          7           0        1.299473    1.931468    0.282774
     18          1           0        1.720798    2.099912    1.170943
     19          6           0       -0.157320    1.953093    0.395339
     20          1           0       -0.381501    2.350827    1.378327
     21          6           0       -0.740934    2.894941   -0.667723
     22          1           0       -0.550167    2.498248   -1.657051
     23          1           0       -1.807823    3.048688   -0.552777
     24          1           0       -0.254965    3.859302   -0.589449
     25          6           0       -0.791900    0.552085    0.357911
     26          8           0       -0.140930   -0.456085    0.409389
     27          7           0       -2.136242    0.541230    0.459897
     28          1           0       -2.677608    1.369595    0.355324
     29          6           0       -2.887597   -0.692838    0.465025
     30          1           0       -2.397335   -1.396100   -0.196612
     31          6           0       -2.972209   -1.304085    1.869512
     32          1           0       -3.476045   -0.623153    2.546766
     33          1           0       -3.514700   -2.243623    1.859383
     34          1           0       -1.971964   -1.489972    2.237481
     35          6           0       -4.283098   -0.375984   -0.067625
     36          8           0       -4.715589    0.748084   -0.065936
     37          7           0       -4.997704   -1.431754   -0.492967
     38          1           0       -4.551302   -2.316012   -0.569969
     39          6           0       -6.337981   -1.280859   -1.022411
     40          1           0       -6.936317   -0.686115   -0.347553
     41          1           0       -6.331414   -0.798125   -1.992788
     42          1           0       -6.783835   -2.261455   -1.118576
 ---------------------------------------------------------------------

 The electronic state is 1-A.
 Alpha  occ. eigenvalues --  -20.54135 -20.53295 -20.53203 -20.50870 -15.60165
 Alpha  occ. eigenvalues --  -15.58753 -15.58668 -15.56883 -11.36051 -11.35508
 Alpha  occ. eigenvalues --  -11.35168 -11.33573 -11.29439 -11.28812 -11.27309
 Alpha  occ. eigenvalues --  -11.26947 -11.22980 -11.22680 -11.22136 -11.21805
 Alpha  occ. eigenvalues --   -1.41293  -1.40761  -1.39436  -1.37659  -1.24962
 Alpha  occ. eigenvalues --   -1.24621  -1.24156  -1.22651  -1.07473  -1.04906
 Alpha  occ. eigenvalues --   -1.02205  -0.97973  -0.96935  -0.91437  -0.89693
 Alpha  occ. eigenvalues --   -0.87017  -0.81725  -0.79600  -0.79216  -0.77436
 Alpha  occ. eigenvalues --   -0.73704  -0.72450  -0.68181  -0.68097  -0.66614
 Alpha  occ. eigenvalues --   -0.65689  -0.64974  -0.64351  -0.63465  -0.62642
 Alpha  occ. eigenvalues --   -0.61217  -0.60745  -0.60455  -0.59540  -0.58444
 Alpha  occ. eigenvalues --   -0.57879  -0.56701  -0.56594  -0.55965  -0.55483
 Alpha  occ. eigenvalues --   -0.54914  -0.54649  -0.54067  -0.53736  -0.52639
 Alpha  occ. eigenvalues --   -0.52062  -0.51728  -0.49921  -0.48466  -0.43959
 Alpha  occ. eigenvalues --   -0.43400  -0.42325  -0.40965  -0.40620  -0.40026
 Alpha  occ. eigenvalues --   -0.38851  -0.37449
 Alpha virt. eigenvalues --    0.17617   0.18866   0.19169   0.20620   0.21421
 Alpha virt. eigenvalues --    0.22061   0.24467   0.25030   0.25926   0.27601
 Alpha virt. eigenvalues --    0.28095   0.28985   0.29164   0.30446   0.30807

 Mulliken atomic charges:
              1
     1  H    0.175506
     2  C   -0.578802
     3  H    0.206155
     4  H    0.200489
     5  C    0.753211
     6  O   -0.623415
     7  N   -0.815960
     8  H    0.421807
     9  C   -0.044555
    10  H    0.218371
    11  C   -0.487008
    12  H    0.176978
    13  H    0.152222
    14  H    0.215876
    15  C    0.810540
    16  O   -0.610311
    17  N   -0.792034
    18  H    0.376888
    19  C   -0.062688
    20  H    0.207230
    21  C   -0.483114
    22  H    0.208719
    23  H    0.161086
    24  H    0.185156
    25  C    0.791489
    26  O   -0.627536
    27  N   -0.842120
    28  H    0.431285
    29  C   -0.034141
    30  H    0.217934
    31  C   -0.482306
    32  H    0.178212
    33  H    0.159884
    34  H    0.209982
    35  C    0.775803
    36  O   -0.632581
    37  N   -0.798364
    38  H    0.390989
    39  C   -0.273344
    40  H    0.203619
    41  H    0.185597
    42  H    0.173252
 Sum of Mulliken atomic charges =   0.00000

 Dipole moment (field-independent basis, Debye):
    X=             -4.7025    Y=             -0.6775    Z=             -0.3219  Tot=              4.7620
 Quadrupole moment (field-independent basis, Debye-Ang):
   XX=           -125.4674   YY=           -107.8536   ZZ=           -121.7995
   XY=             20.2178   XZ=             -6.4044   YZ=             11.7520

 Normal termination of Gaussian 09 at Tue Dec 27 07:26:30 2016.
