 Gaussian 09, Revision A.02,
 Gaussian 09:  EM64L-G09RevA.02 11-Jun-2009

 -------------------------------------------------------------------
 # HF/6-31G* Opt=(ModRedundant, maxcycles=1000, calcfc) geom=nocrowd
 -------------------------------------------------------------------

 ------------------
 Phi Psi fixed scan
 ------------------
 Symbolic Z-matrix:
 Charge =  0 Multiplicity = 1

 SCF Done:  E(RHF) =  -984.397204342     A.U. after   15 cycles

  Exact polarizability:   0.000   0.000   0.000   0.000   0.000   0.000
 Approx polarizability: 137.538  -6.725 137.942   7.869   3.851 118.370

 SCF Done:  E(RHF) =  -984.439359821     A.U. after   14 cycles
 SCF Done:  E(RHF) =  -984.491531794     A.U. after   15 cycles
 SCF Done:  E(RHF) =  -984.526795668     A.U. after   13 cycles
 SCF Done:  E(RHF) =  -984.525378961     A.U. after   16 cycles
 SCF Done:  E(RHF) =  -984.531460017     A.U. after   15 cycles
 SCF Done:  E(RHF) =  -984.530679500     A.U. after   13 cycles
 SCF Done:  E(RHF) =  -984.537025339     A.U. after   13 cycles
 SCF Done:  E(RHF) =  -984.539758147     A.U. after   13 cycles
 SCF Done:  E(RHF) =  -984.544208274     A.U. after   13 cycles
 SCF Done:  E(RHF) =  -984.549712431     A.U. after    9 cycles
 SCF Done:  E(RHF) =  -984.549713019     A.U. after    9 cycles
 SCF Done:  E(RHF) =  -984.549713189     A.U. after    9 cycles
 SCF Done:  E(RHF) =  -984.549713251     A.U. after    8 cycles
 SCF Done:  E(RHF) =  -984.549713300     A.U. after    8 cycles
 SCF Done:  E(RHF) =  -984.549713343     A.U. after    8 cycles
 SCF Done:  E(RHF) =  -984.549713375     A.U. after    8 cycles
 SCF Done:  E(RHF) =  -984.549713400     A.U. after    7 cycles
 SCF Done:  E(RHF) =  -984.549713419     A.U. after    8 cycles
 SCF Done:  E(RHF) =  -984.549713424     A.U. after    7 cycles
 Optimization completed.
    -- Stationary point found.

                         Standard orientation:
 ---------------------------------------------------------------------
 Center     Atomic      Atomic             Coordinates (Angstroms)
 Number     Number       Type             X           Y           Z
 ---------------------------------------------------------------------
      1          1           0       -4.655639    3.384827    1.310802
      2          6           0       -4.284166    3.001272    0.369987
      3          1           0       -3.324211    3.450748    0.147110
      4          1           0       -4.989022    3.282247   -0.405141
      5          6           0       -4.232212    1.491250    0.449238
      6          8           0       -5.124820    0.852297    0.942940
      7          7           0       -3.137487    0.912487   -0.085752
      8          1           0       -2.401449    1.457114   -0.476072
      9          6           0       -2.955474   -0.517399   -0.094051
     10          1           0       -3.324792   -0.908392    0.845409
     11          6           0       -3.712895   -1.189754   -1.248019
     12          1           0       -3.349345   -0.821975   -2.201255
     13          1           0       -3.595074   -2.268305   -1.227394
     14          1           0       -4.766079   -0.958752   -1.159882
     15          6           0       -1.455749   -0.787545   -0.215912
     16          8           0       -0.722746    0.043386   -0.687978
     17          7           0       -1.075877   -2.022204    0.162808
     18          1           0       -1.792190   -2.563621    0.592016
     19          6           0        0.255970   -2.616126    0.346138
     20          1           0        0.149201   -3.293174    1.178267
     21          6           0        0.653180   -3.414665   -0.902755
     22          1           0        0.742121   -2.761830   -1.762752
     23          1           0        1.602073   -3.916306   -0.747431
     24          1           0       -0.100140   -4.164363   -1.118601
     25          6           0        1.457172   -1.748859    0.773633
     26          8           0        2.083113   -2.133385    1.731932
     27          7           0        1.858687   -0.722013    0.014883
     28          1           0        1.234645   -0.310320   -0.647874
     29          6           0        3.055454    0.013792    0.361406
     30          1           0        3.105104    0.105025    1.439473
     31          6           0        4.322239   -0.696832   -0.132997
     32          1           0        4.299070   -0.791058   -1.212758
     33          1           0        5.213861   -0.145499    0.147892
     34          1           0        4.376318   -1.683419    0.307807
     35          6           0        2.964687    1.397749   -0.271443
     36          8           0        2.354761    1.591843   -1.288196
     37          7           0        3.662027    2.364698    0.358102
     38          1           0        4.048802    2.175255    1.253080
     39          6           0        3.688649    3.724665   -0.136949
     40          1           0        3.916319    3.727804   -1.193106
     41          1           0        2.737097    4.223443    0.009496
     42          1           0        4.458285    4.271372    0.391394
 ---------------------------------------------------------------------

 The electronic state is 1-A.
 Alpha  occ. eigenvalues --  -20.54835 -20.52701 -20.52258 -20.51755 -15.60949
 Alpha  occ. eigenvalues --  -15.59050 -15.58218 -15.57203 -11.36967 -11.34864
 Alpha  occ. eigenvalues --  -11.34715 -11.34621 -11.29491 -11.28713 -11.27596
 Alpha  occ. eigenvalues --  -11.26138 -11.23030 -11.22984 -11.22835 -11.21917
 Alpha  occ. eigenvalues --   -1.41832  -1.39845  -1.38979  -1.38670  -1.26014
 Alpha  occ. eigenvalues --   -1.23894  -1.23797  -1.23084  -1.07704  -1.04814
 Alpha  occ. eigenvalues --   -1.03027  -0.98970  -0.96029  -0.91604  -0.89633
 Alpha  occ. eigenvalues --   -0.87374  -0.82332  -0.79511  -0.79082  -0.77835
 Alpha  occ. eigenvalues --   -0.74447  -0.72801  -0.69180  -0.67675  -0.66108
 Alpha  occ. eigenvalues --   -0.66009  -0.64470  -0.63795  -0.63090  -0.62563
 Alpha  occ. eigenvalues --   -0.62438  -0.61753  -0.59987  -0.59341  -0.59065
 Alpha  occ. eigenvalues --   -0.57495  -0.57034  -0.56853  -0.55853  -0.55783
 Alpha  occ. eigenvalues --   -0.54961  -0.54810  -0.53845  -0.53041  -0.52920
 Alpha  occ. eigenvalues --   -0.52680  -0.51901  -0.49924  -0.49679  -0.44254
 Alpha  occ. eigenvalues --   -0.43601  -0.42130  -0.41556  -0.39877  -0.39518
 Alpha  occ. eigenvalues --   -0.38542  -0.37781
 Alpha virt. eigenvalues --    0.17783   0.18796   0.19345   0.20705   0.21130
 Alpha virt. eigenvalues --    0.21653   0.23864   0.25866   0.26451   0.27195
 Alpha virt. eigenvalues --    0.28148   0.28853   0.29503   0.30036   0.30563

 Mulliken atomic charges:
              1
     1  H    0.208174
     2  C   -0.576252
     3  H    0.175105
     4  H    0.203518
     5  C    0.755922
     6  O   -0.622262
     7  N   -0.824322
     8  H    0.422691
     9  C   -0.036896
    10  H    0.217255
    11  C   -0.485757
    12  H    0.180991
    13  H    0.158374
    14  H    0.213362
    15  C    0.804754
    16  O   -0.644707
    17  N   -0.842171
    18  H    0.394736
    19  C   -0.022599
    20  H    0.226104
    21  C   -0.480546
    22  H    0.189885
    23  H    0.185833
    24  H    0.169652
    25  C    0.756716
    26  O   -0.633086
    27  N   -0.836545
    28  H    0.484278
    29  C   -0.023920
    30  H    0.205422
    31  C   -0.486589
    32  H    0.182489
    33  H    0.159455
    34  H    0.204596
    35  C    0.764638
    36  O   -0.616438
    37  N   -0.800577
    38  H    0.387572
    39  C   -0.271155
    40  H    0.202630
    41  H    0.180515
    42  H    0.169154
 Sum of Mulliken atomic charges =   0.00000

 Dipole moment (field-independent basis, Debye):
    X=              1.9518    Y=              0.6627    Z=             -0.0017  Tot=              2.0613
 Quadrupole moment (field-independent basis, Debye-Ang):
   XX=           -128.1064   YY=           -101.7994   ZZ=           -128.5426
   XY=             12.8768   XZ=             10.0312   YZ=              9.5750

 Normal termination of Gaussian 09 at Tue Dec 27 07:59:19 2016.
