 Gaussian 09, Revision A.02,
 Gaussian 09:  EM64L-G09RevA.02 11-Jun-2009

 -------------------------------------------------------------------
 # HF/6-31G* Opt=(ModRedundant, maxcycles=1000, calcfc) geom=nocrowd
 -------------------------------------------------------------------

 ------------------
 Phi Psi fixed scan
 ------------------
 Symbolic Z-matrix:
 Charge =  0 Multiplicity = 1

 SCF Done:  E(RHF) =  -984.506332983     A.U. after   15 cycles

  Exact polarizability:   0.000   0.000   0.000   0.000   0.000   0.000
 Approx polarizability: 133.623   1.586 129.853  17.947  -3.536 126.773

 SCF Done:  E(RHF) =  -984.523133691     A.U. after   13 cycles
 SCF Done:  E(RHF) =  -984.539276812     A.U. after   14 cycles
 SCF Done:  E(RHF) =  -984.545568059     A.U. after   14 cycles
 SCF Done:  E(RHF) =  -984.549262994     A.U. after   13 cycles
 SCF Done:  E(RHF) =  -984.551128814     A.U. after   15 cycles
 SCF Done:  E(RHF) =  -984.552502422     A.U. after   15 cycles
 SCF Done:  E(RHF) =  -984.258438789     A.U. after   15 cycles
 SCF Done:  E(RHF) =  -984.552831601     A.U. after   16 cycles
 SCF Done:  E(RHF) =  -984.548267202     A.U. after   15 cycles
 SCF Done:  E(RHF) =  -984.553401532     A.U. after   11 cycles
 SCF Done:  E(RHF) =  -984.553405146     A.U. after   11 cycles
 SCF Done:  E(RHF) =  -984.553406433     A.U. after   10 cycles
 SCF Done:  E(RHF) =  -984.553407738     A.U. after    9 cycles
 SCF Done:  E(RHF) =  -984.553408779     A.U. after    9 cycles
 SCF Done:  E(RHF) =  -984.553409131     A.U. after    9 cycles
 SCF Done:  E(RHF) =  -984.553409471     A.U. after    9 cycles
 SCF Done:  E(RHF) =  -984.553409616     A.U. after    9 cycles
 SCF Done:  E(RHF) =  -984.553409688     A.U. after    8 cycles
 SCF Done:  E(RHF) =  -984.553409706     A.U. after    7 cycles
 Optimization completed.
    -- Stationary point found.

                         Standard orientation:
 ---------------------------------------------------------------------
 Center     Atomic      Atomic             Coordinates (Angstroms)
 Number     Number       Type             X           Y           Z
 ---------------------------------------------------------------------
      1          1           0       -3.969121   -4.080183    0.462505
      2          6           0       -3.143526   -3.409992    0.653492
      3          1           0       -2.234975   -3.855801    0.260887
      4          1           0       -3.019827   -3.275076    1.721965
      5          6           0       -3.397891   -2.101413   -0.061381
      6          8           0       -4.123551   -2.019903   -1.017189
      7          7           0       -2.728765   -1.035846    0.431703
      8          1           0       -2.111992   -1.130994    1.207220
      9          6           0       -2.779884    0.258926   -0.200935
     10          1           0       -2.859441    0.104151   -1.268837
     11          6           0       -3.977953    1.091542    0.273594
     12          1           0       -3.919446    1.258240    1.343284
     13          1           0       -4.012111    2.055128   -0.225181
     14          1           0       -4.891145    0.555614    0.049916
     15          6           0       -1.477073    0.981905    0.132405
     16          8           0       -0.899058    0.769812    1.166509
     17          7           0       -1.084838    1.900174   -0.775724
     18          1           0       -1.613533    1.927207   -1.618058
     19          6           0        0.154633    2.679745   -0.819037
     20          1           0        0.387652    2.786728   -1.873656
     21          6           0       -0.082305    4.070148   -0.226132
     22          1           0       -0.306811    3.991212    0.831057
     23          1           0        0.789539    4.695184   -0.347561
     24          1           0       -0.927309    4.535680   -0.722275
     25          6           0        1.433420    2.063503   -0.221967
     26          8           0        2.313475    2.804452    0.130779
     27          7           0        1.577301    0.729416   -0.245881
     28          1           0        0.790602    0.135389   -0.361495
     29          6           0        2.743024    0.087546    0.316255
     30          1           0        3.619358    0.619317   -0.029987
     31          6           0        2.728863    0.077910    1.851420
     32          1           0        1.847749   -0.438403    2.213153
     33          1           0        3.611600   -0.417006    2.244431
     34          1           0        2.711700    1.095323    2.217637
     35          6           0        2.755850   -1.345240   -0.206272
     36          8           0        1.733637   -1.929163   -0.460304
     37          7           0        3.967372   -1.919612   -0.309606
     38          1           0        4.778593   -1.363575   -0.171053
     39          6           0        4.125948   -3.287654   -0.757367
     40          1           0        3.876693   -3.393567   -1.806689
     41          1           0        5.155540   -3.583231   -0.607789
     42          1           0        3.484533   -3.943413   -0.185736
 ---------------------------------------------------------------------

 The electronic state is 1-A.
 Alpha  occ. eigenvalues --  -20.54396 -20.53295 -20.52417 -20.51655 -15.60799
 Alpha  occ. eigenvalues --  -15.59621 -15.57874 -15.57726 -11.36534 -11.35257
 Alpha  occ. eigenvalues --  -11.35150 -11.34331 -11.29480 -11.28417 -11.27936
 Alpha  occ. eigenvalues --  -11.26561 -11.22569 -11.22531 -11.21753 -11.21720
 Alpha  occ. eigenvalues --   -1.41514  -1.40316  -1.39305  -1.38478  -1.25932
 Alpha  occ. eigenvalues --   -1.24340  -1.23709  -1.23376  -1.07246  -1.04667
 Alpha  occ. eigenvalues --   -1.02930  -0.98621  -0.96418  -0.91438  -0.89695
 Alpha  occ. eigenvalues --   -0.86698  -0.82259  -0.79824  -0.78887  -0.78663
 Alpha  occ. eigenvalues --   -0.74246  -0.72542  -0.69027  -0.67296  -0.66762
 Alpha  occ. eigenvalues --   -0.65966  -0.64536  -0.64238  -0.63496  -0.63039
 Alpha  occ. eigenvalues --   -0.61626  -0.60921  -0.60146  -0.59303  -0.58707
 Alpha  occ. eigenvalues --   -0.58568  -0.56847  -0.56253  -0.56213  -0.55295
 Alpha  occ. eigenvalues --   -0.54788  -0.54395  -0.53282  -0.53023  -0.52746
 Alpha  occ. eigenvalues --   -0.51990  -0.51805  -0.50116  -0.49555  -0.43721
 Alpha  occ. eigenvalues --   -0.42980  -0.42714  -0.41342  -0.40552  -0.40106
 Alpha  occ. eigenvalues --   -0.38499  -0.37873
 Alpha virt. eigenvalues --    0.17658   0.18220   0.19390   0.21148   0.21302
 Alpha virt. eigenvalues --    0.22035   0.24002   0.25953   0.26809   0.27287
 Alpha virt. eigenvalues --    0.28522   0.28954   0.29644   0.30055   0.30619

 Mulliken atomic charges:
              1
     1  H    0.209357
     2  C   -0.582026
     3  H    0.208083
     4  H    0.176850
     5  C    0.752161
     6  O   -0.619671
     7  N   -0.816199
     8  H    0.417203
     9  C   -0.031098
    10  H    0.215299
    11  C   -0.483871
    12  H    0.182247
    13  H    0.159903
    14  H    0.209078
    15  C    0.772681
    16  O   -0.629956
    17  N   -0.837252
    18  H    0.394375
    19  C   -0.033167
    20  H    0.211083
    21  C   -0.461563
    22  H    0.186701
    23  H    0.204023
    24  H    0.154922
    25  C    0.808445
    26  O   -0.634681
    27  N   -0.822107
    28  H    0.429598
    29  C   -0.042086
    30  H    0.207864
    31  C   -0.489873
    32  H    0.193395
    33  H    0.155342
    34  H    0.212067
    35  C    0.782278
    36  O   -0.633783
    37  N   -0.800330
    38  H    0.390229
    39  C   -0.271477
    40  H    0.185164
    41  H    0.171121
    42  H    0.199673
 Sum of Mulliken atomic charges =   0.00000

 Dipole moment (field-independent basis, Debye):
    X=              2.9314    Y=             -0.4332    Z=             -0.4800  Tot=              3.0019
 Quadrupole moment (field-independent basis, Debye-Ang):
   XX=           -113.8836   YY=           -120.6214   ZZ=           -119.7299
   XY=            -22.9588   XZ=             -8.0473   YZ=            -13.2432

 Normal termination of Gaussian 09 at Tue Dec 27 07:44:07 2016.
