 Gaussian 09, Revision A.02,
 Gaussian 09:  EM64L-G09RevA.02 11-Jun-2009

 -------------------------------------------------------------------
 # HF/6-31G* Opt=(ModRedundant, maxcycles=1000, calcfc) geom=nocrowd
 -------------------------------------------------------------------

 ------------------
 Phi Psi fixed scan
 ------------------
 Symbolic Z-matrix:
 Charge =  0 Multiplicity = 1

 SCF Done:  E(RHF) =  -984.529691704     A.U. after   15 cycles

  Exact polarizability:   0.000   0.000   0.000   0.000   0.000   0.000
 Approx polarizability: 135.488   2.595 127.672  12.385  -5.456 126.225

 SCF Done:  E(RHF) =  -984.540039728     A.U. after   13 cycles
 SCF Done:  E(RHF) =  -984.552824890     A.U. after   14 cycles
 SCF Done:  E(RHF) =  -984.556769054     A.U. after   13 cycles
 SCF Done:  E(RHF) =  -984.556914705     A.U. after   16 cycles
 SCF Done:  E(RHF) =  -984.547831823     A.U. after   14 cycles
 SCF Done:  E(RHF) =  -984.557897581     A.U. after   14 cycles
 SCF Done:  E(RHF) =  -984.558896087     A.U. after   13 cycles
 SCF Done:  E(RHF) =  -984.559444522     A.U. after   13 cycles
 SCF Done:  E(RHF) =  -984.559672190     A.U. after   13 cycles
 SCF Done:  E(RHF) =  -984.561116263     A.U. after   10 cycles
 SCF Done:  E(RHF) =  -984.561117386     A.U. after    9 cycles
 SCF Done:  E(RHF) =  -984.561118431     A.U. after   10 cycles
 SCF Done:  E(RHF) =  -984.561119026     A.U. after   10 cycles
 SCF Done:  E(RHF) =  -984.561120024     A.U. after   10 cycles
 SCF Done:  E(RHF) =  -984.561120438     A.U. after    9 cycles
 SCF Done:  E(RHF) =  -984.561120605     A.U. after    8 cycles
 SCF Done:  E(RHF) =  -984.561120758     A.U. after    8 cycles
 SCF Done:  E(RHF) =  -984.561120780     A.U. after    8 cycles
 SCF Done:  E(RHF) =  -984.561120793     A.U. after    7 cycles
 Optimization completed.
    -- Stationary point found.

                         Standard orientation:
 ---------------------------------------------------------------------
 Center     Atomic      Atomic             Coordinates (Angstroms)
 Number     Number       Type             X           Y           Z
 ---------------------------------------------------------------------
      1          1           0       -5.176494   -2.782541   -0.559614
      2          6           0       -5.137855   -1.804243   -1.026964
      3          1           0       -6.154253   -1.478274   -1.201567
      4          1           0       -4.615686   -1.891698   -1.972039
      5          6           0       -4.476156   -0.838022   -0.068699
      6          8           0       -5.063095   -0.385360    0.879690
      7          7           0       -3.187774   -0.540472   -0.333308
      8          1           0       -2.726960   -0.905452   -1.136242
      9          6           0       -2.421622    0.354323    0.497124
     10          1           0       -3.065997    1.169553    0.801761
     11          6           0       -1.872369   -0.344664    1.750001
     12          1           0       -1.198427   -1.148893    1.477620
     13          1           0       -1.338028    0.350416    2.391065
     14          1           0       -2.700536   -0.752388    2.314074
     15          6           0       -1.280374    0.903260   -0.353903
     16          8           0       -0.910353    0.349059   -1.355184
     17          7           0       -0.715135    2.044353    0.099472
     18          1           0       -1.038431    2.405774    0.968498
     19          6           0        0.480556    2.653523   -0.461739
     20          1           0        0.297291    2.836446   -1.513298
     21          6           0        0.721002    3.992889    0.234412
     22          1           0        0.908388    3.851432    1.295638
     23          1           0        1.580081    4.481751   -0.199135
     24          1           0       -0.146144    4.633914    0.119379
     25          6           0        1.779609    1.834169   -0.457581
     26          8           0        2.764446    2.348076   -0.927516
     27          7           0        1.784901    0.596857    0.053864
     28          1           0        0.945835    0.144675    0.330007
     29          6           0        2.955857   -0.245814   -0.017611
     30          1           0        3.431114   -0.093926   -0.979022
     31          6           0        3.963970    0.074284    1.093564
     32          1           0        3.513589   -0.087533    2.066679
     33          1           0        4.847286   -0.550814    1.013534
     34          1           0        4.266971    1.109507    1.012365
     35          6           0        2.481923   -1.691385    0.102926
     36          8           0        1.444285   -1.971067    0.646940
     37          7           0        3.319912   -2.620176   -0.389016
     38          1           0        4.100599   -2.325243   -0.928083
     39          6           0        3.003009   -4.032865   -0.340704
     40          1           0        2.704218   -4.309412    0.660000
     41          1           0        2.198573   -4.284854   -1.022054
     42          1           0        3.886111   -4.594765   -0.613041
 ---------------------------------------------------------------------

 The electronic state is 1-A.
 Alpha  occ. eigenvalues --  -20.54364 -20.53803 -20.52090 -20.51434 -15.60383
 Alpha  occ. eigenvalues --  -15.59862 -15.58249 -15.57854 -11.36228 -11.35725
 Alpha  occ. eigenvalues --  -11.34781 -11.34290 -11.28864 -11.28389 -11.28260
 Alpha  occ. eigenvalues --  -11.26696 -11.23318 -11.22725 -11.22569 -11.22171
 Alpha  occ. eigenvalues --   -1.41445  -1.40730  -1.39085  -1.38336  -1.25863
 Alpha  occ. eigenvalues --   -1.24649  -1.23769  -1.23458  -1.07376  -1.05017
 Alpha  occ. eigenvalues --   -1.03222  -0.98619  -0.96697  -0.91683  -0.89831
 Alpha  occ. eigenvalues --   -0.87043  -0.81862  -0.80692  -0.78993  -0.78574
 Alpha  occ. eigenvalues --   -0.74969  -0.72226  -0.69171  -0.67883  -0.67456
 Alpha  occ. eigenvalues --   -0.65600  -0.65141  -0.64577  -0.63612  -0.62881
 Alpha  occ. eigenvalues --   -0.61764  -0.61072  -0.60273  -0.59059  -0.58238
 Alpha  occ. eigenvalues --   -0.58007  -0.56728  -0.56542  -0.56412  -0.55788
 Alpha  occ. eigenvalues --   -0.55554  -0.54420  -0.54207  -0.53440  -0.52791
 Alpha  occ. eigenvalues --   -0.52532  -0.51932  -0.49717  -0.49287  -0.44654
 Alpha  occ. eigenvalues --   -0.43591  -0.42973  -0.41238  -0.40606  -0.39661
 Alpha  occ. eigenvalues --   -0.38452  -0.38081
 Alpha virt. eigenvalues --    0.18086   0.18446   0.19996   0.20603   0.21048
 Alpha virt. eigenvalues --    0.21563   0.24092   0.25737   0.26437   0.27020
 Alpha virt. eigenvalues --    0.28137   0.28729   0.29350   0.29767   0.30707

 Mulliken atomic charges:
              1
     1  H    0.202633
     2  C   -0.575985
     3  H    0.207914
     4  H    0.173821
     5  C    0.756279
     6  O   -0.622825
     7  N   -0.821377
     8  H    0.419636
     9  C   -0.029518
    10  H    0.219754
    11  C   -0.511195
    12  H    0.212177
    13  H    0.149859
    14  H    0.213645
    15  C    0.766434
    16  O   -0.625110
    17  N   -0.842016
    18  H    0.395385
    19  C    0.000299
    20  H    0.233862
    21  C   -0.522920
    22  H    0.165852
    23  H    0.227178
    24  H    0.180786
    25  C    0.794518
    26  O   -0.642183
    27  N   -0.847022
    28  H    0.447428
    29  C   -0.026327
    30  H    0.213131
    31  C   -0.485831
    32  H    0.178358
    33  H    0.160013
    34  H    0.211119
    35  C    0.777439
    36  O   -0.634702
    37  N   -0.798154
    38  H    0.390583
    39  C   -0.273495
    40  H    0.202729
    41  H    0.185466
    42  H    0.172364
 Sum of Mulliken atomic charges =   0.00000

 Dipole moment (field-independent basis, Debye):
    X=              3.1309    Y=             -1.6751    Z=             -0.2448  Tot=              3.5593
 Quadrupole moment (field-independent basis, Debye-Ang):
   XX=           -127.4119   YY=           -107.3581   ZZ=           -122.9284
   XY=            -14.2386   XZ=              9.9924   YZ=             12.1613

 Normal termination of Gaussian 09 at Tue Dec 27 11:31:11 2016.
