 Gaussian 09, Revision A.02,
 Gaussian 09:  EM64L-G09RevA.02 11-Jun-2009

 -------------------------------------------------------------------
 # HF/6-31G* Opt=(ModRedundant, maxcycles=1000, calcfc) geom=nocrowd
 -------------------------------------------------------------------

 ------------------
 Phi Psi fixed scan
 ------------------
 Symbolic Z-matrix:
 Charge =  0 Multiplicity = 1

 SCF Done:  E(RHF) =  -984.535816798     A.U. after   15 cycles

  Exact polarizability:   0.000   0.000   0.000   0.000   0.000   0.000
 Approx polarizability: 121.736   0.580 120.678  -6.780  -4.576 146.086

 SCF Done:  E(RHF) =  -984.544711570     A.U. after   13 cycles
 SCF Done:  E(RHF) =  -984.554190790     A.U. after   16 cycles
 SCF Done:  E(RHF) =  -984.556465102     A.U. after   13 cycles
 SCF Done:  E(RHF) =  -984.558884839     A.U. after   13 cycles
 SCF Done:  E(RHF) =  -984.559448005     A.U. after   16 cycles
 SCF Done:  E(RHF) =  -984.422768987     A.U. after   16 cycles
 SCF Done:  E(RHF) =  -984.559550761     A.U. after   16 cycles
 SCF Done:  E(RHF) =  -984.559574886     A.U. after   12 cycles
 SCF Done:  E(RHF) =  -984.559802733     A.U. after   13 cycles
 SCF Done:  E(RHF) =  -984.560163263     A.U. after    9 cycles
 SCF Done:  E(RHF) =  -984.560164062     A.U. after   10 cycles
 SCF Done:  E(RHF) =  -984.560165066     A.U. after   10 cycles
 SCF Done:  E(RHF) =  -984.560165891     A.U. after    9 cycles
 SCF Done:  E(RHF) =  -984.560166960     A.U. after   10 cycles
 SCF Done:  E(RHF) =  -984.560167202     A.U. after   10 cycles
 SCF Done:  E(RHF) =  -984.560167440     A.U. after    9 cycles
 SCF Done:  E(RHF) =  -984.560167490     A.U. after    8 cycles
 SCF Done:  E(RHF) =  -984.560167697     A.U. after    9 cycles
 SCF Done:  E(RHF) =  -984.560167731     A.U. after    8 cycles
 Optimization completed.
    -- Stationary point found.

                         Standard orientation:
 ---------------------------------------------------------------------
 Center     Atomic      Atomic             Coordinates (Angstroms)
 Number     Number       Type             X           Y           Z
 ---------------------------------------------------------------------
      1          1           0       -6.695972    0.718893    1.036349
      2          6           0       -5.723120    1.133892    1.263356
      3          1           0       -5.374592    0.745419    2.212532
      4          1           0       -5.831717    2.210051    1.345683
      5          6           0       -4.786759    0.830753    0.113925
      6          8           0       -5.136207    0.942724   -1.032446
      7          7           0       -3.539245    0.451022    0.457696
      8          1           0       -3.274329    0.348041    1.411492
      9          6           0       -2.531791    0.140762   -0.526589
     10          1           0       -3.010955   -0.379141   -1.346505
     11          6           0       -1.840414    1.399966   -1.068035
     12          1           0       -1.351908    1.936478   -0.262245
     13          1           0       -1.093477    1.155511   -1.815972
     14          1           0       -2.582706    2.043992   -1.520803
     15          6           0       -1.509340   -0.772567    0.141457
     16          8           0       -1.336297   -0.764087    1.330272
     17          7           0       -0.785856   -1.547534   -0.695381
     18          1           0       -1.035169   -1.564611   -1.658403
     19          6           0        0.231909   -2.480183   -0.235235
     20          1           0       -0.210398   -3.153112    0.486708
     21          6           0        0.770480   -3.282396   -1.417131
     22          1           0        1.208824   -2.640385   -2.173347
     23          1           0        1.532577   -3.973393   -1.078216
     24          1           0       -0.028229   -3.859156   -1.872086
     25          6           0        1.361483   -1.788320    0.535858
     26          8           0        1.685908   -2.165062    1.626702
     27          7           0        2.048026   -0.850632   -0.155975
     28          1           0        1.645350   -0.449759   -0.974905
     29          6           0        3.068135   -0.048555    0.477554
     30          1           0        2.822824    0.053660    1.528023
     31          6           0        4.451943   -0.697605    0.352204
     32          1           0        4.729509   -0.797256   -0.691469
     33          1           0        5.214466   -0.114247    0.857640
     34          1           0        4.421050   -1.681905    0.800968
     35          6           0        3.046173    1.330573   -0.179088
     36          8           0        2.487475    1.522817   -1.229126
     37          7           0        3.714295    2.296517    0.475370
     38          1           0        4.059865    2.108618    1.387737
     39          6           0        3.765563    3.656802   -0.020051
     40          1           0        4.055877    3.659569   -1.060657
     41          1           0        2.805298    4.151539    0.070269
     42          1           0        4.500685    4.205715    0.552665
 ---------------------------------------------------------------------

 The electronic state is 1-A.
 Alpha  occ. eigenvalues --  -20.54083 -20.53919 -20.52317 -20.51494 -15.60283
 Alpha  occ. eigenvalues --  -15.59880 -15.57961 -15.57888 -11.35950 -11.35776
 Alpha  occ. eigenvalues --  -11.34383 -11.34371 -11.28612 -11.28262 -11.28218
 Alpha  occ. eigenvalues --  -11.26766 -11.24208 -11.22797 -11.22683 -11.22214
 Alpha  occ. eigenvalues --   -1.41204  -1.40805  -1.39045  -1.38393  -1.25801
 Alpha  occ. eigenvalues --   -1.24684  -1.23612  -1.23380  -1.07692  -1.04977
 Alpha  occ. eigenvalues --   -1.03160  -0.98696  -0.96683  -0.91824  -0.89788
 Alpha  occ. eigenvalues --   -0.87214  -0.81956  -0.80592  -0.78710  -0.78430
 Alpha  occ. eigenvalues --   -0.74497  -0.72365  -0.69145  -0.67488  -0.66628
 Alpha  occ. eigenvalues --   -0.65767  -0.65371  -0.64708  -0.63105  -0.62986
 Alpha  occ. eigenvalues --   -0.62723  -0.61273  -0.59963  -0.59087  -0.58237
 Alpha  occ. eigenvalues --   -0.57740  -0.57047  -0.56727  -0.56500  -0.56216
 Alpha  occ. eigenvalues --   -0.55612  -0.54593  -0.54441  -0.53508  -0.53173
 Alpha  occ. eigenvalues --   -0.52614  -0.51704  -0.50258  -0.49455  -0.43682
 Alpha  occ. eigenvalues --   -0.43158  -0.43014  -0.41300  -0.40620  -0.39757
 Alpha  occ. eigenvalues --   -0.38597  -0.38224
 Alpha virt. eigenvalues --    0.18411   0.18488   0.19817   0.20501   0.21016
 Alpha virt. eigenvalues --    0.21391   0.23969   0.25480   0.25696   0.26800
 Alpha virt. eigenvalues --    0.28130   0.28275   0.28950   0.29455   0.30067

 Mulliken atomic charges:
              1
     1  H    0.208062
     2  C   -0.576148
     3  H    0.174370
     4  H    0.202370
     5  C    0.756260
     6  O   -0.622642
     7  N   -0.822912
     8  H    0.418578
     9  C   -0.033416
    10  H    0.214579
    11  C   -0.487015
    12  H    0.179077
    13  H    0.168633
    14  H    0.209535
    15  C    0.789056
    16  O   -0.616415
    17  N   -0.846130
    18  H    0.393990
    19  C   -0.027979
    20  H    0.234625
    21  C   -0.517840
    22  H    0.177021
    23  H    0.203339
    24  H    0.181866
    25  C    0.787282
    26  O   -0.612584
    27  N   -0.815691
    28  H    0.419411
    29  C   -0.043733
    30  H    0.221688
    31  C   -0.476385
    32  H    0.176415
    33  H    0.156086
    34  H    0.206685
    35  C    0.773833
    36  O   -0.635327
    37  N   -0.796599
    38  H    0.391064
    39  C   -0.272476
    40  H    0.202964
    41  H    0.183815
    42  H    0.172689
 Sum of Mulliken atomic charges =   0.00000

 Dipole moment (field-independent basis, Debye):
    X=              3.3797    Y=              1.1955    Z=             -0.0958  Tot=              3.5862
 Quadrupole moment (field-independent basis, Debye-Ang):
   XX=           -117.4851   YY=           -111.5453   ZZ=           -126.4887
   XY=             12.9754   XZ=             -7.6188   YZ=             20.0717

 Normal termination of Gaussian 09 at Tue Dec 27 10:09:42 2016.
