 Gaussian 09, Revision A.02,
 Gaussian 09:  EM64L-G09RevA.02 11-Jun-2009

 -------------------------------------------------------------------
 # HF/6-31G* Opt=(ModRedundant, maxcycles=1000, calcfc) geom=nocrowd
 -------------------------------------------------------------------

 ------------------
 Phi Psi fixed scan
 ------------------
 Symbolic Z-matrix:
 Charge =  0 Multiplicity = 1

 SCF Done:  E(RHF) =  -984.512513915     A.U. after   15 cycles

  Exact polarizability:   0.000   0.000   0.000   0.000   0.000   0.000
 Approx polarizability: 133.649   1.407 140.200  -4.059   3.229 115.486

 SCF Done:  E(RHF) =  -984.524541204     A.U. after   13 cycles
 SCF Done:  E(RHF) =  -984.539944912     A.U. after   14 cycles
 SCF Done:  E(RHF) =  -984.546843723     A.U. after   13 cycles
 SCF Done:  E(RHF) =  -984.547971997     A.U. after   15 cycles
 SCF Done:  E(RHF) =  -984.552410655     A.U. after   15 cycles
 SCF Done:  E(RHF) =  -984.553888413     A.U. after   16 cycles
 SCF Done:  E(RHF) =  -984.488463351     A.U. after   16 cycles
 SCF Done:  E(RHF) =  -984.554688464     A.U. after   16 cycles
 SCF Done:  E(RHF) =  -984.550376098     A.U. after   15 cycles
 SCF Done:  E(RHF) =  -984.555793073     A.U. after    9 cycles
 SCF Done:  E(RHF) =  -984.555793127     A.U. after    7 cycles
 SCF Done:  E(RHF) =  -984.555793176     A.U. after    7 cycles
 SCF Done:  E(RHF) =  -984.555793232     A.U. after    8 cycles
 SCF Done:  E(RHF) =  -984.555793316     A.U. after    7 cycles
 SCF Done:  E(RHF) =  -984.555793471     A.U. after    8 cycles
 SCF Done:  E(RHF) =  -984.555793637     A.U. after    9 cycles
 SCF Done:  E(RHF) =  -984.555793723     A.U. after    9 cycles
 SCF Done:  E(RHF) =  -984.555793733     A.U. after    7 cycles
 SCF Done:  E(RHF) =  -984.555793734     A.U. after    6 cycles
 Optimization completed.
    -- Stationary point found.

                         Standard orientation:
 ---------------------------------------------------------------------
 Center     Atomic      Atomic             Coordinates (Angstroms)
 Number     Number       Type             X           Y           Z
 ---------------------------------------------------------------------
      1          1           0        7.412786   -0.329384    0.491315
      2          6           0        6.544131   -0.935034    0.714997
      3          1           0        6.252529   -0.782101    1.746853
      4          1           0        6.822066   -1.974291    0.579118
      5          6           0        5.450562   -0.596269   -0.275302
      6          8           0        5.669791   -0.540086   -1.458242
      7          7           0        4.228551   -0.383009    0.248981
      8          1           0        4.080127   -0.388464    1.232982
      9          6           0        3.090654   -0.031888   -0.564624
     10          1           0        3.422460    0.653297   -1.335867
     11          6           0        2.456389   -1.261884   -1.228745
     12          1           0        2.088245   -1.949035   -0.477487
     13          1           0        1.624436   -0.985872   -1.868284
     14          1           0        3.204694   -1.754704   -1.835133
     15          6           0        2.086326    0.679538    0.336075
     16          8           0        2.136803    0.597248    1.529070
     17          7           0        1.188492    1.484381   -0.316711
     18          1           0        1.188250    1.372810   -1.308790
     19          6           0       -0.131037    1.735181    0.232702
     20          1           0        0.016674    2.109427    1.239144
     21          6           0       -0.810148    2.822755   -0.600170
     22          1           0       -1.061520    2.469381   -1.595699
     23          1           0       -1.717643    3.185201   -0.132619
     24          1           0       -0.135955    3.664458   -0.695608
     25          6           0       -0.928174    0.425318    0.397482
     26          8           0       -0.376436   -0.629043    0.568925
     27          7           0       -2.266301    0.519142    0.284907
     28          1           0       -2.727451    1.385694    0.127844
     29          6           0       -3.130977   -0.624235    0.461479
     30          1           0       -2.687792   -1.466861   -0.054086
     31          6           0       -3.324768   -0.987349    1.939985
     32          1           0       -3.784902   -0.162440    2.472985
     33          1           0       -3.956807   -1.862446    2.049540
     34          1           0       -2.362526   -1.201690    2.385385
     35          6           0       -4.471164   -0.272065   -0.178149
     36          8           0       -4.810875    0.873478   -0.330422
     37          7           0       -5.250097   -1.314300   -0.512898
     38          1           0       -4.881798   -2.234412   -0.444777
     39          6           0       -6.558963   -1.128287   -1.106033
     40          1           0       -7.138054   -0.431788   -0.516764
     41          1           0       -6.485902   -0.745379   -2.117130
     42          1           0       -7.067676   -2.082367   -1.125707
 ---------------------------------------------------------------------

 The electronic state is 1-A.
 Alpha  occ. eigenvalues --  -20.54267 -20.53080 -20.53060 -20.50725 -15.60370
 Alpha  occ. eigenvalues --  -15.59083 -15.58901 -15.57112 -11.36210 -11.35413
 Alpha  occ. eigenvalues --  -11.34954 -11.33639 -11.28987 -11.28961 -11.27224
 Alpha  occ. eigenvalues --  -11.27135 -11.24161 -11.23042 -11.22216 -11.21243
 Alpha  occ. eigenvalues --   -1.41332  -1.40595  -1.39441  -1.37599  -1.25145
 Alpha  occ. eigenvalues --   -1.24790  -1.24421  -1.22742  -1.07605  -1.04913
 Alpha  occ. eigenvalues --   -1.02553  -0.97967  -0.97124  -0.91900  -0.89802
 Alpha  occ. eigenvalues --   -0.87034  -0.81480  -0.80074  -0.79627  -0.77563
 Alpha  occ. eigenvalues --   -0.75359  -0.71237  -0.68473  -0.68114  -0.67442
 Alpha  occ. eigenvalues --   -0.65207  -0.64991  -0.64519  -0.63892  -0.62404
 Alpha  occ. eigenvalues --   -0.61597  -0.60834  -0.60230  -0.59690  -0.58354
 Alpha  occ. eigenvalues --   -0.57442  -0.56888  -0.56778  -0.56346  -0.55752
 Alpha  occ. eigenvalues --   -0.55508  -0.55199  -0.53829  -0.53666  -0.52656
 Alpha  occ. eigenvalues --   -0.51865  -0.51522  -0.50209  -0.48636  -0.44781
 Alpha  occ. eigenvalues --   -0.43499  -0.42235  -0.41067  -0.40566  -0.39480
 Alpha  occ. eigenvalues --   -0.38773  -0.37680
 Alpha virt. eigenvalues --    0.17470   0.19078   0.19725   0.20428   0.21821
 Alpha virt. eigenvalues --    0.22599   0.23622   0.24750   0.25602   0.27277
 Alpha virt. eigenvalues --    0.28357   0.28501   0.29085   0.29499   0.30169

 Mulliken atomic charges:
              1
     1  H    0.204734
     2  C   -0.574088
     3  H    0.172306
     4  H    0.201540
     5  C    0.757349
     6  O   -0.626489
     7  N   -0.822164
     8  H    0.419766
     9  C   -0.053080
    10  H    0.216987
    11  C   -0.477644
    12  H    0.195422
    13  H    0.147552
    14  H    0.203757
    15  C    0.821265
    16  O   -0.616558
    17  N   -0.792314
    18  H    0.376292
    19  C   -0.065715
    20  H    0.240186
    21  C   -0.521754
    22  H    0.176611
    23  H    0.181889
    24  H    0.204657
    25  C    0.794706
    26  O   -0.624994
    27  N   -0.851564
    28  H    0.432609
    29  C   -0.028668
    30  H    0.213569
    31  C   -0.489618
    32  H    0.179379
    33  H    0.160959
    34  H    0.216818
    35  C    0.778052
    36  O   -0.632850
    37  N   -0.799888
    38  H    0.391419
    39  C   -0.272831
    40  H    0.202831
    41  H    0.185989
    42  H    0.173576
 Sum of Mulliken atomic charges =   0.00000

 Dipole moment (field-independent basis, Debye):
    X=             -5.6119    Y=             -1.2672    Z=             -0.1469  Tot=              5.7551
 Quadrupole moment (field-independent basis, Debye-Ang):
   XX=           -120.2462   YY=           -111.9816   ZZ=           -124.5185
   XY=             15.4743   XZ=             14.6357   YZ=             -1.4265

 Normal termination of Gaussian 09 at Tue Dec 27 09:51:02 2016.
