 Gaussian 09, Revision A.02,
 Gaussian 09:  EM64L-G09RevA.02 11-Jun-2009

 -------------------------------------------------------------------
 # HF/6-31G* Opt=(ModRedundant, maxcycles=1000, calcfc) geom=nocrowd
 -------------------------------------------------------------------

 ------------------
 Phi Psi fixed scan
 ------------------
 Symbolic Z-matrix:
 Charge =  0 Multiplicity = 1

 SCF Done:  E(RHF) =  -984.533808849     A.U. after   15 cycles

  Exact polarizability:   0.000   0.000   0.000   0.000   0.000   0.000
 Approx polarizability: 134.487  -2.201 135.158  -7.499  -2.769 118.763

 SCF Done:  E(RHF) =  -984.543323857     A.U. after   12 cycles
 SCF Done:  E(RHF) =  -984.553811531     A.U. after   13 cycles
 SCF Done:  E(RHF) =  -984.556841434     A.U. after   13 cycles
 SCF Done:  E(RHF) =  -984.560435853     A.U. after   15 cycles
 SCF Done:  E(RHF) =  -984.562176739     A.U. after   15 cycles
 SCF Done:  E(RHF) =  -984.561328609     A.U. after   15 cycles
 SCF Done:  E(RHF) =  -984.562533639     A.U. after   14 cycles
 SCF Done:  E(RHF) =  -984.562737695     A.U. after   13 cycles
 SCF Done:  E(RHF) =  -984.562725945     A.U. after   13 cycles
 SCF Done:  E(RHF) =  -984.562995377     A.U. after   11 cycles
 SCF Done:  E(RHF) =  -984.562995989     A.U. after   10 cycles
 SCF Done:  E(RHF) =  -984.562996255     A.U. after    8 cycles
 SCF Done:  E(RHF) =  -984.562996360     A.U. after    8 cycles
 SCF Done:  E(RHF) =  -984.562996450     A.U. after    8 cycles
 SCF Done:  E(RHF) =  -984.562996588     A.U. after    8 cycles
 SCF Done:  E(RHF) =  -984.562996851     A.U. after    8 cycles
 SCF Done:  E(RHF) =  -984.562997193     A.U. after    9 cycles
 SCF Done:  E(RHF) =  -984.562997288     A.U. after    8 cycles
 SCF Done:  E(RHF) =  -984.562997299     A.U. after    7 cycles
 Optimization completed.
    -- Stationary point found.

                         Standard orientation:
 ---------------------------------------------------------------------
 Center     Atomic      Atomic             Coordinates (Angstroms)
 Number     Number       Type             X           Y           Z
 ---------------------------------------------------------------------
      1          1           0       -7.248649   -0.705394   -1.228038
      2          6           0       -6.383265   -1.294454   -0.954177
      3          1           0       -5.870841   -1.623870   -1.849859
      4          1           0       -6.733731   -2.165415   -0.411209
      5          6           0       -5.509815   -0.471471   -0.031552
      6          8           0       -5.977095    0.151680    0.886650
      7          7           0       -4.188729   -0.500352   -0.293875
      8          1           0       -3.828898   -0.997692   -1.076956
      9          6           0       -3.228646    0.233741    0.494447
     10          1           0       -3.663402    1.191493    0.752283
     11          6           0       -2.850383   -0.509392    1.783304
     12          1           0       -2.396183   -1.464077    1.548421
     13          1           0       -2.144302    0.058314    2.379010
     14          1           0       -3.746256   -0.670739    2.368320
     15          6           0       -1.999067    0.458722   -0.376837
     16          8           0       -1.762392   -0.229336   -1.331384
     17          7           0       -1.219833    1.522152   -0.030532
     18          1           0       -1.381605    1.889349    0.882238
     19          6           0        0.156557    1.571028   -0.468496
     20          1           0        0.159851    1.512543   -1.549514
     21          6           0        0.769745    2.904036   -0.030030
     22          1           0        0.816160    2.972592    1.052999
     23          1           0        1.774637    3.030147   -0.411208
     24          1           0        0.161721    3.720493   -0.400354
     25          6           0        0.949934    0.366743    0.064675
     26          8           0        0.463068   -0.438992    0.812700
     27          7           0        2.246281    0.332344   -0.296550
     28          1           0        2.617811    0.974356   -0.961059
     29          6           0        3.129155   -0.740522    0.097015
     30          1           0        2.950294   -0.955714    1.142734
     31          6           0        2.903420   -2.017002   -0.724790
     32          1           0        3.095816   -1.827074   -1.775045
     33          1           0        3.558431   -2.816578   -0.394255
     34          1           0        1.877988   -2.341508   -0.609166
     35          6           0        4.556548   -0.235955   -0.093978
     36          8           0        4.810445    0.638935   -0.881639
     37          7           0        5.499353   -0.860550    0.631938
     38          1           0        5.220465   -1.512427    1.327700
     39          6           0        6.900126   -0.504981    0.529658
     40          1           0        7.203550   -0.487163   -0.507293
     41          1           0        7.095289    0.469588    0.961561
     42          1           0        7.484287   -1.247632    1.055768
 ---------------------------------------------------------------------

 The electronic state is 1-A.
 Alpha  occ. eigenvalues --  -20.54033 -20.53398 -20.53165 -20.50812 -15.60204
 Alpha  occ. eigenvalues --  -15.58902 -15.58850 -15.57238 -11.35996 -11.35196
 Alpha  occ. eigenvalues --  -11.35096 -11.33728 -11.28831 -11.28732 -11.27266
 Alpha  occ. eigenvalues --  -11.26999 -11.24089 -11.22773 -11.22306 -11.21149
 Alpha  occ. eigenvalues --   -1.41161  -1.40681  -1.39484  -1.37700  -1.24969
 Alpha  occ. eigenvalues --   -1.24733  -1.24511  -1.22845  -1.07574  -1.04875
 Alpha  occ. eigenvalues --   -1.02555  -0.98027  -0.96968  -0.91793  -0.89706
 Alpha  occ. eigenvalues --   -0.86749  -0.81398  -0.80076  -0.79459  -0.77717
 Alpha  occ. eigenvalues --   -0.75277  -0.71294  -0.68961  -0.68054  -0.67200
 Alpha  occ. eigenvalues --   -0.65187  -0.64893  -0.64591  -0.63427  -0.62317
 Alpha  occ. eigenvalues --   -0.61564  -0.60791  -0.60490  -0.59905  -0.58533
 Alpha  occ. eigenvalues --   -0.57441  -0.56736  -0.56623  -0.56206  -0.55836
 Alpha  occ. eigenvalues --   -0.55422  -0.54835  -0.53665  -0.53563  -0.52556
 Alpha  occ. eigenvalues --   -0.51960  -0.51627  -0.50201  -0.48696  -0.44258
 Alpha  occ. eigenvalues --   -0.43260  -0.42452  -0.40880  -0.40658  -0.39800
 Alpha  occ. eigenvalues --   -0.39039  -0.37721
 Alpha virt. eigenvalues --    0.18031   0.19403   0.19945   0.20575   0.21068
 Alpha virt. eigenvalues --    0.22234   0.23483   0.24623   0.25737   0.27340
 Alpha virt. eigenvalues --    0.28227   0.28841   0.29195   0.29922   0.30634

 Mulliken atomic charges:
              1
     1  H    0.205624
     2  C   -0.574747
     3  H    0.171824
     4  H    0.201527
     5  C    0.757469
     6  O   -0.624924
     7  N   -0.822514
     8  H    0.417600
     9  C   -0.048818
    10  H    0.219232
    11  C   -0.476640
    12  H    0.188824
    13  H    0.160152
    14  H    0.201616
    15  C    0.810354
    16  O   -0.630147
    17  N   -0.787111
    18  H    0.383262
    19  C   -0.065694
    20  H    0.230511
    21  C   -0.501722
    22  H    0.173264
    23  H    0.187881
    24  H    0.196376
    25  C    0.802648
    26  O   -0.634024
    27  N   -0.838544
    28  H    0.421486
    29  C   -0.032662
    30  H    0.211772
    31  C   -0.489629
    32  H    0.180986
    33  H    0.159886
    34  H    0.217955
    35  C    0.780507
    36  O   -0.632893
    37  N   -0.800166
    38  H    0.390819
    39  C   -0.272709
    40  H    0.203026
    41  H    0.185412
    42  H    0.172927
 Sum of Mulliken atomic charges =   0.00000

 Dipole moment (field-independent basis, Debye):
    X=              5.6110    Y=             -0.8237    Z=              0.8955  Tot=              5.7414
 Quadrupole moment (field-independent basis, Debye-Ang):
   XX=           -122.0059   YY=           -111.4589   ZZ=           -121.9190
   XY=             -4.4088   XZ=             22.4585   YZ=              0.6717

 Normal termination of Gaussian 09 at Tue Dec 27 10:27:08 2016.
