 Gaussian 09, Revision A.02,
 Gaussian 09:  EM64L-G09RevA.02 11-Jun-2009

 -------------------------------------------------------------------
 # HF/6-31G* Opt=(ModRedundant, maxcycles=1000, calcfc) geom=nocrowd
 -------------------------------------------------------------------

 ------------------
 Phi Psi fixed scan
 ------------------
 Symbolic Z-matrix:
 Charge =  0 Multiplicity = 1

 SCF Done:  E(RHF) =  -984.543249317     A.U. after   15 cycles

  Exact polarizability:   0.000   0.000   0.000   0.000   0.000   0.000
 Approx polarizability: 133.565  -7.758 128.943  -6.886  -2.507 125.516

 SCF Done:  E(RHF) =  -984.551174986     A.U. after   13 cycles
 SCF Done:  E(RHF) =  -984.559454925     A.U. after   13 cycles
 SCF Done:  E(RHF) =  -984.561489500     A.U. after   13 cycles
 SCF Done:  E(RHF) =  -984.564429682     A.U. after   15 cycles
 SCF Done:  E(RHF) =  -984.565453540     A.U. after   15 cycles
 SCF Done:  E(RHF) =  -984.538343850     A.U. after   15 cycles
 SCF Done:  E(RHF) =  -984.565617893     A.U. after   15 cycles
 SCF Done:  E(RHF) =  -984.421608263     A.U. after   16 cycles
 SCF Done:  E(RHF) =  -984.542688918     A.U. after   15 cycles
 SCF Done:  E(RHF) =  -984.566199542     A.U. after    9 cycles
 SCF Done:  E(RHF) =  -984.566200145     A.U. after   10 cycles
 SCF Done:  E(RHF) =  -984.566201374     A.U. after    9 cycles
 SCF Done:  E(RHF) =  -984.566203664     A.U. after   10 cycles
 SCF Done:  E(RHF) =  -984.566204485     A.U. after   10 cycles
 SCF Done:  E(RHF) =  -984.566204062     A.U. after    9 cycles
 SCF Done:  E(RHF) =  -984.566204946     A.U. after   10 cycles
 SCF Done:  E(RHF) =  -984.566204992     A.U. after    9 cycles
 SCF Done:  E(RHF) =  -984.566204998     A.U. after    6 cycles
 SCF Done:  E(RHF) =  -984.566205000     A.U. after    6 cycles
 Optimization completed.
    -- Stationary point found.

                         Standard orientation:
 ---------------------------------------------------------------------
 Center     Atomic      Atomic             Coordinates (Angstroms)
 Number     Number       Type             X           Y           Z
 ---------------------------------------------------------------------
      1          1           0       -6.851410   -1.493103   -1.516221
      2          6           0       -5.978727   -1.878565   -1.006125
      3          1           0       -5.319913   -2.354233   -1.722473
      4          1           0       -6.313300   -2.623100   -0.291744
      5          6           0       -5.320469   -0.745540   -0.248597
      6          8           0       -5.966407    0.049244    0.383752
      7          7           0       -3.974688   -0.700756   -0.313474
      8          1           0       -3.461973   -1.362525   -0.851280
      9          6           0       -3.203034    0.309924    0.368301
     10          1           0       -3.736815    1.248777    0.297344
     11          6           0       -2.975932   -0.031602    1.848057
     12          1           0       -2.446467   -0.972957    1.938553
     13          1           0       -2.390411    0.731767    2.348570
     14          1           0       -3.935529   -0.114123    2.341336
     15          6           0       -1.865484    0.427500   -0.349031
     16          8           0       -1.401001   -0.485306   -0.979937
     17          7           0       -1.236792    1.622765   -0.234362
     18          1           0       -1.563349    2.231730    0.483075
     19          6           0        0.166608    1.727056   -0.566056
     20          1           0        0.284317    1.433172   -1.600438
     21          6           0        0.631969    3.172503   -0.388233
     22          1           0        0.534585    3.480931    0.647819
     23          1           0        1.671964    3.276616   -0.673326
     24          1           0        0.037801    3.834278   -1.007688
     25          6           0        1.002690    0.799105    0.321091
     26          8           0        0.690117    0.580292    1.463235
     27          7           0        2.126467    0.327748   -0.241787
     28          1           0        2.309547    0.459286   -1.212105
     29          6           0        3.037843   -0.542643    0.462249
     30          1           0        3.138799   -0.173130    1.474700
     31          6           0        2.538924   -1.993583    0.503021
     32          1           0        2.444832   -2.386861   -0.502970
     33          1           0        3.221970   -2.627223    1.059626
     34          1           0        1.569441   -2.025081    0.981654
     35          6           0        4.381277   -0.467017   -0.256926
     36          8           0        4.452402   -0.169800   -1.421354
     37          7           0        5.456752   -0.798615    0.478633
     38          1           0        5.347161   -0.949039    1.454379
     39          6           0        6.792217   -0.800937   -0.082572
     40          1           0        6.805149   -1.360723   -1.006774
     41          1           0        7.140035    0.205206   -0.285690
     42          1           0        7.463210   -1.270322    0.623931
 ---------------------------------------------------------------------

 The electronic state is 1-A.
 Alpha  occ. eigenvalues --  -20.53904 -20.53746 -20.52704 -20.51122 -15.59958
 Alpha  occ. eigenvalues --  -15.59228 -15.58655 -15.57593 -11.35715 -11.35467
 Alpha  occ. eigenvalues --  -11.34848 -11.34023 -11.28581 -11.28552 -11.27634
 Alpha  occ. eigenvalues --  -11.26806 -11.23876 -11.22545 -11.22471 -11.21559
 Alpha  occ. eigenvalues --   -1.41056  -1.40692  -1.39287  -1.38021  -1.24936
 Alpha  occ. eigenvalues --   -1.24719  -1.24348  -1.23181  -1.07532  -1.04969
 Alpha  occ. eigenvalues --   -1.02796  -0.98330  -0.96747  -0.91736  -0.89744
 Alpha  occ. eigenvalues --   -0.86576  -0.81455  -0.80160  -0.79198  -0.78143
 Alpha  occ. eigenvalues --   -0.75139  -0.71549  -0.69390  -0.67863  -0.67120
 Alpha  occ. eigenvalues --   -0.65397  -0.64671  -0.64587  -0.63060  -0.62560
 Alpha  occ. eigenvalues --   -0.61620  -0.61110  -0.60472  -0.59705  -0.58841
 Alpha  occ. eigenvalues --   -0.57711  -0.56601  -0.56528  -0.56151  -0.55935
 Alpha  occ. eigenvalues --   -0.55222  -0.54014  -0.53903  -0.53544  -0.52587
 Alpha  occ. eigenvalues --   -0.52159  -0.51955  -0.50254  -0.49038  -0.43880
 Alpha  occ. eigenvalues --   -0.43109  -0.42735  -0.40953  -0.40598  -0.39965
 Alpha  occ. eigenvalues --   -0.38850  -0.38000
 Alpha virt. eigenvalues --    0.18118   0.18917   0.20291   0.20780   0.21062
 Alpha virt. eigenvalues --    0.22220   0.23999   0.24499   0.25914   0.27134
 Alpha virt. eigenvalues --    0.27998   0.28797   0.29333   0.30118   0.30253

 Mulliken atomic charges:
              1
     1  H    0.207195
     2  C   -0.575758
     3  H    0.172387
     4  H    0.201858
     5  C    0.757330
     6  O   -0.622881
     7  N   -0.822728
     8  H    0.416244
     9  C   -0.041357
    10  H    0.221176
    11  C   -0.485586
    12  H    0.182103
    13  H    0.171808
    14  H    0.204733
    15  C    0.797188
    16  O   -0.635924
    17  N   -0.789655
    18  H    0.390641
    19  C   -0.047556
    20  H    0.217287
    21  C   -0.508114
    22  H    0.183304
    23  H    0.191204
    24  H    0.192125
    25  C    0.806754
    26  O   -0.646156
    27  N   -0.830586
    28  H    0.420934
    29  C   -0.038558
    30  H    0.211320
    31  C   -0.484873
    32  H    0.184590
    33  H    0.157720
    34  H    0.214810
    35  C    0.780275
    36  O   -0.630592
    37  N   -0.800330
    38  H    0.390206
    39  C   -0.272279
    40  H    0.202958
    41  H    0.184718
    42  H    0.172064
 Sum of Mulliken atomic charges =   0.00000

 Dipole moment (field-independent basis, Debye):
    X=              5.1228    Y=             -0.2821    Z=              0.9161  Tot=              5.2117
 Quadrupole moment (field-independent basis, Debye-Ang):
   XX=           -120.4521   YY=           -108.2599   ZZ=           -124.5929
   XY=              2.7313   XZ=             20.0854   YZ=             -2.1256

 Normal termination of Gaussian 09 at Tue Dec 27 09:06:32 2016.
