 Gaussian 09, Revision A.02,
 Gaussian 09:  EM64L-G09RevA.02 11-Jun-2009

 ----------------------------------------------------------------------
 # b3lyp/6-31G* Opt=(ModRedundant, maxcycles=1000, calcfc) geom=nocrowd
 ----------------------------------------------------------------------

 ------------------
 Phi Psi fixed scan
 ------------------
 Symbolic Z-matrix:
 Charge =  0 Multiplicity = 1

 SCF Done:  E(RB3LYP) =  -495.841678905     A.U. after   16 cycles

  Exact polarizability:   0.000   0.000   0.000   0.000   0.000   0.000
 Approx polarizability: 112.160 -11.275 108.927  -5.601   4.353 114.627

 SCF Done:  E(RB3LYP) =  -495.844885175     A.U. after   12 cycles
 SCF Done:  E(RB3LYP) =  -495.848233880     A.U. after   12 cycles
 SCF Done:  E(RB3LYP) =  -495.848734672     A.U. after   13 cycles
 SCF Done:  E(RB3LYP) =  -495.794003631     A.U. after   15 cycles
 SCF Done:  E(RB3LYP) =  -495.811444372     A.U. after   13 cycles
 SCF Done:  E(RB3LYP) =  -495.824132507     A.U. after   13 cycles
 SCF Done:  E(RB3LYP) =  -495.833235885     A.U. after   13 cycles
 SCF Done:  E(RB3LYP) =  -495.839711846     A.U. after   13 cycles
 SCF Done:  E(RB3LYP) =  -495.844304993     A.U. after   12 cycles
 SCF Done:  E(RB3LYP) =  -495.848863392     A.U. after   12 cycles
 SCF Done:  E(RB3LYP) =  -495.847818551     A.U. after   13 cycles
 SCF Done:  E(RB3LYP) =  -495.848947640     A.U. after   13 cycles
 SCF Done:  E(RB3LYP) =  -495.849024245     A.U. after   11 cycles
 SCF Done:  E(RB3LYP) =  -495.849051161     A.U. after   11 cycles
 SCF Done:  E(RB3LYP) =  -495.849056440     A.U. after   12 cycles
 SCF Done:  E(RB3LYP) =  -495.849057666     A.U. after    8 cycles
 SCF Done:  E(RB3LYP) =  -495.849058010     A.U. after    7 cycles
 SCF Done:  E(RB3LYP) =  -495.849058166     A.U. after    7 cycles
 SCF Done:  E(RB3LYP) =  -495.849058158     A.U. after    7 cycles
 Optimization completed.
    -- Stationary point found.

                         Standard orientation:
 ---------------------------------------------------------------------
 Center     Atomic      Atomic             Coordinates (Angstroms)
 Number     Number       Type             X           Y           Z
 ---------------------------------------------------------------------
      1          1           0        3.414676   -1.765547   -0.353023
      2          6           0        3.203816   -0.708343   -0.533261
      3          1           0        3.133407   -0.532857   -1.611732
      4          1           0        4.051008   -0.134630   -0.141472
      5          6           0        1.948631   -0.319053    0.235230
      6          8           0        1.756999   -0.662870    1.392896
      7          7           0        1.047843    0.454229   -0.459559
      8          1           0        1.296491    0.773731   -1.385980
      9          6           0       -0.116138    1.066601    0.178397
     10          1           0        0.135340    1.186917    1.237714
     11          6           0       -0.412513    2.437391   -0.437214
     12          1           0       -0.604326    2.354259   -1.515001
     13          1           0       -1.306291    2.853763    0.031004
     14          1           0        0.427802    3.122076   -0.283537
     15          6           0       -1.397501    0.201400    0.178017
     16          8           0       -2.425454    0.646327    0.677515
     17          7           0       -1.302190   -1.020011   -0.408880
     18          1           0       -0.385685   -1.318459   -0.708266
     19          6           0       -2.391990   -1.978287   -0.389540
     20          1           0       -3.285981   -1.451269   -0.052886
     21          1           0       -2.566713   -2.386816   -1.391138
     22          1           0       -2.187499   -2.806604    0.300329
 ---------------------------------------------------------------------

 The electronic state is 1-A.
 Alpha  occ. eigenvalues --  -19.11719 -19.10327 -14.37175 -14.35748 -10.29633
 Alpha  occ. eigenvalues --  -10.27873 -10.23579 -10.21436 -10.20180 -10.18946
 Alpha  occ. eigenvalues --   -1.03899  -1.02338  -0.93391  -0.91206  -0.78301
 Alpha  occ. eigenvalues --   -0.73495  -0.70985  -0.64330  -0.59741  -0.57750
 Alpha  occ. eigenvalues --   -0.53285  -0.49598  -0.48241  -0.45703  -0.45143
 Alpha  occ. eigenvalues --   -0.44001  -0.42355  -0.41763  -0.40560  -0.39781
 Alpha  occ. eigenvalues --   -0.38887  -0.38534  -0.37491  -0.36097  -0.34365
 Alpha  occ. eigenvalues --   -0.28084  -0.25644  -0.24818  -0.23452
 Alpha virt. eigenvalues --    0.01866   0.03404   0.06092   0.09995   0.11358
 Alpha virt. eigenvalues --    0.12456   0.13629   0.14614   0.14889   0.15929
 Alpha virt. eigenvalues --    0.16705   0.17321   0.17668   0.18349   0.19465

 Mulliken atomic charges:
              1
     1  H    0.188628
     2  C   -0.539275
     3  H    0.144585
     4  H    0.190268
     5  C    0.575243
     6  O   -0.492663
     7  N   -0.626742
     8  H    0.325773
     9  C   -0.022564
    10  H    0.200990
    11  C   -0.475079
    12  H    0.142438
    13  H    0.197800
    14  H    0.153298
    15  C    0.612689
    16  O   -0.529275
    17  N   -0.586960
    18  H    0.333897
    19  C   -0.310729
    20  H    0.202428
    21  H    0.152071
    22  H    0.163178
 Sum of Mulliken atomic charges =   0.00000

 Dipole moment (field-independent basis, Debye):
    X=              2.6198    Y=             -0.4408    Z=             -4.5019  Tot=              5.2273
 Quadrupole moment (field-independent basis, Debye-Ang):
   XX=            -62.8402   YY=            -55.1617   ZZ=            -62.6641
   XY=              6.1270   XZ=             -2.6043   YZ=              1.5561

 Normal termination of Gaussian 09 at Fri Feb 10 23:13:03 2017.
