 Gaussian 09, Revision A.02,
 Gaussian 09:  EM64L-G09RevA.02 11-Jun-2009

 ----------------------------------------------------------------------
 # b3lyp/6-31G* Opt=(ModRedundant, maxcycles=1000, calcfc) geom=nocrowd
 ----------------------------------------------------------------------

 ------------------
 Phi Psi fixed scan
 ------------------
 Symbolic Z-matrix:
 Charge =  0 Multiplicity = 1

 SCF Done:  E(RB3LYP) =  -495.845264511     A.U. after   14 cycles

  Exact polarizability:   0.000   0.000   0.000   0.000   0.000   0.000
 Approx polarizability: 115.695 -15.532 117.267   4.426 -11.943 102.871

 SCF Done:  E(RB3LYP) =  -495.848440841     A.U. after   12 cycles
 SCF Done:  E(RB3LYP) =  -495.852055607     A.U. after   12 cycles
 SCF Done:  E(RB3LYP) =  -495.852784902     A.U. after   14 cycles
 SCF Done:  E(RB3LYP) =  -495.848638738     A.U. after   13 cycles
 SCF Done:  E(RB3LYP) =  -495.852786645     A.U. after   13 cycles
 SCF Done:  E(RB3LYP) =  -495.852914389     A.U. after   12 cycles
 SCF Done:  E(RB3LYP) =  -495.847273524     A.U. after   13 cycles
 SCF Done:  E(RB3LYP) =  -495.852970217     A.U. after   13 cycles
 SCF Done:  E(RB3LYP) =  -495.853007210     A.U. after   10 cycles
 SCF Done:  E(RB3LYP) =  -495.853031810     A.U. after   10 cycles
 SCF Done:  E(RB3LYP) =  -495.853054561     A.U. after   10 cycles
 SCF Done:  E(RB3LYP) =  -495.853082084     A.U. after   11 cycles
 SCF Done:  E(RB3LYP) =  -495.853088899     A.U. after   10 cycles
 SCF Done:  E(RB3LYP) =  -495.853089682     A.U. after   10 cycles
 SCF Done:  E(RB3LYP) =  -495.853089870     A.U. after    8 cycles
 SCF Done:  E(RB3LYP) =  -495.853089891     A.U. after    8 cycles
 SCF Done:  E(RB3LYP) =  -495.853089896     A.U. after    7 cycles
 Optimization completed.
    -- Stationary point found.

                         Standard orientation:
 ---------------------------------------------------------------------
 Center     Atomic      Atomic             Coordinates (Angstroms)
 Number     Number       Type             X           Y           Z
 ---------------------------------------------------------------------
      1          1           0        3.350935   -1.570250   -0.896146
      2          6           0        3.217349   -0.518530   -0.628001
      3          1           0        3.295326    0.095898   -1.530160
      4          1           0        4.032011   -0.249365    0.052574
      5          6           0        1.897728   -0.361510    0.107610
      6          8           0        1.601850   -1.074574    1.069089
      7          7           0        1.053887    0.595472   -0.363569
      8          1           0        1.332813    1.137707   -1.169727
      9          6           0       -0.138487    1.050158    0.360952
     10          1           0        0.068088    0.866025    1.423049
     11          6           0       -0.366103    2.540121    0.122844
     12          1           0       -0.528621    2.748289   -0.940983
     13          1           0       -1.263380    2.866445    0.651329
     14          1           0        0.492831    3.120599    0.474924
     15          6           0       -1.407452    0.228891    0.007520
     16          8           0       -2.480218    0.773979   -0.229460
     17          7           0       -1.206686   -1.116530   -0.022304
     18          1           0       -0.336426   -1.460752    0.375733
     19          6           0       -2.300402   -2.048297   -0.233294
     20          1           0       -3.112153   -1.510690   -0.725298
     21          1           0       -1.973017   -2.877168   -0.869582
     22          1           0       -2.677662   -2.459567    0.712586
 ---------------------------------------------------------------------

 The electronic state is 1-A.
 Alpha  occ. eigenvalues --  -19.12214 -19.10510 -14.37375 -14.34623 -10.29991
 Alpha  occ. eigenvalues --  -10.27634 -10.23766 -10.20858 -10.20309 -10.18588
 Alpha  occ. eigenvalues --   -1.04225  -1.02203  -0.93384  -0.90647  -0.78399
 Alpha  occ. eigenvalues --   -0.73583  -0.70600  -0.63955  -0.60032  -0.56824
 Alpha  occ. eigenvalues --   -0.52917  -0.49633  -0.48626  -0.45782  -0.45138
 Alpha  occ. eigenvalues --   -0.43567  -0.42148  -0.41828  -0.40828  -0.39031
 Alpha  occ. eigenvalues --   -0.38640  -0.38062  -0.37283  -0.36298  -0.35067
 Alpha  occ. eigenvalues --   -0.28055  -0.26287  -0.24551  -0.23193
 Alpha virt. eigenvalues --    0.01158   0.03390   0.06740   0.10729   0.11508
 Alpha virt. eigenvalues --    0.12695   0.14495   0.14798   0.15775   0.16337
 Alpha virt. eigenvalues --    0.16870   0.17375   0.17939   0.18410   0.20492

 Mulliken atomic charges:
              1
     1  H    0.189105
     2  C   -0.533048
     3  H    0.148563
     4  H    0.190508
     5  C    0.595578
     6  O   -0.529791
     7  N   -0.578573
     8  H    0.328704
     9  C   -0.063063
    10  H    0.188693
    11  C   -0.462208
    12  H    0.154078
    13  H    0.186929
    14  H    0.145237
    15  C    0.606151
    16  O   -0.524620
    17  N   -0.599965
    18  H    0.361402
    19  C   -0.307848
    20  H    0.193946
    21  H    0.152500
    22  H    0.157719
 Sum of Mulliken atomic charges =   0.00000

 Dipole moment (field-independent basis, Debye):
    X=              3.0634    Y=              0.3344    Z=             -1.7116  Tot=              3.5250
 Quadrupole moment (field-independent basis, Debye-Ang):
   XX=            -62.5865   YY=            -56.8300   ZZ=            -60.2655
   XY=              7.9551   XZ=             -6.0854   YZ=              2.1760

 Normal termination of Gaussian 09 at Fri Feb 10 23:19:21 2017.
