 Gaussian 09, Revision A.02,
 Gaussian 09:  EM64L-G09RevA.02 11-Jun-2009

 ----------------------------------------------------------------------
 # b3lyp/6-31G* Opt=(ModRedundant, maxcycles=1000, calcfc) geom=nocrowd
 ----------------------------------------------------------------------

 ------------------
 Phi Psi fixed scan
 ------------------
 Symbolic Z-matrix:
 Charge =  0 Multiplicity = 1

 SCF Done:  E(RB3LYP) =  -495.833882347     A.U. after   15 cycles

  Exact polarizability:   0.000   0.000   0.000   0.000   0.000   0.000
 Approx polarizability: 117.778 -12.480 109.213  -5.986  -2.440 107.303

 SCF Done:  E(RB3LYP) =  -495.837375377     A.U. after   12 cycles
 SCF Done:  E(RB3LYP) =  -495.842017186     A.U. after   13 cycles
 SCF Done:  E(RB3LYP) =  -495.843491324     A.U. after   12 cycles
 SCF Done:  E(RB3LYP) =  -495.844530649     A.U. after   12 cycles
 SCF Done:  E(RB3LYP) =  -495.845445670     A.U. after   15 cycles
 SCF Done:  E(RB3LYP) =  -495.845700010     A.U. after   13 cycles
 SCF Done:  E(RB3LYP) =  -495.843025880     A.U. after   15 cycles
 SCF Done:  E(RB3LYP) =  -495.845816253     A.U. after   14 cycles
 SCF Done:  E(RB3LYP) =  -495.846059546     A.U. after   12 cycles
 SCF Done:  E(RB3LYP) =  -495.846137392     A.U. after   12 cycles
 SCF Done:  E(RB3LYP) =  -495.846180273     A.U. after   10 cycles
 SCF Done:  E(RB3LYP) =  -495.846118049     A.U. after   12 cycles
 SCF Done:  E(RB3LYP) =  -495.846251693     A.U. after   12 cycles
 SCF Done:  E(RB3LYP) =  -495.846262263     A.U. after   10 cycles
 SCF Done:  E(RB3LYP) =  -495.846265448     A.U. after   10 cycles
 SCF Done:  E(RB3LYP) =  -495.846271260     A.U. after   10 cycles
 SCF Done:  E(RB3LYP) =  -495.846273499     A.U. after   10 cycles
 SCF Done:  E(RB3LYP) =  -495.846273914     A.U. after    9 cycles
 SCF Done:  E(RB3LYP) =  -495.846273962     A.U. after    7 cycles
 Optimization completed.
    -- Stationary point found.

                         Standard orientation:
 ---------------------------------------------------------------------
 Center     Atomic      Atomic             Coordinates (Angstroms)
 Number     Number       Type             X           Y           Z
 ---------------------------------------------------------------------
      1          1           0        4.069124   -1.057820    0.007933
      2          6           0        3.175170   -0.888455   -0.594252
      3          1           0        2.762055   -1.860592   -0.889692
      4          1           0        3.440856   -0.340128   -1.504529
      5          6           0        2.145321   -0.148570    0.241637
      6          8           0        2.170904   -0.132457    1.463123
      7          7           0        1.187415    0.530948   -0.493361
      8          1           0        1.087639    0.205921   -1.448633
      9          6           0       -0.069175    0.885119    0.146346
     10          1           0        0.157343    0.935295    1.217499
     11          6           0       -0.559441    2.257146   -0.342400
     12          1           0       -0.836664    2.231317   -1.402569
     13          1           0       -1.427290    2.615564    0.222969
     14          1           0        0.240826    2.991355   -0.215245
     15          6           0       -1.082086   -0.271296   -0.060954
     16          8           0       -0.717771   -1.368918   -0.467058
     17          7           0       -2.388866    0.028090    0.195538
     18          1           0       -2.608442    0.924240    0.604174
     19          6           0       -3.441313   -0.973395    0.138907
     20          1           0       -3.045120   -1.835675   -0.398176
     21          1           0       -3.752484   -1.294268    1.141176
     22          1           0       -4.313610   -0.580757   -0.394361
 ---------------------------------------------------------------------

 The electronic state is 1-A.
 Alpha  occ. eigenvalues --  -19.11512 -19.10629 -14.36728 -14.34881 -10.28751
 Alpha  occ. eigenvalues --  -10.28039 -10.23305 -10.22154 -10.19528 -10.18322
 Alpha  occ. eigenvalues --   -1.03670  -1.02273  -0.92417  -0.91546  -0.77909
 Alpha  occ. eigenvalues --   -0.72553  -0.70853  -0.64485  -0.58799  -0.57393
 Alpha  occ. eigenvalues --   -0.53560  -0.47495  -0.46800  -0.46091  -0.45297
 Alpha  occ. eigenvalues --   -0.43822  -0.42785  -0.41752  -0.40114  -0.39498
 Alpha  occ. eigenvalues --   -0.39118  -0.38130  -0.37775  -0.35428  -0.34573
 Alpha  occ. eigenvalues --   -0.26123  -0.25606  -0.25165  -0.23952
 Alpha virt. eigenvalues --    0.02367   0.03286   0.06291   0.09224   0.11643
 Alpha virt. eigenvalues --    0.13050   0.14185   0.14844   0.15435   0.16010
 Alpha virt. eigenvalues --    0.16420   0.16560   0.18048   0.18699   0.20131

 Mulliken atomic charges:
              1
     1  H    0.183334
     2  C   -0.549716
     3  H    0.190316
     4  H    0.156864
     5  C    0.592731
     6  O   -0.497641
     7  N   -0.563077
     8  H    0.321710
     9  C   -0.078408
    10  H    0.204155
    11  C   -0.452712
    12  H    0.153870
    13  H    0.135441
    14  H    0.174209
    15  C    0.600440
    16  O   -0.519256
    17  N   -0.591755
    18  H    0.327187
    19  C   -0.310200
    20  H    0.204816
    21  H    0.161605
    22  H    0.156088
 Sum of Mulliken atomic charges =   0.00000

 Dipole moment (field-independent basis, Debye):
    X=             -3.0392    Y=              2.1966    Z=             -1.9029  Tot=              4.2051
 Quadrupole moment (field-independent basis, Debye-Ang):
   XX=            -51.3506   YY=            -60.6567   ZZ=            -62.1077
   XY=             -3.1235   XZ=             -9.0618   YZ=              0.5576

 Normal termination of Gaussian 09 at Fri Feb 10 23:08:38 2017.
