 Gaussian 09, Revision A.02,
 Gaussian 09:  EM64L-G09RevA.02 11-Jun-2009

 ----------------------------------------------------------------------
 # b3lyp/6-31G* Opt=(ModRedundant, maxcycles=1000, calcfc) geom=nocrowd
 ----------------------------------------------------------------------

 ------------------
 Phi Psi fixed scan
 ------------------
 Symbolic Z-matrix:
 Charge =  0 Multiplicity = 1

 SCF Done:  E(RB3LYP) =  -495.841731524     A.U. after   16 cycles

  Exact polarizability:   0.000   0.000   0.000   0.000   0.000   0.000
 Approx polarizability: 114.900 -13.869 111.633  -2.874  -0.975 108.958

 SCF Done:  E(RB3LYP) =  -495.845387603     A.U. after   12 cycles
 SCF Done:  E(RB3LYP) =  -495.848544798     A.U. after   12 cycles
 SCF Done:  E(RB3LYP) =  -495.848867448     A.U. after   12 cycles
 SCF Done:  E(RB3LYP) =  -495.849047156     A.U. after   12 cycles
 SCF Done:  E(RB3LYP) =  -495.848957325     A.U. after   14 cycles
 SCF Done:  E(RB3LYP) =  -495.849149656     A.U. after   13 cycles
 SCF Done:  E(RB3LYP) =  -495.849180009     A.U. after   11 cycles
 SCF Done:  E(RB3LYP) =  -495.849181106     A.U. after   10 cycles
 SCF Done:  E(RB3LYP) =  -495.849181387     A.U. after    7 cycles
 SCF Done:  E(RB3LYP) =  -495.849181715     A.U. after    9 cycles
 SCF Done:  E(RB3LYP) =  -495.849181779     A.U. after    7 cycles
 SCF Done:  E(RB3LYP) =  -495.849181791     A.U. after    7 cycles
 Optimization completed.
    -- Stationary point found.

                         Standard orientation:
 ---------------------------------------------------------------------
 Center     Atomic      Atomic             Coordinates (Angstroms)
 Number     Number       Type             X           Y           Z
 ---------------------------------------------------------------------
      1          1           0        3.460632   -1.680048   -0.485442
      2          6           0        3.225410   -0.615722   -0.563230
      3          1           0        3.181084   -0.330468   -1.619245
      4          1           0        4.043738   -0.062927   -0.088378
      5          6           0        1.937838   -0.337912    0.199008
      6          8           0        1.705146   -0.836053    1.294882
      7          7           0        1.056983    0.510528   -0.418016
      8          1           0        1.300595    0.890138   -1.322597
      9          6           0       -0.127063    1.059922    0.240835
     10          1           0        0.095630    1.062082    1.314869
     11          6           0       -0.384565    2.492224   -0.231976
     12          1           0       -0.532687    2.527437   -1.318962
     13          1           0       -1.294307    2.869031    0.237536
     14          1           0        0.457179    3.141636    0.028334
     15          6           0       -1.414338    0.209817    0.102203
     16          8           0       -2.505007    0.703397    0.368963
     17          7           0       -1.250087   -1.071860   -0.324139
     18          1           0       -0.310043   -1.440346   -0.326172
     19          6           0       -2.355735   -2.014973   -0.333347
     20          1           0       -3.281935   -1.443711   -0.407152
     21          1           0       -2.269932   -2.685955   -1.193975
     22          1           0       -2.388609   -2.616427    0.584547
 ---------------------------------------------------------------------

 The electronic state is 1-A.
 Alpha  occ. eigenvalues --  -19.11804 -19.10567 -14.37135 -14.35603 -10.29698
 Alpha  occ. eigenvalues --  -10.27960 -10.23724 -10.21326 -10.20198 -10.18686
 Alpha  occ. eigenvalues --   -1.03954  -1.02487  -0.93348  -0.91167  -0.78303
 Alpha  occ. eigenvalues --   -0.73464  -0.70868  -0.64221  -0.59820  -0.57612
 Alpha  occ. eigenvalues --   -0.53294  -0.49498  -0.48285  -0.45910  -0.45116
 Alpha  occ. eigenvalues --   -0.43821  -0.42252  -0.41852  -0.40516  -0.39503
 Alpha  occ. eigenvalues --   -0.38882  -0.38490  -0.37366  -0.36217  -0.34565
 Alpha  occ. eigenvalues --   -0.28112  -0.25833  -0.25033  -0.23298
 Alpha virt. eigenvalues --    0.01751   0.03132   0.06454   0.10118   0.11378
 Alpha virt. eigenvalues --    0.12626   0.13699   0.14604   0.14991   0.15769
 Alpha virt. eigenvalues --    0.16832   0.17271   0.17883   0.18448   0.19337

 Mulliken atomic charges:
              1
     1  H    0.187382
     2  C   -0.537661
     3  H    0.147074
     4  H    0.189911
     5  C    0.575293
     6  O   -0.508451
     7  N   -0.608783
     8  H    0.326250
     9  C   -0.036297
    10  H    0.199723
    11  C   -0.470658
    12  H    0.143922
    13  H    0.197767
    14  H    0.150580
    15  C    0.610281
    16  O   -0.526207
    17  N   -0.587724
    18  H    0.343037
    19  C   -0.309279
    20  H    0.198346
    21  H    0.151718
    22  H    0.163776
 Sum of Mulliken atomic charges =   0.00000

 Dipole moment (field-independent basis, Debye):
    X=              2.7969    Y=             -0.2289    Z=             -3.4785  Tot=              4.4693
 Quadrupole moment (field-independent basis, Debye-Ang):
   XX=            -63.2514   YY=            -55.6552   ZZ=            -61.7860
   XY=              7.0180   XZ=             -3.7705   YZ=              1.8503

 Normal termination of Gaussian 09 at Fri Feb 10 23:03:49 2017.
