 Gaussian 09, Revision A.02,
 Gaussian 09:  EM64L-G09RevA.02 11-Jun-2009

 ----------------------------------------------------------------------
 # b3lyp/6-31G* Opt=(ModRedundant, maxcycles=1000, calcfc) geom=nocrowd
 ----------------------------------------------------------------------

 ------------------
 Phi Psi fixed scan
 ------------------
 Symbolic Z-matrix:
 Charge =  0 Multiplicity = 1

 SCF Done:  E(RB3LYP) =  -495.847822040     A.U. after   15 cycles

  Exact polarizability:   0.000   0.000   0.000   0.000   0.000   0.000
 Approx polarizability: 112.958 -13.652 120.341   6.107 -17.356 102.998

 SCF Done:  E(RB3LYP) =  -495.851166896     A.U. after   12 cycles
 SCF Done:  E(RB3LYP) =  -495.854084874     A.U. after   14 cycles
 SCF Done:  E(RB3LYP) =  -495.854277899     A.U. after   13 cycles
 SCF Done:  E(RB3LYP) =  -495.854151224     A.U. after   12 cycles
 SCF Done:  E(RB3LYP) =  -495.854281081     A.U. after   12 cycles
 SCF Done:  E(RB3LYP) =  -495.854393517     A.U. after   11 cycles
 SCF Done:  E(RB3LYP) =  -495.854456544     A.U. after   11 cycles
 SCF Done:  E(RB3LYP) =  -495.854474201     A.U. after   11 cycles
 SCF Done:  E(RB3LYP) =  -495.854484394     A.U. after   11 cycles
 SCF Done:  E(RB3LYP) =  -495.854485267     A.U. after    9 cycles
 SCF Done:  E(RB3LYP) =  -495.854485398     A.U. after    7 cycles
 SCF Done:  E(RB3LYP) =  -495.854485429     A.U. after    7 cycles
 Optimization completed.
    -- Stationary point found.

                         Standard orientation:
 ---------------------------------------------------------------------
 Center     Atomic      Atomic             Coordinates (Angstroms)
 Number     Number       Type             X           Y           Z
 ---------------------------------------------------------------------
      1          1           0        3.260236   -1.581722   -1.028080
      2          6           0        3.179545   -0.544145   -0.691593
      3          1           0        3.269725    0.121668   -1.555326
      4          1           0        4.017018   -0.355752   -0.011896
      5          6           0        1.881553   -0.375788    0.078577
      6          8           0        1.590346   -1.112195    1.024397
      7          7           0        1.057966    0.622808   -0.338128
      8          1           0        1.323808    1.181302   -1.137452
      9          6           0       -0.133274    1.042352    0.410297
     10          1           0        0.068832    0.791022    1.457931
     11          6           0       -0.355309    2.543295    0.257548
     12          1           0       -0.553061    2.806063   -0.786984
     13          1           0       -1.230986    2.851750    0.832946
     14          1           0        0.519010    3.097955    0.613556
     15          6           0       -1.387585    0.242385   -0.031256
     16          8           0       -2.375236    0.792303   -0.507404
     17          7           0       -1.264551   -1.098018    0.158494
     18          1           0       -0.408717   -1.432639    0.595205
     19          6           0       -2.313197   -2.037565   -0.190918
     20          1           0       -3.134343   -1.471025   -0.632671
     21          1           0       -1.955214   -2.777645   -0.916989
     22          1           0       -2.681491   -2.568580    0.695322
 ---------------------------------------------------------------------

 The electronic state is 1-A.
 Alpha  occ. eigenvalues --  -19.12228 -19.10417 -14.37417 -14.34589 -10.30002
 Alpha  occ. eigenvalues --  -10.27572 -10.23649 -10.20839 -10.20276 -10.18524
 Alpha  occ. eigenvalues --   -1.04204  -1.02095  -0.93343  -0.90648  -0.78380
 Alpha  occ. eigenvalues --   -0.73561  -0.70656  -0.63859  -0.60047  -0.56844
 Alpha  occ. eigenvalues --   -0.52879  -0.49532  -0.48692  -0.45747  -0.45131
 Alpha  occ. eigenvalues --   -0.43720  -0.42089  -0.41777  -0.40886  -0.39055
 Alpha  occ. eigenvalues --   -0.38596  -0.37672  -0.37267  -0.36280  -0.35355
 Alpha  occ. eigenvalues --   -0.27964  -0.26258  -0.24138  -0.23452
 Alpha virt. eigenvalues --    0.01161   0.03554   0.06832   0.10674   0.11668
 Alpha virt. eigenvalues --    0.12638   0.14407   0.14958   0.15942   0.16685
 Alpha virt. eigenvalues --    0.16887   0.17501   0.17689   0.18507   0.20784

 Mulliken atomic charges:
              1
     1  H    0.189195
     2  C   -0.532096
     3  H    0.148449
     4  H    0.190652
     5  C    0.600860
     6  O   -0.531402
     7  N   -0.580294
     8  H    0.329529
     9  C   -0.062368
    10  H    0.183299
    11  C   -0.459563
    12  H    0.160819
    13  H    0.178402
    14  H    0.144646
    15  C    0.607512
    16  O   -0.525547
    17  N   -0.602594
    18  H    0.364212
    19  C   -0.310289
    20  H    0.196542
    21  H    0.153383
    22  H    0.156651
 Sum of Mulliken atomic charges =   0.00000

 Dipole moment (field-independent basis, Debye):
    X=              2.9072    Y=              0.3160    Z=             -1.2553  Tot=              3.1823
 Quadrupole moment (field-independent basis, Debye-Ang):
   XX=            -61.9103   YY=            -57.1140   ZZ=            -60.3562
   XY=              7.9512   XZ=             -7.3108   YZ=              2.6094

 Normal termination of Gaussian 09 at Fri Feb 10 23:19:26 2017.
