 Gaussian 09, Revision A.02,
 Gaussian 09:  EM64L-G09RevA.02 11-Jun-2009

 ----------------------------------------------------------------------
 # b3lyp/6-31G* Opt=(ModRedundant, maxcycles=1000, calcfc) geom=nocrowd
 ----------------------------------------------------------------------

 ------------------
 Phi Psi fixed scan
 ------------------
 Symbolic Z-matrix:
 Charge =  0 Multiplicity = 1

 SCF Done:  E(RB3LYP) =  -495.830223388     A.U. after   15 cycles

  Exact polarizability:   0.000   0.000   0.000   0.000   0.000   0.000
 Approx polarizability: 106.221  -4.460 100.450   9.991 -19.084 129.511

 SCF Done:  E(RB3LYP) =  -495.834266832     A.U. after   13 cycles
 SCF Done:  E(RB3LYP) =  -495.838709097     A.U. after   13 cycles
 SCF Done:  E(RB3LYP) =  -495.839608567     A.U. after   15 cycles
 SCF Done:  E(RB3LYP) =  -495.836583628     A.U. after   13 cycles
 SCF Done:  E(RB3LYP) =  -495.839635108     A.U. after   12 cycles
 SCF Done:  E(RB3LYP) =  -495.839843493     A.U. after   13 cycles
 SCF Done:  E(RB3LYP) =  -495.826570981     A.U. after   13 cycles
 SCF Done:  E(RB3LYP) =  -495.839898337     A.U. after   14 cycles
 SCF Done:  E(RB3LYP) =  -495.839977756     A.U. after   12 cycles
 SCF Done:  E(RB3LYP) =  -495.839997850     A.U. after   12 cycles
 SCF Done:  E(RB3LYP) =  -495.840011725     A.U. after   10 cycles
 SCF Done:  E(RB3LYP) =  -495.840035603     A.U. after   12 cycles
 SCF Done:  E(RB3LYP) =  -495.840047841     A.U. after   11 cycles
 SCF Done:  E(RB3LYP) =  -495.840049236     A.U. after   10 cycles
 SCF Done:  E(RB3LYP) =  -495.840049294     A.U. after    9 cycles
 SCF Done:  E(RB3LYP) =  -495.840049335     A.U. after    7 cycles
 Optimization completed.
    -- Stationary point found.

                         Standard orientation:
 ---------------------------------------------------------------------
 Center     Atomic      Atomic             Coordinates (Angstroms)
 Number     Number       Type             X           Y           Z
 ---------------------------------------------------------------------
      1          1           0        3.990454   -1.017476   -0.633179
      2          6           0        2.943856   -1.081351   -0.938380
      3          1           0        2.642137   -2.133726   -0.878441
      4          1           0        2.847791   -0.751724   -1.978324
      5          6           0        2.102045   -0.265166    0.032702
      6          8           0        2.366028   -0.186882    1.221401
      7          7           0        1.034933    0.395424   -0.544138
      8          1           0        0.803031    0.144345   -1.496891
      9          6           0       -0.037726    0.982338    0.259601
     10          1           0        0.395515    1.142881    1.248223
     11          6           0       -0.499107    2.317170   -0.335361
     12          1           0       -0.838239    2.219492   -1.375838
     13          1           0       -1.323161    2.740391    0.248853
     14          1           0        0.330905    3.029949   -0.333042
     15          6           0       -1.173458   -0.042652    0.491653
     16          8           0       -1.294789   -0.641335    1.549600
     17          7           0       -1.984395   -0.272658   -0.592126
     18          1           0       -1.938998    0.366559   -1.372602
     19          6           0       -3.110777   -1.189837   -0.531307
     20          1           0       -2.956805   -1.840782    0.330085
     21          1           0       -4.064453   -0.661069   -0.404085
     22          1           0       -3.160855   -1.795467   -1.442367
 ---------------------------------------------------------------------

 The electronic state is 1-A.
 Alpha  occ. eigenvalues --  -19.11184 -19.10771 -14.36628 -14.36259 -10.28641
 Alpha  occ. eigenvalues --  -10.28479 -10.23365 -10.22140 -10.19873 -10.19199
 Alpha  occ. eigenvalues --   -1.03371  -1.02601  -0.92835  -0.91670  -0.78324
 Alpha  occ. eigenvalues --   -0.73019  -0.71028  -0.64971  -0.58790  -0.58568
 Alpha  occ. eigenvalues --   -0.53606  -0.48477  -0.47448  -0.46250  -0.44697
 Alpha  occ. eigenvalues --   -0.43902  -0.42885  -0.41915  -0.40805  -0.39736
 Alpha  occ. eigenvalues --   -0.39418  -0.38432  -0.36517  -0.36259  -0.35479
 Alpha  occ. eigenvalues --   -0.27580  -0.25715  -0.24616  -0.23239
 Alpha virt. eigenvalues --    0.01530   0.03844   0.04883   0.08667   0.11300
 Alpha virt. eigenvalues --    0.12545   0.13816   0.14315   0.15356   0.15665
 Alpha virt. eigenvalues --    0.16217   0.17057   0.17860   0.18790   0.19475

 Mulliken atomic charges:
              1
     1  H    0.189406
     2  C   -0.543113
     3  H    0.184958
     4  H    0.145875
     5  C    0.595133
     6  O   -0.485024
     7  N   -0.588259
     8  H    0.311027
     9  C   -0.056925
    10  H    0.209453
    11  C   -0.463367
    12  H    0.126166
    13  H    0.167627
    14  H    0.174407
    15  C    0.597387
    16  O   -0.496921
    17  N   -0.595603
    18  H    0.318702
    19  C   -0.308942
    20  H    0.206230
    21  H    0.158677
    22  H    0.153106
 Sum of Mulliken atomic charges =   0.00000

 Dipole moment (field-independent basis, Debye):
    X=             -2.0762    Y=              1.1220    Z=             -6.0794  Tot=              6.5214
 Quadrupole moment (field-independent basis, Debye-Ang):
   XX=            -57.9739   YY=            -57.0039   ZZ=            -63.9290
   XY=             -1.8823   XZ=             -1.4654   YZ=              3.2434

 Normal termination of Gaussian 09 at Fri Feb 10 23:25:19 2017.
