 Gaussian 09, Revision A.02,
 Gaussian 09:  EM64L-G09RevA.02 11-Jun-2009

 ----------------------------------------------------------------------
 # b3lyp/6-31G* Opt=(ModRedundant, maxcycles=1000, calcfc) geom=nocrowd
 ----------------------------------------------------------------------

 ------------------
 Phi Psi fixed scan
 ------------------
 Symbolic Z-matrix:
 Charge =  0 Multiplicity = 1

 SCF Done:  E(RB3LYP) =  -495.847328874     A.U. after   15 cycles

  Exact polarizability:   0.000   0.000   0.000   0.000   0.000   0.000
 Approx polarizability: 105.451   4.391 121.972   3.337  24.821 108.743

 SCF Done:  E(RB3LYP) =  -495.849993694     A.U. after   12 cycles
 SCF Done:  E(RB3LYP) =  -495.852882807     A.U. after   12 cycles
 SCF Done:  E(RB3LYP) =  -495.853475563     A.U. after   13 cycles
 SCF Done:  E(RB3LYP) =  -495.763831593     A.U. after   14 cycles
 SCF Done:  E(RB3LYP) =  -495.788090934     A.U. after   12 cycles
 SCF Done:  E(RB3LYP) =  -495.807566246     A.U. after   12 cycles
 SCF Done:  E(RB3LYP) =  -495.822896785     A.U. after   12 cycles
 SCF Done:  E(RB3LYP) =  -495.834754288     A.U. after   12 cycles
 SCF Done:  E(RB3LYP) =  -495.843886486     A.U. after   13 cycles
 SCF Done:  E(RB3LYP) =  -495.853715226     A.U. after   12 cycles
 SCF Done:  E(RB3LYP) =  -495.853813822     A.U. after   12 cycles
 SCF Done:  E(RB3LYP) =  -495.853849176     A.U. after   11 cycles
 SCF Done:  E(RB3LYP) =  -495.853862367     A.U. after   11 cycles
 SCF Done:  E(RB3LYP) =  -495.853867216     A.U. after   10 cycles
 SCF Done:  E(RB3LYP) =  -495.853867979     A.U. after    9 cycles
 SCF Done:  E(RB3LYP) =  -495.853868194     A.U. after    7 cycles
 SCF Done:  E(RB3LYP) =  -495.853868644     A.U. after    9 cycles
 SCF Done:  E(RB3LYP) =  -495.853869060     A.U. after    9 cycles
 SCF Done:  E(RB3LYP) =  -495.853869055     A.U. after    6 cycles
 Optimization completed.
    -- Stationary point found.

                         Standard orientation:
 ---------------------------------------------------------------------
 Center     Atomic      Atomic             Coordinates (Angstroms)
 Number     Number       Type             X           Y           Z
 ---------------------------------------------------------------------
      1          1           0       -3.094293   -1.694840    1.183553
      2          6           0       -3.126812   -0.687396    0.758155
      3          1           0       -3.265053    0.038213    1.565567
      4          1           0       -3.993187   -0.643287    0.090584
      5          6           0       -1.868942   -0.457728   -0.061483
      6          8           0       -1.549767   -1.208756   -0.984172
      7          7           0       -1.118636    0.628220    0.279211
      8          1           0       -1.352778    1.174077    1.096522
      9          6           0        0.076013    0.998036   -0.483768
     10          1           0       -0.090052    0.631023   -1.499467
     11          6           0        0.269459    2.511683   -0.480081
     12          1           0        0.494005    2.866236    0.530587
     13          1           0        1.117329    2.784991   -1.115589
     14          1           0       -0.626394    3.014881   -0.857807
     15          6           0        1.300359    0.283089    0.132545
     16          8           0        1.977768    0.792896    1.018054
     17          7           0        1.539459   -0.941345   -0.417604
     18          1           0        0.784027   -1.336769   -0.969386
     19          6           0        2.550405   -1.837279    0.118055
     20          1           0        3.294177   -1.231737    0.637930
     21          1           0        2.127177   -2.558260    0.830286
     22          1           0        3.032374   -2.388211   -0.695631
 ---------------------------------------------------------------------

 The electronic state is 1-A.
 Alpha  occ. eigenvalues --  -19.11800 -19.10744 -14.37058 -14.35207 -10.29624
 Alpha  occ. eigenvalues --  -10.27756 -10.23385 -10.21117 -10.19942 -10.18454
 Alpha  occ. eigenvalues --   -1.03824  -1.02388  -0.92960  -0.91128  -0.78217
 Alpha  occ. eigenvalues --   -0.73345  -0.70764  -0.63815  -0.59764  -0.57079
 Alpha  occ. eigenvalues --   -0.52908  -0.48973  -0.48517  -0.46057  -0.44888
 Alpha  occ. eigenvalues --   -0.43895  -0.41893  -0.41830  -0.40577  -0.39608
 Alpha  occ. eigenvalues --   -0.38534  -0.37799  -0.36758  -0.35944  -0.35695
 Alpha  occ. eigenvalues --   -0.27568  -0.25889  -0.24834  -0.23506
 Alpha virt. eigenvalues --    0.01487   0.03410   0.07225   0.10347   0.11859
 Alpha virt. eigenvalues --    0.12458   0.13672   0.15089   0.16180   0.16570
 Alpha virt. eigenvalues --    0.16941   0.17259   0.17864   0.18961   0.20148

 Mulliken atomic charges:
              1
     1  H    0.187966
     2  C   -0.531980
     3  H    0.147679
     4  H    0.189476
     5  C    0.600080
     6  O   -0.528290
     7  N   -0.583515
     8  H    0.331330
     9  C   -0.053297
    10  H    0.174594
    11  C   -0.464133
    12  H    0.171399
    13  H    0.165684
    14  H    0.148433
    15  C    0.608570
    16  O   -0.526595
    17  N   -0.590260
    18  H    0.354373
    19  C   -0.310344
    20  H    0.195254
    21  H    0.157384
    22  H    0.156192
 Sum of Mulliken atomic charges =   0.00000

 Dipole moment (field-independent basis, Debye):
    X=             -2.0303    Y=              0.2261    Z=              0.4205  Tot=              2.0857
 Quadrupole moment (field-independent basis, Debye-Ang):
   XX=            -58.5876   YY=            -57.8030   ZZ=            -61.6707
   XY=             -7.5663   XZ=             -8.6249   YZ=             -3.3255

 Normal termination of Gaussian 09 at Fri Feb 10 23:39:14 2017.
