 Gaussian 09, Revision A.02,
 Gaussian 09:  EM64L-G09RevA.02 11-Jun-2009

 ----------------------------------------------------------------------
 # b3lyp/6-31G* Opt=(ModRedundant, maxcycles=1000, calcfc) geom=nocrowd
 ----------------------------------------------------------------------

 ------------------
 Phi Psi fixed scan
 ------------------
 Symbolic Z-matrix:
 Charge =  0 Multiplicity = 1

 SCF Done:  E(RB3LYP) =  -495.848341707     A.U. after   15 cycles

  Exact polarizability:   0.000   0.000   0.000   0.000   0.000   0.000
 Approx polarizability: 108.960  -9.701 122.300   5.668 -21.956 105.185

 SCF Done:  E(RB3LYP) =  -495.851167002     A.U. after   12 cycles
 SCF Done:  E(RB3LYP) =  -495.854110852     A.U. after   16 cycles
 SCF Done:  E(RB3LYP) =  -495.854525456     A.U. after   12 cycles
 SCF Done:  E(RB3LYP) =  -495.718923151     A.U. after   16 cycles
 SCF Done:  E(RB3LYP) =  -495.754968645     A.U. after   13 cycles
 SCF Done:  E(RB3LYP) =  -495.784162768     A.U. after   12 cycles
 SCF Done:  E(RB3LYP) =  -495.807236237     A.U. after   12 cycles
 SCF Done:  E(RB3LYP) =  -495.824938992     A.U. after   13 cycles
 SCF Done:  E(RB3LYP) =  -495.854525470     A.U. after   16 cycles
 SCF Done:  E(RB3LYP) =  -495.854491691     A.U. after   11 cycles
 SCF Done:  E(RB3LYP) =  -495.854628815     A.U. after   11 cycles
 SCF Done:  E(RB3LYP) =  -495.854746356     A.U. after   11 cycles
 SCF Done:  E(RB3LYP) =  -495.854767929     A.U. after   11 cycles
 SCF Done:  E(RB3LYP) =  -495.854792951     A.U. after   11 cycles
 SCF Done:  E(RB3LYP) =  -495.854811723     A.U. after   16 cycles
 SCF Done:  E(RB3LYP) =  -495.854814688     A.U. after   10 cycles
 SCF Done:  E(RB3LYP) =  -495.854815098     A.U. after    7 cycles
 SCF Done:  E(RB3LYP) =  -495.854815165     A.U. after    6 cycles
 SCF Done:  E(RB3LYP) =  -495.854815165     A.U. after    6 cycles
 Optimization completed.
    -- Stationary point found.

                         Standard orientation:
 ---------------------------------------------------------------------
 Center     Atomic      Atomic             Coordinates (Angstroms)
 Number     Number       Type             X           Y           Z
 ---------------------------------------------------------------------
      1          1           0        3.175606   -1.628357   -1.115296
      2          6           0        3.146411   -0.603661   -0.733618
      3          1           0        3.256006    0.093881   -1.569634
      4          1           0        3.999719   -0.482782   -0.058458
      5          6           0        1.866714   -0.410236    0.060726
      6          8           0        1.562635   -1.160867    0.990686
      7          7           0        1.077138    0.633491   -0.312420
      8          1           0        1.335507    1.199455   -1.108691
      9          6           0       -0.111171    1.028097    0.452944
     10          1           0        0.078690    0.715288    1.484301
     11          6           0       -0.319240    2.536692    0.377212
     12          1           0       -0.546149    2.845571   -0.647901
     13          1           0       -1.172474    2.829345    0.995122
     14          1           0        0.570801    3.065553    0.733416
     15          6           0       -1.351436    0.264401   -0.075941
     16          8           0       -2.206608    0.803062   -0.770430
     17          7           0       -1.377063   -1.039198    0.313805
     18          1           0       -0.547309   -1.394142    0.783102
     19          6           0       -2.386974   -1.970607   -0.154350
     20          1           0       -3.209555   -1.389702   -0.574303
     21          1           0       -1.996058   -2.640532   -0.931715
     22          1           0       -2.759343   -2.579319    0.676481
 ---------------------------------------------------------------------

 The electronic state is 1-A.
 Alpha  occ. eigenvalues --  -19.12124 -19.10511 -14.37343 -14.34752 -10.29910
 Alpha  occ. eigenvalues --  -10.27592 -10.23518 -10.20914 -10.20179 -10.18487
 Alpha  occ. eigenvalues --   -1.04094  -1.02168  -0.93223  -0.90792  -0.78332
 Alpha  occ. eigenvalues --   -0.73503  -0.70686  -0.63820  -0.59986  -0.56863
 Alpha  occ. eigenvalues --   -0.52835  -0.49354  -0.48686  -0.45835  -0.45063
 Alpha  occ. eigenvalues --   -0.43791  -0.41994  -0.41798  -0.40832  -0.39297
 Alpha  occ. eigenvalues --   -0.38494  -0.37679  -0.37029  -0.36175  -0.35560
 Alpha  occ. eigenvalues --   -0.27822  -0.26166  -0.24311  -0.23506
 Alpha virt. eigenvalues --    0.01268   0.03511   0.06961   0.10621   0.11789
 Alpha virt. eigenvalues --    0.12518   0.14172   0.15021   0.16091   0.16632
 Alpha virt. eigenvalues --    0.16925   0.17383   0.17800   0.18783   0.20474

 Mulliken atomic charges:
              1
     1  H    0.188947
     2  C   -0.531622
     3  H    0.148308
     4  H    0.190326
     5  C    0.601741
     6  O   -0.530240
     7  N   -0.583141
     8  H    0.330432
     9  C   -0.058196
    10  H    0.178694
    11  C   -0.461600
    12  H    0.167690
    13  H    0.171206
    14  H    0.145601
    15  C    0.608162
    16  O   -0.525712
    17  N   -0.598743
    18  H    0.361943
    19  C   -0.310124
    20  H    0.195547
    21  H    0.154704
    22  H    0.156078
 Sum of Mulliken atomic charges =   0.00000

 Dipole moment (field-independent basis, Debye):
    X=              2.6233    Y=              0.2895    Z=             -0.8342  Tot=              2.7679
 Quadrupole moment (field-independent basis, Debye-Ang):
   XX=            -60.5080   YY=            -57.3896   ZZ=            -60.9306
   XY=              7.7989   XZ=             -8.1074   YZ=              3.0415

 Normal termination of Gaussian 09 at Fri Feb 10 23:30:45 2017.
