 Gaussian 09, Revision A.02,
 Gaussian 09:  EM64L-G09RevA.02 11-Jun-2009

 ----------------------------------------------------------------------
 # b3lyp/6-31G* Opt=(ModRedundant, maxcycles=1000, calcfc) geom=nocrowd
 ----------------------------------------------------------------------

 ------------------
 Phi Psi fixed scan
 ------------------
 Symbolic Z-matrix:
 Charge =  0 Multiplicity = 1

 SCF Done:  E(RB3LYP) =  -495.825942153     A.U. after   15 cycles

  Exact polarizability:   0.000   0.000   0.000   0.000   0.000   0.000
 Approx polarizability: 114.937  12.944 113.529  10.984  19.920 108.539

 SCF Done:  E(RB3LYP) =  -495.831312960     A.U. after   13 cycles
 SCF Done:  E(RB3LYP) =  -495.837564253     A.U. after   13 cycles
 SCF Done:  E(RB3LYP) =  -495.839596876     A.U. after   15 cycles
 SCF Done:  E(RB3LYP) =  -495.840247983     A.U. after   13 cycles
 SCF Done:  E(RB3LYP) =  -495.831361117     A.U. after   16 cycles
 SCF Done:  E(RB3LYP) =  -495.840261177     A.U. after   16 cycles
 SCF Done:  E(RB3LYP) =  -495.840552204     A.U. after   12 cycles
 SCF Done:  E(RB3LYP) =  -495.839725344     A.U. after   13 cycles
 SCF Done:  E(RB3LYP) =  -495.840727401     A.U. after   12 cycles
 SCF Done:  E(RB3LYP) =  -495.840793111     A.U. after   10 cycles
 SCF Done:  E(RB3LYP) =  -495.840799558     A.U. after   10 cycles
 SCF Done:  E(RB3LYP) =  -495.840805536     A.U. after   10 cycles
 SCF Done:  E(RB3LYP) =  -495.840808200     A.U. after   10 cycles
 SCF Done:  E(RB3LYP) =  -495.840809786     A.U. after    9 cycles
 SCF Done:  E(RB3LYP) =  -495.840812169     A.U. after   10 cycles
 SCF Done:  E(RB3LYP) =  -495.840814201     A.U. after   10 cycles
 SCF Done:  E(RB3LYP) =  -495.840814786     A.U. after    9 cycles
 SCF Done:  E(RB3LYP) =  -495.840814847     A.U. after    7 cycles
 SCF Done:  E(RB3LYP) =  -495.840814837     A.U. after    6 cycles
 Optimization completed.
    -- Stationary point found.

                         Standard orientation:
 ---------------------------------------------------------------------
 Center     Atomic      Atomic             Coordinates (Angstroms)
 Number     Number       Type             X           Y           Z
 ---------------------------------------------------------------------
      1          1           0       -4.021464   -0.949162    0.675329
      2          6           0       -2.985766   -0.925614    1.019434
      3          1           0       -2.629243   -1.960024    1.094513
      4          1           0       -2.941263   -0.472753    2.015825
      5          6           0       -2.143078   -0.184637   -0.007406
      6          8           0       -2.420491   -0.165358   -1.194881
      7          7           0       -1.056565    0.493082    0.519345
      8          1           0       -0.819139    0.280297    1.481170
      9          6           0        0.056709    0.907532   -0.333775
     10          1           0       -0.361169    0.938047   -1.343275
     11          6           0        0.555854    2.300849    0.060525
     12          1           0        0.882084    2.344620    1.108561
     13          1           0        1.389459    2.619107   -0.575973
     14          1           0       -0.255408    3.025317   -0.053892
     15          6           0        1.110653   -0.227092   -0.369734
     16          8           0        0.879689   -1.275538   -0.955663
     17          7           0        2.248857   -0.020512    0.363748
     18          1           0        2.428106    0.900917    0.733560
     19          6           0        3.326507   -0.995081    0.405718
     20          1           0        2.931219   -1.935638    0.020291
     21          1           0        4.177312   -0.688773   -0.216320
     22          1           0        3.674612   -1.138524    1.434338
 ---------------------------------------------------------------------

 The electronic state is 1-A.
 Alpha  occ. eigenvalues --  -19.10931 -19.10575 -14.36700 -14.35817 -10.28482
 Alpha  occ. eigenvalues --  -10.28319 -10.23335 -10.22127 -10.19787 -10.18822
 Alpha  occ. eigenvalues --   -1.03297  -1.02324  -0.92422  -0.91773  -0.78163
 Alpha  occ. eigenvalues --   -0.72818  -0.70891  -0.64968  -0.58676  -0.58185
 Alpha  occ. eigenvalues --   -0.53508  -0.48050  -0.47264  -0.46318  -0.44807
 Alpha  occ. eigenvalues --   -0.43824  -0.42658  -0.41885  -0.40261  -0.39593
 Alpha  occ. eigenvalues --   -0.39111  -0.38631  -0.37240  -0.35660  -0.34931
 Alpha  occ. eigenvalues --   -0.27116  -0.25562  -0.24489  -0.23318
 Alpha virt. eigenvalues --    0.01277   0.04313   0.06450   0.08651   0.11294
 Alpha virt. eigenvalues --    0.13021   0.13583   0.14420   0.15428   0.15644
 Alpha virt. eigenvalues --    0.16235   0.16527   0.18220   0.18327   0.19721

 Mulliken atomic charges:
              1
     1  H    0.187349
     2  C   -0.546411
     3  H    0.187466
     4  H    0.148525
     5  C    0.600146
     6  O   -0.486056
     7  N   -0.582422
     8  H    0.314511
     9  C   -0.041966
    10  H    0.208138
    11  C   -0.478743
    12  H    0.135399
    13  H    0.157414
    14  H    0.177498
    15  C    0.578934
    16  O   -0.500418
    17  N   -0.596506
    18  H    0.328154
    19  C   -0.311197
    20  H    0.206273
    21  H    0.159939
    22  H    0.153970
 Sum of Mulliken atomic charges =   0.00000

 Dipole moment (field-independent basis, Debye):
    X=              3.0959    Y=              2.3420    Z=              4.7059  Tot=              6.1004
 Quadrupole moment (field-independent basis, Debye-Ang):
   XX=            -55.0160   YY=            -59.6836   ZZ=            -61.7568
   XY=              3.0693   XZ=             -4.3765   YZ=             -3.7004

 Normal termination of Gaussian 09 at Fri Feb 10 23:14:49 2017.
