 Gaussian 09, Revision A.02,
 Gaussian 09:  EM64L-G09RevA.02 11-Jun-2009

 ----------------------------------------------------------------------
 # b3lyp/6-31G* Opt=(ModRedundant, maxcycles=1000, calcfc) geom=nocrowd
 ----------------------------------------------------------------------

 ------------------
 Phi Psi fixed scan
 ------------------
 Symbolic Z-matrix:
 Charge =  0 Multiplicity = 1

 SCF Done:  E(RB3LYP) =  -495.833197549     A.U. after   15 cycles

  Exact polarizability:   0.000   0.000   0.000   0.000   0.000   0.000
 Approx polarizability: 103.714  -0.982  92.644   5.459  -4.737 139.291

 SCF Done:  E(RB3LYP) =  -495.836700004     A.U. after   12 cycles
 SCF Done:  E(RB3LYP) =  -495.840473916     A.U. after   13 cycles
 SCF Done:  E(RB3LYP) =  -495.841205854     A.U. after   13 cycles
 SCF Done:  E(RB3LYP) =  -495.795637835     A.U. after   15 cycles
 SCF Done:  E(RB3LYP) =  -495.809800928     A.U. after   12 cycles
 SCF Done:  E(RB3LYP) =  -495.820678227     A.U. after   12 cycles
 SCF Done:  E(RB3LYP) =  -495.828722220     A.U. after   12 cycles
 SCF Done:  E(RB3LYP) =  -495.834408333     A.U. after   12 cycles
 SCF Done:  E(RB3LYP) =  -495.838020390     A.U. after   12 cycles
 SCF Done:  E(RB3LYP) =  -495.841501381     A.U. after   11 cycles
 SCF Done:  E(RB3LYP) =  -495.841554597     A.U. after   12 cycles
 SCF Done:  E(RB3LYP) =  -495.841569761     A.U. after   10 cycles
 SCF Done:  E(RB3LYP) =  -495.841572432     A.U. after   10 cycles
 SCF Done:  E(RB3LYP) =  -495.841573365     A.U. after   10 cycles
 SCF Done:  E(RB3LYP) =  -495.841574416     A.U. after   10 cycles
 SCF Done:  E(RB3LYP) =  -495.841574817     A.U. after   10 cycles
 SCF Done:  E(RB3LYP) =  -495.841574796     A.U. after    9 cycles
 SCF Done:  E(RB3LYP) =  -495.841574810     A.U. after    7 cycles
 SCF Done:  E(RB3LYP) =  -495.841574847     A.U. after    8 cycles
 Optimization completed.
    -- Stationary point found.

                         Standard orientation:
 ---------------------------------------------------------------------
 Center     Atomic      Atomic             Coordinates (Angstroms)
 Number     Number       Type             X           Y           Z
 ---------------------------------------------------------------------
      1          1           0        3.330925   -1.870035   -0.706547
      2          6           0        3.206570   -0.785718   -0.780078
      3          1           0        3.070651   -0.514936   -1.832169
      4          1           0        4.129586   -0.326914   -0.411368
      5          6           0        2.054330   -0.365208    0.122557
      6          8           0        2.018727   -0.651383    1.308649
      7          7           0        1.052159    0.348333   -0.497095
      8          1           0        1.233691    0.697447   -1.428843
      9          6           0       -0.032846    0.974735    0.261460
     10          1           0        0.336819    1.138007    1.276926
     11          6           0       -0.440474    2.305303   -0.377732
     12          1           0       -0.791410    2.170566   -1.408154
     13          1           0       -1.256148    2.760712    0.191599
     14          1           0        0.405053    3.001952   -0.384461
     15          6           0       -1.248953    0.038001    0.448931
     16          8           0       -1.717375   -0.184006    1.554874
     17          7           0       -1.837199   -0.388578   -0.715291
     18          1           0       -1.262195   -0.367107   -1.547263
     19          6           0       -2.941346   -1.335623   -0.696005
     20          1           0       -3.520416   -1.154830    0.210386
     21          1           0       -3.577418   -1.179926   -1.572652
     22          1           0       -2.598367   -2.379050   -0.683727
 ---------------------------------------------------------------------

 The electronic state is 1-A.
 Alpha  occ. eigenvalues --  -19.11108 -19.10858 -14.36746 -14.35917 -10.29021
 Alpha  occ. eigenvalues --  -10.27930 -10.23397 -10.21634 -10.19898 -10.19677
 Alpha  occ. eigenvalues --   -1.03380  -1.02599  -0.92980  -0.91309  -0.78421
 Alpha  occ. eigenvalues --   -0.73321  -0.70664  -0.64840  -0.59345  -0.57751
 Alpha  occ. eigenvalues --   -0.52729  -0.49491  -0.47806  -0.45383  -0.44929
 Alpha  occ. eigenvalues --   -0.43894  -0.42689  -0.41928  -0.40545  -0.39722
 Alpha  occ. eigenvalues --   -0.39392  -0.38238  -0.37639  -0.35971  -0.34881
 Alpha  occ. eigenvalues --   -0.27581  -0.25081  -0.24924  -0.23540
 Alpha virt. eigenvalues --    0.02258   0.02645   0.05314   0.09135   0.11484
 Alpha virt. eigenvalues --    0.12282   0.13179   0.14659   0.14975   0.15781
 Alpha virt. eigenvalues --    0.16481   0.17223   0.17672   0.18793   0.19440

 Mulliken atomic charges:
              1
     1  H    0.190432
     2  C   -0.537768
     3  H    0.139222
     4  H    0.187670
     5  C    0.591225
     6  O   -0.485325
     7  N   -0.612600
     8  H    0.316000
     9  C   -0.045853
    10  H    0.197507
    11  C   -0.473289
    12  H    0.141793
    13  H    0.181879
    14  H    0.160588
    15  C    0.611120
    16  O   -0.500474
    17  N   -0.580564
    18  H    0.315213
    19  C   -0.307085
    20  H    0.199777
    21  H    0.150916
    22  H    0.159615
 Sum of Mulliken atomic charges =   0.00000

 Dipole moment (field-independent basis, Debye):
    X=              0.5163    Y=              1.3647    Z=             -6.3181  Tot=              6.4844
 Quadrupole moment (field-independent basis, Debye-Ang):
   XX=            -57.5963   YY=            -56.5297   ZZ=            -64.3115
   XY=              2.8083   XZ=             -0.8250   YZ=              3.2373

 Normal termination of Gaussian 09 at Fri Feb 10 23:41:28 2017.
