 Gaussian 09, Revision A.02,
 Gaussian 09:  EM64L-G09RevA.02 11-Jun-2009

 ----------------------------------------------------------------------
 # b3lyp/6-31G* Opt=(ModRedundant, maxcycles=1000, calcfc) geom=nocrowd
 ----------------------------------------------------------------------

 ------------------
 Phi Psi fixed scan
 ------------------
 Symbolic Z-matrix:
 Charge =  0 Multiplicity = 1

 SCF Done:  E(RB3LYP) =  -495.838116104     A.U. after   16 cycles

  Exact polarizability:   0.000   0.000   0.000   0.000   0.000   0.000
 Approx polarizability: 105.345  -4.602 100.674  -4.176  10.073 129.515

 SCF Done:  E(RB3LYP) =  -495.841591245     A.U. after   13 cycles
 SCF Done:  E(RB3LYP) =  -495.845580831     A.U. after   13 cycles
 SCF Done:  E(RB3LYP) =  -495.846680536     A.U. after   13 cycles
 SCF Done:  E(RB3LYP) =  -495.831891988     A.U. after   14 cycles
 SCF Done:  E(RB3LYP) =  -495.838437259     A.U. after   12 cycles
 SCF Done:  E(RB3LYP) =  -495.842401865     A.U. after   12 cycles
 SCF Done:  E(RB3LYP) =  -495.844441554     A.U. after   12 cycles
 SCF Done:  E(RB3LYP) =  -495.844217651     A.U. after   12 cycles
 SCF Done:  E(RB3LYP) =  -495.845339435     A.U. after   12 cycles
 SCF Done:  E(RB3LYP) =  -495.846705139     A.U. after   13 cycles
 SCF Done:  E(RB3LYP) =  -495.847117164     A.U. after   13 cycles
 SCF Done:  E(RB3LYP) =  -495.847142338     A.U. after   11 cycles
 SCF Done:  E(RB3LYP) =  -495.847150717     A.U. after   10 cycles
 SCF Done:  E(RB3LYP) =  -495.847157976     A.U. after   10 cycles
 SCF Done:  E(RB3LYP) =  -495.847170242     A.U. after   11 cycles
 SCF Done:  E(RB3LYP) =  -495.847177484     A.U. after   11 cycles
 SCF Done:  E(RB3LYP) =  -495.847178139     A.U. after   10 cycles
 SCF Done:  E(RB3LYP) =  -495.847178187     A.U. after    7 cycles
 SCF Done:  E(RB3LYP) =  -495.847178194     A.U. after    6 cycles
 Optimization completed.
    -- Stationary point found.

                         Standard orientation:
 ---------------------------------------------------------------------
 Center     Atomic      Atomic             Coordinates (Angstroms)
 Number     Number       Type             X           Y           Z
 ---------------------------------------------------------------------
      1          1           0        3.457113   -1.820171   -0.257626
      2          6           0        3.226319   -0.787111   -0.529699
      3          1           0        3.122977   -0.715476   -1.617332
      4          1           0        4.075232   -0.168892   -0.216979
      5          6           0        1.985288   -0.345787    0.233050
      6          8           0        1.825741   -0.583446    1.419875
      7          7           0        1.045066    0.337062   -0.511250
      8          1           0        1.327437    0.667800   -1.425206
      9          6           0       -0.062189    1.042617    0.138023
     10          1           0        0.258104    1.309414    1.148998
     11          6           0       -0.431717    2.307411   -0.644812
     12          1           0       -0.741517    2.063319   -1.668551
     13          1           0       -1.267107    2.808762   -0.149604
     14          1           0        0.415780    3.000475   -0.687619
     15          6           0       -1.322237    0.175790    0.339187
     16          8           0       -2.133488    0.465572    1.208789
     17          7           0       -1.513978   -0.803279   -0.591698
     18          1           0       -0.703119   -1.068644   -1.134655
     19          6           0       -2.631979   -1.727099   -0.510407
     20          1           0       -3.403733   -1.257617    0.101280
     21          1           0       -3.031198   -1.928563   -1.510003
     22          1           0       -2.346517   -2.678824   -0.043423
 ---------------------------------------------------------------------

 The electronic state is 1-A.
 Alpha  occ. eigenvalues --  -19.11747 -19.10387 -14.37044 -14.35610 -10.29513
 Alpha  occ. eigenvalues --  -10.27725 -10.23421 -10.21399 -10.20070 -10.19566
 Alpha  occ. eigenvalues --   -1.03872  -1.02325  -0.93302  -0.91085  -0.78411
 Alpha  occ. eigenvalues --   -0.73565  -0.70759  -0.64518  -0.59484  -0.57463
 Alpha  occ. eigenvalues --   -0.52783  -0.49778  -0.48156  -0.45632  -0.45007
 Alpha  occ. eigenvalues --   -0.43739  -0.42590  -0.41878  -0.40713  -0.39810
 Alpha  occ. eigenvalues --   -0.39051  -0.38353  -0.37919  -0.35994  -0.34396
 Alpha  occ. eigenvalues --   -0.27898  -0.25550  -0.24869  -0.23543
 Alpha virt. eigenvalues --    0.01834   0.03088   0.05994   0.10090   0.11306
 Alpha virt. eigenvalues --    0.12099   0.13562   0.14554   0.14907   0.15948
 Alpha virt. eigenvalues --    0.16502   0.17396   0.17567   0.18186   0.19593

 Mulliken atomic charges:
              1
     1  H    0.191206
     2  C   -0.541132
     3  H    0.144554
     4  H    0.188124
     5  C    0.583280
     6  O   -0.484651
     7  N   -0.625238
     8  H    0.323582
     9  C   -0.023783
    10  H    0.194053
    11  C   -0.479102
    12  H    0.147684
    13  H    0.191331
    14  H    0.155994
    15  C    0.607835
    16  O   -0.520152
    17  N   -0.585225
    18  H    0.327950
    19  C   -0.309098
    20  H    0.200798
    21  H    0.151180
    22  H    0.160810
 Sum of Mulliken atomic charges =   0.00000

 Dipole moment (field-independent basis, Debye):
    X=              2.0505    Y=             -0.0752    Z=             -5.5962  Tot=              5.9605
 Quadrupole moment (field-independent basis, Debye-Ang):
   XX=            -59.7955   YY=            -55.1177   ZZ=            -64.5194
   XY=              4.8178   XZ=             -0.9550   YZ=              1.2252

 Normal termination of Gaussian 09 at Fri Feb 10 23:22:18 2017.
