 Gaussian 09, Revision A.02,
 Gaussian 09:  EM64L-G09RevA.02 11-Jun-2009

 ----------------------------------------------------------------------
 # b3lyp/6-31G* Opt=(ModRedundant, maxcycles=1000, calcfc) geom=nocrowd
 ----------------------------------------------------------------------

 ------------------
 Phi Psi fixed scan
 ------------------
 Symbolic Z-matrix:
 Charge =  0 Multiplicity = 1

 SCF Done:  E(RB3LYP) =  -495.845910617     A.U. after   15 cycles

  Exact polarizability:   0.000   0.000   0.000   0.000   0.000   0.000
 Approx polarizability: 103.654  -0.715 118.637  -0.283  25.318 113.105

 SCF Done:  E(RB3LYP) =  -495.848333265     A.U. after   11 cycles
 SCF Done:  E(RB3LYP) =  -495.850989791     A.U. after   12 cycles
 SCF Done:  E(RB3LYP) =  -495.851680948     A.U. after   13 cycles
 SCF Done:  E(RB3LYP) =  -495.819410310     A.U. after   14 cycles
 SCF Done:  E(RB3LYP) =  -495.830180768     A.U. after   12 cycles
 SCF Done:  E(RB3LYP) =  -495.838019465     A.U. after   12 cycles
 SCF Done:  E(RB3LYP) =  -495.843744186     A.U. after   12 cycles
 SCF Done:  E(RB3LYP) =  -495.847805643     A.U. after   12 cycles
 SCF Done:  E(RB3LYP) =  -495.849317869     A.U. after   12 cycles
 SCF Done:  E(RB3LYP) =  -495.852119373     A.U. after   13 cycles
 SCF Done:  E(RB3LYP) =  -495.852175184     A.U. after   12 cycles
 SCF Done:  E(RB3LYP) =  -495.852202119     A.U. after   11 cycles
 SCF Done:  E(RB3LYP) =  -495.852220912     A.U. after   10 cycles
 SCF Done:  E(RB3LYP) =  -495.852258765     A.U. after   11 cycles
 SCF Done:  E(RB3LYP) =  -495.852264264     A.U. after   10 cycles
 SCF Done:  E(RB3LYP) =  -495.852265297     A.U. after    9 cycles
 SCF Done:  E(RB3LYP) =  -495.852265556     A.U. after    7 cycles
 SCF Done:  E(RB3LYP) =  -495.852265865     A.U. after    8 cycles
 SCF Done:  E(RB3LYP) =  -495.852266177     A.U. after    9 cycles
 Optimization completed.
    -- Stationary point found.

                         Standard orientation:
 ---------------------------------------------------------------------
 Center     Atomic      Atomic             Coordinates (Angstroms)
 Number     Number       Type             X           Y           Z
 ---------------------------------------------------------------------
      1          1           0       -3.025695   -1.749303    1.228444
      2          6           0       -3.121267   -0.755827    0.779395
      3          1           0       -3.269019   -0.017135    1.573102
      4          1           0       -4.009078   -0.771738    0.139759
      5          6           0       -1.902392   -0.487305   -0.087224
      6          8           0       -1.606343   -1.212356   -1.034743
      7          7           0       -1.168268    0.618819    0.240614
      8          1           0       -1.327957    1.087330    1.121985
      9          6           0        0.048547    0.955082   -0.496542
     10          1           0       -0.093494    0.558136   -1.503627
     11          6           0        0.253523    2.469011   -0.537941
     12          1           0        0.442512    2.853981    0.469069
     13          1           0        1.123159    2.717647   -1.155051
     14          1           0       -0.627194    2.963148   -0.959873
     15          6           0        1.247093    0.268508    0.190159
     16          8           0        1.721447    0.701464    1.234969
     17          7           0        1.725058   -0.820668   -0.477347
     18          1           0        1.110086   -1.223958   -1.174199
     19          6           0        2.765153   -1.665826    0.087002
     20          1           0        3.362172   -1.054606    0.765159
     21          1           0        2.348863   -2.509497    0.653175
     22          1           0        3.403346   -2.055785   -0.711707
 ---------------------------------------------------------------------

 The electronic state is 1-A.
 Alpha  occ. eigenvalues --  -19.11358 -19.10985 -14.36569 -14.35874 -10.29209
 Alpha  occ. eigenvalues --  -10.28033 -10.23286 -10.21478 -10.19581 -10.18437
 Alpha  occ. eigenvalues --   -1.03528  -1.02595  -0.92588  -0.91606  -0.78054
 Alpha  occ. eigenvalues --   -0.73106  -0.70942  -0.63815  -0.59321  -0.57597
 Alpha  occ. eigenvalues --   -0.53156  -0.48405  -0.48183  -0.46299  -0.44687
 Alpha  occ. eigenvalues --   -0.44141  -0.42018  -0.41618  -0.40279  -0.39911
 Alpha  occ. eigenvalues --   -0.38831  -0.37849  -0.36472  -0.35789  -0.35669
 Alpha  occ. eigenvalues --   -0.27245  -0.25515  -0.25291  -0.23605
 Alpha virt. eigenvalues --    0.01692   0.03330   0.07685   0.09329   0.11991
 Alpha virt. eigenvalues --    0.12531   0.13193   0.15204   0.16072   0.16507
 Alpha virt. eigenvalues --    0.17037   0.17195   0.17952   0.18746   0.20155

 Mulliken atomic charges:
              1
     1  H    0.186259
     2  C   -0.532998
     3  H    0.147384
     4  H    0.188417
     5  C    0.596907
     6  O   -0.524972
     7  N   -0.581476
     8  H    0.331993
     9  C   -0.050784
    10  H    0.170101
    11  C   -0.461841
    12  H    0.170850
    13  H    0.160786
    14  H    0.153191
    15  C    0.610585
    16  O   -0.530754
    17  N   -0.584190
    18  H    0.346372
    19  C   -0.310434
    20  H    0.197018
    21  H    0.160902
    22  H    0.156682
 Sum of Mulliken atomic charges =   0.00000

 Dipole moment (field-independent basis, Debye):
    X=             -1.0370    Y=              0.1537    Z=              0.0542  Tot=              1.0497
 Quadrupole moment (field-independent basis, Debye-Ang):
   XX=            -56.7576   YY=            -58.2058   ZZ=            -62.3352
   XY=             -7.1022   XZ=             -9.2603   YZ=             -3.2969

 Normal termination of Gaussian 09 at Fri Feb 10 23:24:54 2017.
