 Gaussian 09, Revision A.02,
 Gaussian 09:  EM64L-G09RevA.02 11-Jun-2009

 ----------------------------------------------------------------------
 # b3lyp/6-31G* Opt=(ModRedundant, maxcycles=1000, calcfc) geom=nocrowd
 ----------------------------------------------------------------------

 ------------------
 Phi Psi fixed scan
 ------------------
 Symbolic Z-matrix:
 Charge =  0 Multiplicity = 1

 SCF Done:  E(RB3LYP) =  -495.837828799     A.U. after   15 cycles

  Exact polarizability:   0.000   0.000   0.000   0.000   0.000   0.000
 Approx polarizability: 114.826  -9.169 105.539  -9.982  -0.895 113.033

 SCF Done:  E(RB3LYP) =  -495.840639700     A.U. after   12 cycles
 SCF Done:  E(RB3LYP) =  -495.844355361     A.U. after   13 cycles
 SCF Done:  E(RB3LYP) =  -495.845434318     A.U. after   12 cycles
 SCF Done:  E(RB3LYP) =  -495.846440753     A.U. after   13 cycles
 SCF Done:  E(RB3LYP) =  -495.846824373     A.U. after   15 cycles
 SCF Done:  E(RB3LYP) =  -495.847101781     A.U. after   13 cycles
 SCF Done:  E(RB3LYP) =  -495.847415557     A.U. after   12 cycles
 SCF Done:  E(RB3LYP) =  -495.847699604     A.U. after   11 cycles
 SCF Done:  E(RB3LYP) =  -495.847748129     A.U. after   11 cycles
 SCF Done:  E(RB3LYP) =  -495.847771978     A.U. after   10 cycles
 SCF Done:  E(RB3LYP) =  -495.847804566     A.U. after   11 cycles
 SCF Done:  E(RB3LYP) =  -495.847831148     A.U. after   10 cycles
 SCF Done:  E(RB3LYP) =  -495.847862449     A.U. after   11 cycles
 SCF Done:  E(RB3LYP) =  -495.847880395     A.U. after   11 cycles
 SCF Done:  E(RB3LYP) =  -495.847888479     A.U. after   10 cycles
 SCF Done:  E(RB3LYP) =  -495.847888926     A.U. after    9 cycles
 SCF Done:  E(RB3LYP) =  -495.847888982     A.U. after    7 cycles
 SCF Done:  E(RB3LYP) =  -495.847888997     A.U. after    6 cycles
 Optimization completed.
    -- Stationary point found.

                         Standard orientation:
 ---------------------------------------------------------------------
 Center     Atomic      Atomic             Coordinates (Angstroms)
 Number     Number       Type             X           Y           Z
 ---------------------------------------------------------------------
      1          1           0        4.063324   -1.079636    0.107726
      2          6           0        3.197980   -0.885480   -0.528026
      3          1           0        2.806704   -1.845158   -0.887349
      4          1           0        3.503145   -0.295272   -1.398600
      5          6           0        2.126419   -0.187473    0.292040
      6          8           0        2.084796   -0.245273    1.512572
      7          7           0        1.214606    0.541226   -0.452414
      8          1           0        1.143512    0.255367   -1.423126
      9          6           0       -0.063078    0.891601    0.143495
     10          1           0        0.111573    0.923621    1.223999
     11          6           0       -0.532992    2.268336   -0.354635
     12          1           0       -0.708399    2.255732   -1.436718
     13          1           0       -1.463954    2.583523    0.128069
     14          1           0        0.234750    3.017252   -0.140506
     15          6           0       -1.090323   -0.228569   -0.155940
     16          8           0       -0.801000   -1.194477   -0.853283
     17          7           0       -2.340345   -0.022170    0.351326
     18          1           0       -2.468910    0.731364    1.011880
     19          6           0       -3.404279   -1.004927    0.222151
     20          1           0       -3.129287   -1.682421   -0.586796
     21          1           0       -3.534450   -1.589777    1.141668
     22          1           0       -4.350572   -0.510907   -0.021453
 ---------------------------------------------------------------------

 The electronic state is 1-A.
 Alpha  occ. eigenvalues --  -19.11700 -19.10728 -14.36755 -14.34855 -10.28779
 Alpha  occ. eigenvalues --  -10.28128 -10.23270 -10.22189 -10.19331 -10.18398
 Alpha  occ. eigenvalues --   -1.03770  -1.02365  -0.92484  -0.91577  -0.77900
 Alpha  occ. eigenvalues --   -0.72593  -0.70915  -0.64254  -0.58880  -0.57305
 Alpha  occ. eigenvalues --   -0.53548  -0.47657  -0.46807  -0.45772  -0.45574
 Alpha  occ. eigenvalues --   -0.43902  -0.42745  -0.41673  -0.40332  -0.39564
 Alpha  occ. eigenvalues --   -0.39177  -0.37983  -0.37647  -0.35468  -0.34701
 Alpha  occ. eigenvalues --   -0.26146  -0.25830  -0.25283  -0.23960
 Alpha virt. eigenvalues --    0.02383   0.03024   0.06404   0.09298   0.11753
 Alpha virt. eigenvalues --    0.13056   0.14479   0.14714   0.15539   0.15965
 Alpha virt. eigenvalues --    0.16493   0.16566   0.17951   0.18647   0.19430

 Mulliken atomic charges:
              1
     1  H    0.183385
     2  C   -0.547813
     3  H    0.188428
     4  H    0.158469
     5  C    0.587975
     6  O   -0.499705
     7  N   -0.562633
     8  H    0.325482
     9  C   -0.084303
    10  H    0.193648
    11  C   -0.441603
    12  H    0.153780
    13  H    0.138408
    14  H    0.170587
    15  C    0.606697
    16  O   -0.523649
    17  N   -0.587511
    18  H    0.327288
    19  C   -0.309349
    20  H    0.203450
    21  H    0.162698
    22  H    0.156269
 Sum of Mulliken atomic charges =   0.00000

 Dipole moment (field-independent basis, Debye):
    X=             -2.6968    Y=              1.9695    Z=             -1.1216  Tot=              3.5227
 Quadrupole moment (field-independent basis, Debye-Ang):
   XX=            -51.3846   YY=            -60.2537   ZZ=            -62.7156
   XY=             -2.2567   XZ=            -10.1829   YZ=              0.1164

 Normal termination of Gaussian 09 at Fri Feb 10 23:09:05 2017.
