 Gaussian 09, Revision A.02,
 Gaussian 09:  EM64L-G09RevA.02 11-Jun-2009

 ----------------------------------------------------------------------
 # b3lyp/6-31G* Opt=(ModRedundant, maxcycles=1000, calcfc) geom=nocrowd
 ----------------------------------------------------------------------

 ------------------
 Phi Psi fixed scan
 ------------------
 Symbolic Z-matrix:
 Charge =  0 Multiplicity = 1

 SCF Done:  E(RB3LYP) =  -495.827290245     A.U. after   16 cycles

  Exact polarizability:   0.000   0.000   0.000   0.000   0.000   0.000
 Approx polarizability: 110.421   9.210 109.703  11.728  22.398 116.607

 SCF Done:  E(RB3LYP) =  -495.832192126     A.U. after   13 cycles
 SCF Done:  E(RB3LYP) =  -495.837816124     A.U. after   13 cycles
 SCF Done:  E(RB3LYP) =  -495.839473067     A.U. after   15 cycles
 SCF Done:  E(RB3LYP) =  -495.838609491     A.U. after   16 cycles
 SCF Done:  E(RB3LYP) =  -495.839505587     A.U. after   16 cycles
 SCF Done:  E(RB3LYP) =  -495.839908109     A.U. after   16 cycles
 SCF Done:  E(RB3LYP) =  -495.838919503     A.U. after   15 cycles
 SCF Done:  E(RB3LYP) =  -495.840141143     A.U. after   14 cycles
 SCF Done:  E(RB3LYP) =  -495.840228988     A.U. after   12 cycles
 SCF Done:  E(RB3LYP) =  -495.840261014     A.U. after   10 cycles
 SCF Done:  E(RB3LYP) =  -495.840272660     A.U. after   10 cycles
 SCF Done:  E(RB3LYP) =  -495.840275430     A.U. after   10 cycles
 SCF Done:  E(RB3LYP) =  -495.840276643     A.U. after    9 cycles
 SCF Done:  E(RB3LYP) =  -495.840277118     A.U. after    9 cycles
 SCF Done:  E(RB3LYP) =  -495.840277608     A.U. after    9 cycles
 SCF Done:  E(RB3LYP) =  -495.840278164     A.U. after    9 cycles
 SCF Done:  E(RB3LYP) =  -495.840278322     A.U. after    8 cycles
 SCF Done:  E(RB3LYP) =  -495.840278353     A.U. after    7 cycles
 SCF Done:  E(RB3LYP) =  -495.840278350     A.U. after    6 cycles
 Optimization completed.
    -- Stationary point found.

                         Standard orientation:
 ---------------------------------------------------------------------
 Center     Atomic      Atomic             Coordinates (Angstroms)
 Number     Number       Type             X           Y           Z
 ---------------------------------------------------------------------
      1          1           0        3.990750   -0.972352   -0.728971
      2          6           0        2.943072   -0.985333   -1.036057
      3          1           0        2.611789   -2.030449   -1.058216
      4          1           0        2.854069   -0.573184   -2.046905
      5          6           0        2.121238   -0.224743   -0.005372
      6          8           0        2.414099   -0.200252    1.178359
      7          7           0        1.036430    0.458809   -0.524540
      8          1           0        0.782735    0.244832   -1.481565
      9          6           0       -0.047052    0.940163    0.334028
     10          1           0        0.389418    1.007994    1.332621
     11          6           0       -0.529368    2.321550   -0.119297
     12          1           0       -0.851687    2.329713   -1.169734
     13          1           0       -1.364534    2.669977    0.498203
     14          1           0        0.288513    3.042708   -0.032183
     15          6           0       -1.135356   -0.154120    0.450821
     16          8           0       -1.052143   -1.045525    1.282892
     17          7           0       -2.129322   -0.106824   -0.493426
     18          1           0       -2.220957    0.725215   -1.057448
     19          6           0       -3.224439   -1.062833   -0.508341
     20          1           0       -2.934540   -1.900756    0.126686
     21          1           0       -4.151853   -0.627210   -0.114715
     22          1           0       -3.407684   -1.422271   -1.526712
 ---------------------------------------------------------------------

 The electronic state is 1-A.
 Alpha  occ. eigenvalues --  -19.11046 -19.10685 -14.36655 -14.36067 -10.28491
 Alpha  occ. eigenvalues --  -10.28477 -10.23349 -10.22122 -10.19851 -10.19022
 Alpha  occ. eigenvalues --   -1.03331  -1.02468  -0.92618  -0.91733  -0.78250
 Alpha  occ. eigenvalues --   -0.72924  -0.70953  -0.64999  -0.58668  -0.58414
 Alpha  occ. eigenvalues --   -0.53521  -0.48287  -0.47340  -0.46339  -0.44732
 Alpha  occ. eigenvalues --   -0.43877  -0.42744  -0.41906  -0.40537  -0.39702
 Alpha  occ. eigenvalues --   -0.39262  -0.38505  -0.36924  -0.35891  -0.35256
 Alpha  occ. eigenvalues --   -0.27392  -0.25649  -0.24555  -0.23243
 Alpha virt. eigenvalues --    0.01327   0.04177   0.05725   0.08598   0.11285
 Alpha virt. eigenvalues --    0.12735   0.13684   0.14162   0.15558   0.15664
 Alpha virt. eigenvalues --    0.16308   0.16931   0.18107   0.18272   0.19664

 Mulliken atomic charges:
              1
     1  H    0.188513
     2  C   -0.544767
     3  H    0.185995
     4  H    0.147370
     5  C    0.596547
     6  O   -0.484006
     7  N   -0.586352
     8  H    0.313311
     9  C   -0.045767
    10  H    0.208541
    11  C   -0.471360
    12  H    0.130017
    13  H    0.162680
    14  H    0.176181
    15  C    0.584920
    16  O   -0.497352
    17  N   -0.597123
    18  H    0.324247
    19  C   -0.310825
    20  H    0.206592
    21  H    0.159035
    22  H    0.153601
 Sum of Mulliken atomic charges =   0.00000

 Dipole moment (field-independent basis, Debye):
    X=             -2.7005    Y=              1.9747    Z=             -5.3902  Tot=              6.3440
 Quadrupole moment (field-independent basis, Debye-Ang):
   XX=            -56.4818   YY=            -58.4967   ZZ=            -62.7067
   XY=             -2.6701   XZ=             -2.9513   YZ=              3.9284

 Normal termination of Gaussian 09 at Fri Feb 10 23:15:11 2017.
