 Gaussian 09, Revision A.02,
 Gaussian 09:  EM64L-G09RevA.02 11-Jun-2009

 ----------------------------------------------------------------------
 # b3lyp/6-31G* Opt=(ModRedundant, maxcycles=1000, calcfc) geom=nocrowd
 ----------------------------------------------------------------------

 ------------------
 Phi Psi fixed scan
 ------------------
 Symbolic Z-matrix:
 Charge =  0 Multiplicity = 1

 SCF Done:  E(RB3LYP) =  -495.842106455     A.U. after   15 cycles

  Exact polarizability:   0.000   0.000   0.000   0.000   0.000   0.000
 Approx polarizability: 108.522  -0.515 101.327 -11.909   9.631 123.074

 SCF Done:  E(RB3LYP) =  -495.844715149     A.U. after   11 cycles
 SCF Done:  E(RB3LYP) =  -495.847685362     A.U. after   12 cycles
 SCF Done:  E(RB3LYP) =  -495.848973624     A.U. after   13 cycles
 SCF Done:  E(RB3LYP) =  -495.797882345     A.U. after   16 cycles
 SCF Done:  E(RB3LYP) =  -495.848980349     A.U. after   16 cycles
 SCF Done:  E(RB3LYP) =  -495.849583315     A.U. after   12 cycles
 SCF Done:  E(RB3LYP) =  -495.849567401     A.U. after   13 cycles
 SCF Done:  E(RB3LYP) =  -495.849903505     A.U. after   13 cycles
 SCF Done:  E(RB3LYP) =  -495.850009899     A.U. after   11 cycles
 SCF Done:  E(RB3LYP) =  -495.850026912     A.U. after   11 cycles
 SCF Done:  E(RB3LYP) =  -495.850027935     A.U. after   10 cycles
 SCF Done:  E(RB3LYP) =  -495.850028970     A.U. after    8 cycles
 SCF Done:  E(RB3LYP) =  -495.850030217     A.U. after    9 cycles
 SCF Done:  E(RB3LYP) =  -495.850032343     A.U. after   10 cycles
 SCF Done:  E(RB3LYP) =  -495.850032635     A.U. after    9 cycles
 SCF Done:  E(RB3LYP) =  -495.850032758     A.U. after    7 cycles
 SCF Done:  E(RB3LYP) =  -495.850032766     A.U. after    7 cycles
 Optimization completed.
    -- Stationary point found.

                         Standard orientation:
 ---------------------------------------------------------------------
 Center     Atomic      Atomic             Coordinates (Angstroms)
 Number     Number       Type             X           Y           Z
 ---------------------------------------------------------------------
      1          1           0       -4.049076   -1.091495    0.015320
      2          6           0       -3.176638   -0.856429    0.628464
      3          1           0       -2.848596   -1.780993    1.118670
      4          1           0       -3.454547   -0.135628    1.403794
      5          6           0       -2.063053   -0.349054   -0.273554
      6          8           0       -1.923916   -0.736249   -1.426369
      7          7           0       -1.237859    0.596716    0.300583
      8          1           0       -1.214903    0.606538    1.314861
      9          6           0        0.048600    0.899203   -0.308662
     10          1           0       -0.071017    0.707300   -1.378404
     11          6           0        0.434277    2.366277   -0.068372
     12          1           0        0.540179    2.565025    1.004146
     13          1           0        1.389222    2.602516   -0.549909
     14          1           0       -0.337598    3.028434   -0.471600
     15          6           0        1.124987   -0.031671    0.285927
     16          8           0        1.064654   -0.395125    1.456790
     17          7           0        2.156818   -0.335586   -0.549398
     18          1           0        2.062432   -0.097363   -1.526828
     19          6           0        3.264056   -1.188918   -0.150984
     20          1           0        3.203323   -1.319248    0.930142
     21          1           0        3.206341   -2.173845   -0.630408
     22          1           0        4.222254   -0.724605   -0.408361
 ---------------------------------------------------------------------

 The electronic state is 1-A.
 Alpha  occ. eigenvalues --  -19.11555 -19.10815 -14.36827 -14.35139 -10.28667
 Alpha  occ. eigenvalues --  -10.28357 -10.23255 -10.22150 -10.18974 -10.18680
 Alpha  occ. eigenvalues --   -1.03653  -1.02472  -0.92489  -0.91725  -0.77913
 Alpha  occ. eigenvalues --   -0.72695  -0.71157  -0.63941  -0.59048  -0.57437
 Alpha  occ. eigenvalues --   -0.53529  -0.47920  -0.47061  -0.46026  -0.45281
 Alpha  occ. eigenvalues --   -0.44121  -0.42523  -0.41594  -0.40561  -0.39432
 Alpha  occ. eigenvalues --   -0.39356  -0.37931  -0.37066  -0.35608  -0.34926
 Alpha  occ. eigenvalues --   -0.26427  -0.25889  -0.25271  -0.23858
 Alpha virt. eigenvalues --    0.02311   0.02910   0.07091   0.09195   0.12012
 Alpha virt. eigenvalues --    0.12577   0.14022   0.15281   0.15546   0.15856
 Alpha virt. eigenvalues --    0.16510   0.16971   0.17640   0.18820   0.19604

 Mulliken atomic charges:
              1
     1  H    0.184551
     2  C   -0.541856
     3  H    0.185120
     4  H    0.156103
     5  C    0.586832
     6  O   -0.505123
     7  N   -0.567967
     8  H    0.330980
     9  C   -0.072642
    10  H    0.172054
    11  C   -0.443922
    12  H    0.159803
    13  H    0.149179
    14  H    0.166744
    15  C    0.612509
    16  O   -0.531260
    17  N   -0.585964
    18  H    0.330958
    19  C   -0.311744
    20  H    0.204094
    21  H    0.163807
    22  H    0.157745
 Sum of Mulliken atomic charges =   0.00000

 Dipole moment (field-independent basis, Debye):
    X=              1.8102    Y=              1.2357    Z=             -0.1274  Tot=              2.1955
 Quadrupole moment (field-independent basis, Debye-Ang):
   XX=            -52.4917   YY=            -58.7558   ZZ=            -63.8764
   XY=             -1.7695   XZ=            -11.3474   YZ=             -1.0766

 Normal termination of Gaussian 09 at Fri Feb 10 23:12:03 2017.
