 Gaussian 09, Revision A.02,
 Gaussian 09:  EM64L-G09RevA.02 11-Jun-2009

 ----------------------------------------------------------------------
 # b3lyp/6-31G* Opt=(ModRedundant, maxcycles=1000, calcfc) geom=nocrowd
 ----------------------------------------------------------------------

 ------------------
 Phi Psi fixed scan
 ------------------
 Symbolic Z-matrix:
 Charge =  0 Multiplicity = 1

 SCF Done:  E(RB3LYP) =  -495.844610417     A.U. after   15 cycles

  Exact polarizability:   0.000   0.000   0.000   0.000   0.000   0.000
 Approx polarizability: 103.895  -3.888 112.623  -4.623  23.011 117.848

 SCF Done:  E(RB3LYP) =  -495.846959822     A.U. after   11 cycles
 SCF Done:  E(RB3LYP) =  -495.849551258     A.U. after   12 cycles
 SCF Done:  E(RB3LYP) =  -495.850356243     A.U. after   12 cycles
 SCF Done:  E(RB3LYP) =  -495.825052911     A.U. after   14 cycles
 SCF Done:  E(RB3LYP) =  -495.833792209     A.U. after   12 cycles
 SCF Done:  E(RB3LYP) =  -495.840073462     A.U. after   12 cycles
 SCF Done:  E(RB3LYP) =  -495.844577950     A.U. after   12 cycles
 SCF Done:  E(RB3LYP) =  -495.847804080     A.U. after   12 cycles
 SCF Done:  E(RB3LYP) =  -495.847892427     A.U. after   12 cycles
 SCF Done:  E(RB3LYP) =  -495.850970074     A.U. after   12 cycles
 SCF Done:  E(RB3LYP) =  -495.850987105     A.U. after   11 cycles
 SCF Done:  E(RB3LYP) =  -495.850997742     A.U. after   10 cycles
 SCF Done:  E(RB3LYP) =  -495.851005344     A.U. after   10 cycles
 SCF Done:  E(RB3LYP) =  -495.851022095     A.U. after   11 cycles
 SCF Done:  E(RB3LYP) =  -495.851023648     A.U. after   10 cycles
 SCF Done:  E(RB3LYP) =  -495.851024025     A.U. after    9 cycles
 SCF Done:  E(RB3LYP) =  -495.851024133     A.U. after    9 cycles
 SCF Done:  E(RB3LYP) =  -495.851024174     A.U. after    8 cycles
 SCF Done:  E(RB3LYP) =  -495.851024187     A.U. after    6 cycles
 Optimization completed.
    -- Stationary point found.

                         Standard orientation:
 ---------------------------------------------------------------------
 Center     Atomic      Atomic             Coordinates (Angstroms)
 Number     Number       Type             X           Y           Z
 ---------------------------------------------------------------------
      1          1           0       -4.028814   -0.898380    0.174508
      2          6           0       -3.124080   -0.797475    0.780623
      3          1           0       -2.944092   -1.764394    1.262423
      4          1           0       -3.292705   -0.041627    1.553645
      5          6           0       -1.955700   -0.479116   -0.138409
      6          8           0       -1.716842   -1.144673   -1.140681
      7          7           0       -1.206472    0.615286    0.215622
      8          1           0       -1.279883    0.964883    1.162762
      9          6           0        0.040153    0.918706   -0.480867
     10          1           0       -0.083601    0.531153   -1.494272
     11          6           0        0.290282    2.428733   -0.509873
     12          1           0        0.434030    2.808619    0.506845
     13          1           0        1.195717    2.655737   -1.083019
     14          1           0       -0.556379    2.945480   -0.971935
     15          6           0        1.199231    0.207992    0.243112
     16          8           0        1.467813    0.477474    1.410105
     17          7           0        1.896559   -0.685247   -0.513084
     18          1           0        1.476305   -0.982143   -1.383561
     19          6           0        2.967691   -1.496500    0.042509
     20          1           0        3.344432   -0.986843    0.930245
     21          1           0        2.615436   -2.494252    0.334359
     22          1           0        3.775720   -1.604957   -0.687722
 ---------------------------------------------------------------------

 The electronic state is 1-A.
 Alpha  occ. eigenvalues --  -19.11161 -19.11006 -14.36448 -14.35999 -10.28811
 Alpha  occ. eigenvalues --  -10.28312 -10.23258 -10.21837 -10.19198 -10.18538
 Alpha  occ. eigenvalues --   -1.03432  -1.02606  -0.92264  -0.91994  -0.77936
 Alpha  occ. eigenvalues --   -0.72886  -0.71133  -0.63830  -0.58930  -0.57956
 Alpha  occ. eigenvalues --   -0.53383  -0.48101  -0.47684  -0.46346  -0.44743
 Alpha  occ. eigenvalues --   -0.44286  -0.42153  -0.41487  -0.40447  -0.39722
 Alpha  occ. eigenvalues --   -0.39156  -0.37845  -0.36524  -0.35701  -0.35382
 Alpha  occ. eigenvalues --   -0.26922  -0.25676  -0.25166  -0.23714
 Alpha virt. eigenvalues --    0.01908   0.03230   0.08104   0.08362   0.12212
 Alpha virt. eigenvalues --    0.12388   0.13317   0.15268   0.15926   0.16336
 Alpha virt. eigenvalues --    0.16692   0.17309   0.18072   0.18680   0.20164

 Mulliken atomic charges:
              1
     1  H    0.187132
     2  C   -0.534922
     3  H    0.184907
     4  H    0.148891
     5  C    0.593227
     6  O   -0.517742
     7  N   -0.577304
     8  H    0.332085
     9  C   -0.054068
    10  H    0.166038
    11  C   -0.456003
    12  H    0.168187
    13  H    0.156376
    14  H    0.158598
    15  C    0.613866
    16  O   -0.535710
    17  N   -0.584234
    18  H    0.340607
    19  C   -0.310942
    20  H    0.200135
    21  H    0.163667
    22  H    0.157209
 Sum of Mulliken atomic charges =   0.00000

 Dipole moment (field-independent basis, Debye):
    X=              0.1351    Y=              0.2767    Z=             -0.2700  Tot=              0.4096
 Quadrupole moment (field-independent basis, Debye-Ang):
   XX=            -55.1051   YY=            -58.4292   ZZ=            -62.9523
   XY=             -6.1035   XZ=            -10.1724   YZ=             -2.9517

 Normal termination of Gaussian 09 at Fri Feb 10 23:21:38 2017.
