 Gaussian 09, Revision A.02,
 Gaussian 09:  EM64L-G09RevA.02 11-Jun-2009

 ----------------------------------------------------------------------
 # b3lyp/6-31G* Opt=(ModRedundant, maxcycles=1000, calcfc) geom=nocrowd
 ----------------------------------------------------------------------

 ------------------
 Phi Psi fixed scan
 ------------------
 Symbolic Z-matrix:
 Charge =  0 Multiplicity = 1

 SCF Done:  E(RB3LYP) =  -495.843434062     A.U. after   14 cycles

  Exact polarizability:   0.000   0.000   0.000   0.000   0.000   0.000
 Approx polarizability: 105.769  -3.867 105.715  -8.938  17.529 121.984

 SCF Done:  E(RB3LYP) =  -495.845862656     A.U. after   11 cycles
 SCF Done:  E(RB3LYP) =  -495.848578678     A.U. after   12 cycles
 SCF Done:  E(RB3LYP) =  -495.849603278     A.U. after   13 cycles
 SCF Done:  E(RB3LYP) =  -495.806400960     A.U. after   14 cycles
 SCF Done:  E(RB3LYP) =  -495.849606182     A.U. after   15 cycles
 SCF Done:  E(RB3LYP) =  -495.850077732     A.U. after   12 cycles
 SCF Done:  E(RB3LYP) =  -495.849659970     A.U. after   13 cycles
 SCF Done:  E(RB3LYP) =  -495.850376956     A.U. after   13 cycles
 SCF Done:  E(RB3LYP) =  -495.850429737     A.U. after   12 cycles
 SCF Done:  E(RB3LYP) =  -495.850453245     A.U. after   12 cycles
 SCF Done:  E(RB3LYP) =  -495.850461450     A.U. after    9 cycles
 SCF Done:  E(RB3LYP) =  -495.850466170     A.U. after    9 cycles
 SCF Done:  E(RB3LYP) =  -495.850477103     A.U. after   11 cycles
 SCF Done:  E(RB3LYP) =  -495.850479170     A.U. after    9 cycles
 SCF Done:  E(RB3LYP) =  -495.850480694     A.U. after   10 cycles
 SCF Done:  E(RB3LYP) =  -495.850482421     A.U. after   10 cycles
 SCF Done:  E(RB3LYP) =  -495.850484315     A.U. after   10 cycles
 SCF Done:  E(RB3LYP) =  -495.850484448     A.U. after    7 cycles
 Optimization completed.
    -- Stationary point found.

                         Standard orientation:
 ---------------------------------------------------------------------
 Center     Atomic      Atomic             Coordinates (Angstroms)
 Number     Number       Type             X           Y           Z
 ---------------------------------------------------------------------
      1          1           0       -4.043717   -1.014802    0.133875
      2          6           0       -3.148332   -0.821364    0.729658
      3          1           0       -2.884749   -1.752978    1.243476
      4          1           0       -3.369358   -0.057776    1.481661
      5          6           0       -2.013588   -0.432896   -0.204901
      6          8           0       -1.828002   -0.997500   -1.276087
      7          7           0       -1.229953    0.612252    0.229905
      8          1           0       -1.247685    0.820497    1.221745
      9          6           0        0.042544    0.898064   -0.421176
     10          1           0       -0.072103    0.572718   -1.458071
     11          6           0        0.358586    2.397437   -0.361337
     12          1           0        0.469882    2.722287    0.678796
     13          1           0        1.296366    2.615156   -0.884049
     14          1           0       -0.446675    2.972268   -0.828488
     15          6           0        1.158378    0.103341    0.283126
     16          8           0        1.248086    0.108763    1.507654
     17          7           0        2.039090   -0.528729   -0.540369
     18          1           0        1.800430   -0.602871   -1.519415
     19          6           0        3.138299   -1.335163   -0.035722
     20          1           0        3.279817   -1.078030    1.014754
     21          1           0        2.920984   -2.408079   -0.110048
     22          1           0        4.056866   -1.119663   -0.591401
 ---------------------------------------------------------------------

 The electronic state is 1-A.
 Alpha  occ. eigenvalues --  -19.11342 -19.10843 -14.36739 -14.35509 -10.28532
 Alpha  occ. eigenvalues --  -10.28515 -10.23264 -10.22048 -10.18898 -10.18756
 Alpha  occ. eigenvalues --   -1.03513  -1.02521  -0.92363  -0.91889  -0.77909
 Alpha  occ. eigenvalues --   -0.72759  -0.71203  -0.63876  -0.58989  -0.57727
 Alpha  occ. eigenvalues --   -0.53491  -0.48000  -0.47306  -0.46216  -0.45029
 Alpha  occ. eigenvalues --   -0.44205  -0.42326  -0.41520  -0.40553  -0.39495
 Alpha  occ. eigenvalues --   -0.39338  -0.37879  -0.36782  -0.35649  -0.35103
 Alpha  occ. eigenvalues --   -0.26650  -0.25815  -0.25151  -0.23787
 Alpha virt. eigenvalues --    0.02142   0.03065   0.07500   0.08850   0.12154
 Alpha virt. eigenvalues --    0.12413   0.13680   0.15293   0.15716   0.16047
 Alpha virt. eigenvalues --    0.16535   0.17139   0.17854   0.18884   0.19916

 Mulliken atomic charges:
              1
     1  H    0.185742
     2  C   -0.538069
     3  H    0.184613
     4  H    0.152210
     5  C    0.590223
     6  O   -0.510735
     7  N   -0.572588
     8  H    0.331800
     9  C   -0.062258
    10  H    0.166425
    11  C   -0.449616
    12  H    0.164327
    13  H    0.152828
    14  H    0.163305
    15  C    0.614435
    16  O   -0.535334
    17  N   -0.585579
    18  H    0.335126
    19  C   -0.311559
    20  H    0.202656
    21  H    0.164478
    22  H    0.157569
 Sum of Mulliken atomic charges =   0.00000

 Dipole moment (field-independent basis, Debye):
    X=              1.1047    Y=              0.7072    Z=             -0.3768  Tot=              1.3647
 Quadrupole moment (field-independent basis, Debye-Ang):
   XX=            -53.5863   YY=            -58.5286   ZZ=            -63.5703
   XY=             -4.3495   XZ=            -10.9898   YZ=             -2.2251

 Normal termination of Gaussian 09 at Fri Feb 10 23:13:26 2017.
