 Gaussian 09, Revision A.02,
 Gaussian 09:  EM64L-G09RevA.02 11-Jun-2009

 ----------------------------------------------------------------------
 # b3lyp/6-31G* Opt=(ModRedundant, maxcycles=1000, calcfc) geom=nocrowd
 ----------------------------------------------------------------------

 ------------------
 Phi Psi fixed scan
 ------------------
 Symbolic Z-matrix:
 Charge =  0 Multiplicity = 1

 SCF Done:  E(RB3LYP) =  -495.827172650     A.U. after   15 cycles

  Exact polarizability:   0.000   0.000   0.000   0.000   0.000   0.000
 Approx polarizability: 120.078 -15.659 113.599   4.198 -10.476 102.681

 SCF Done:  E(RB3LYP) =  -495.832635060     A.U. after   12 cycles
 SCF Done:  E(RB3LYP) =  -495.839102625     A.U. after   13 cycles
 SCF Done:  E(RB3LYP) =  -495.841441514     A.U. after   15 cycles
 SCF Done:  E(RB3LYP) =  -495.842587489     A.U. after   13 cycles
 SCF Done:  E(RB3LYP) =  -495.841595126     A.U. after   15 cycles
 SCF Done:  E(RB3LYP) =  -495.842862123     A.U. after   14 cycles
 SCF Done:  E(RB3LYP) =  -495.842876427     A.U. after   13 cycles
 SCF Done:  E(RB3LYP) =  -495.842775009     A.U. after   13 cycles
 SCF Done:  E(RB3LYP) =  -495.843034359     A.U. after   12 cycles
 SCF Done:  E(RB3LYP) =  -495.843171573     A.U. after   12 cycles
 SCF Done:  E(RB3LYP) =  -495.843193692     A.U. after   12 cycles
 SCF Done:  E(RB3LYP) =  -495.843207616     A.U. after   10 cycles
 SCF Done:  E(RB3LYP) =  -495.843211540     A.U. after    9 cycles
 SCF Done:  E(RB3LYP) =  -495.843214807     A.U. after   10 cycles
 SCF Done:  E(RB3LYP) =  -495.843215077     A.U. after    8 cycles
 SCF Done:  E(RB3LYP) =  -495.843215133     A.U. after    6 cycles
 SCF Done:  E(RB3LYP) =  -495.843215152     A.U. after    6 cycles
 SCF Done:  E(RB3LYP) =  -495.843215165     A.U. after    6 cycles
 Optimization completed.
    -- Stationary point found.

                         Standard orientation:
 ---------------------------------------------------------------------
 Center     Atomic      Atomic             Coordinates (Angstroms)
 Number     Number       Type             X           Y           Z
 ---------------------------------------------------------------------
      1          1           0        4.072456   -0.988727   -0.348896
      2          6           0        3.093456   -0.895489   -0.821868
      3          1           0        2.688743   -1.902115   -0.982454
      4          1           0        3.200788   -0.409122   -1.797626
      5          6           0        2.163164   -0.135885    0.108433
      6          8           0        2.335014   -0.081098    1.315469
      7          7           0        1.119933    0.519214   -0.526858
      8          1           0        0.948159    0.231093   -1.483316
      9          6           0       -0.069236    0.881858    0.235126
     10          1           0        0.270539    0.915792    1.276225
     11          6           0       -0.582142    2.267499   -0.174100
     12          1           0       -0.945558    2.283110   -1.209167
     13          1           0       -1.389892    2.610373    0.484136
     14          1           0        0.233157    2.991594   -0.094714
     15          6           0       -1.083363   -0.289503    0.159789
     16          8           0       -0.700625   -1.447437    0.273588
     17          7           0       -2.385714    0.039654   -0.088924
     18          1           0       -2.645677    1.013003   -0.129857
     19          6           0       -3.443588   -0.956304   -0.125274
     20          1           0       -2.967804   -1.937411   -0.144486
     21          1           0       -4.090528   -0.892761    0.758712
     22          1           0       -4.058768   -0.831678   -1.023177
 ---------------------------------------------------------------------

 The electronic state is 1-A.
 Alpha  occ. eigenvalues --  -19.11055 -19.10479 -14.36761 -14.35245 -10.28604
 Alpha  occ. eigenvalues --  -10.28049 -10.23318 -10.22140 -10.19671 -10.18444
 Alpha  occ. eigenvalues --   -1.03400  -1.02174  -0.92329  -0.91640  -0.78004
 Alpha  occ. eigenvalues --   -0.72621  -0.70835  -0.64792  -0.58727  -0.57737
 Alpha  occ. eigenvalues --   -0.53553  -0.47461  -0.47212  -0.46224  -0.45002
 Alpha  occ. eigenvalues --   -0.43763  -0.42698  -0.41835  -0.39899  -0.39310
 Alpha  occ. eigenvalues --   -0.39060  -0.38723  -0.37608  -0.35468  -0.34489
 Alpha  occ. eigenvalues --   -0.26482  -0.25454  -0.24602  -0.23744
 Alpha virt. eigenvalues --    0.01716   0.04046   0.06971   0.08925   0.11423
 Alpha virt. eigenvalues --    0.13162   0.13817   0.14405   0.15361   0.15723
 Alpha virt. eigenvalues --    0.16284   0.16528   0.18190   0.18640   0.19873

 Mulliken atomic charges:
              1
     1  H    0.184777
     2  C   -0.549928
     3  H    0.190560
     4  H    0.151918
     5  C    0.602308
     6  O   -0.492725
     7  N   -0.570524
     8  H    0.316702
     9  C   -0.055862
    10  H    0.209956
    11  C   -0.479827
    12  H    0.146810
    13  H    0.146140
    14  H    0.178528
    15  C    0.586095
    16  O   -0.509143
    17  N   -0.596742
    18  H    0.329969
    19  C   -0.311629
    20  H    0.206500
    21  H    0.160738
    22  H    0.155379
 Sum of Mulliken atomic charges =   0.00000

 Dipole moment (field-independent basis, Debye):
    X=             -3.3693    Y=              2.4010    Z=             -3.3899  Tot=              5.3487
 Quadrupole moment (field-independent basis, Debye-Ang):
   XX=            -52.5956   YY=            -60.7793   ZZ=            -61.2733
   XY=             -3.4983   XZ=             -6.6964   YZ=              2.1255

 Normal termination of Gaussian 09 at Fri Feb 10 23:11:05 2017.
