 Gaussian 09, Revision A.02,
 Gaussian 09:  EM64L-G09RevA.02 11-Jun-2009

 ----------------------------------------------------------------------
 # b3lyp/6-31G* Opt=(ModRedundant, maxcycles=1000, calcfc) geom=nocrowd
 ----------------------------------------------------------------------

 ------------------
 Phi Psi fixed scan
 ------------------
 Symbolic Z-matrix:
 Charge =  0 Multiplicity = 1

 SCF Done:  E(RB3LYP) =  -495.842575599     A.U. after   15 cycles

  Exact polarizability:   0.000   0.000   0.000   0.000   0.000   0.000
 Approx polarizability: 116.260 -15.459 114.214   1.040  -6.458 105.003

 SCF Done:  E(RB3LYP) =  -495.845928638     A.U. after   12 cycles
 SCF Done:  E(RB3LYP) =  -495.849703400     A.U. after   12 cycles
 SCF Done:  E(RB3LYP) =  -495.850592219     A.U. after   13 cycles
 SCF Done:  E(RB3LYP) =  -495.819580837     A.U. after   14 cycles
 SCF Done:  E(RB3LYP) =  -495.850593226     A.U. after   14 cycles
 SCF Done:  E(RB3LYP) =  -495.850703004     A.U. after   12 cycles
 SCF Done:  E(RB3LYP) =  -495.838469953     A.U. after   14 cycles
 SCF Done:  E(RB3LYP) =  -495.850809841     A.U. after   13 cycles
 SCF Done:  E(RB3LYP) =  -495.850849915     A.U. after   10 cycles
 SCF Done:  E(RB3LYP) =  -495.850867886     A.U. after   10 cycles
 SCF Done:  E(RB3LYP) =  -495.850878672     A.U. after   10 cycles
 SCF Done:  E(RB3LYP) =  -495.850908357     A.U. after   10 cycles
 SCF Done:  E(RB3LYP) =  -495.850940633     A.U. after   11 cycles
 SCF Done:  E(RB3LYP) =  -495.850951571     A.U. after   10 cycles
 SCF Done:  E(RB3LYP) =  -495.850953511     A.U. after    9 cycles
 SCF Done:  E(RB3LYP) =  -495.850955348     A.U. after   10 cycles
 SCF Done:  E(RB3LYP) =  -495.850956168     A.U. after   10 cycles
 SCF Done:  E(RB3LYP) =  -495.850956205     A.U. after    6 cycles
 Optimization completed.
    -- Stationary point found.

                         Standard orientation:
 ---------------------------------------------------------------------
 Center     Atomic      Atomic             Coordinates (Angstroms)
 Number     Number       Type             X           Y           Z
 ---------------------------------------------------------------------
      1          1           0        3.444370   -1.595121   -0.704553
      2          6           0        3.246016   -0.528701   -0.569235
      3          1           0        3.290395   -0.026212   -1.540469
      4          1           0        4.040341   -0.126286    0.068998
      5          6           0        1.914802   -0.361030    0.144641
      6          8           0        1.618876   -1.024362    1.138600
      7          7           0        1.056909    0.553013   -0.389354
      8          1           0        1.342255    1.057570   -1.217503
      9          6           0       -0.130007    1.054497    0.309379
     10          1           0        0.082777    0.951359    1.381658
     11          6           0       -0.363058    2.525184   -0.031768
     12          1           0       -0.505052    2.660387   -1.111066
     13          1           0       -1.272112    2.874257    0.459787
     14          1           0        0.485629    3.135534    0.293217
     15          6           0       -1.412946    0.221612    0.053660
     16          8           0       -2.520327    0.747857    0.063721
     17          7           0       -1.205960   -1.102456   -0.193344
     18          1           0       -0.315087   -1.481506    0.111107
     19          6           0       -2.331719   -2.018435   -0.291013
     20          1           0       -3.147192   -1.511398   -0.808977
     21          1           0       -2.031981   -2.902768   -0.860492
     22          1           0       -2.697900   -2.336439    0.694618
 ---------------------------------------------------------------------

 The electronic state is 1-A.
 Alpha  occ. eigenvalues --  -19.12088 -19.10673 -14.37235 -14.34923 -10.29887
 Alpha  occ. eigenvalues --  -10.27757 -10.23824 -10.21009 -10.20283 -10.18669
 Alpha  occ. eigenvalues --   -1.04149  -1.02416  -0.93361  -0.90804  -0.78387
 Alpha  occ. eigenvalues --   -0.73562  -0.70592  -0.64097  -0.59939  -0.56959
 Alpha  occ. eigenvalues --   -0.52981  -0.49645  -0.48486  -0.45919  -0.45109
 Alpha  occ. eigenvalues --   -0.43488  -0.42180  -0.41880  -0.40686  -0.39213
 Alpha  occ. eigenvalues --   -0.38592  -0.38513  -0.37341  -0.36298  -0.34741
 Alpha  occ. eigenvalues --   -0.28102  -0.26209  -0.24988  -0.23133
 Alpha virt. eigenvalues --    0.01318   0.03126   0.06671   0.10707   0.11349
 Alpha virt. eigenvalues --    0.12581   0.14390   0.14588   0.15340   0.15679
 Alpha virt. eigenvalues --    0.17003   0.17332   0.18047   0.18495   0.19852

 Mulliken atomic charges:
              1
     1  H    0.188466
     2  C   -0.534717
     3  H    0.148853
     4  H    0.189821
     5  C    0.587541
     6  O   -0.525033
     7  N   -0.584665
     8  H    0.327585
     9  C   -0.054366
    10  H    0.193284
    11  C   -0.467996
    12  H    0.149211
    13  H    0.194350
    14  H    0.147087
    15  C    0.605046
    16  O   -0.523155
    17  N   -0.592675
    18  H    0.353766
    19  C   -0.303709
    20  H    0.189482
    21  H    0.151152
    22  H    0.160671
 Sum of Mulliken atomic charges =   0.00000

 Dipole moment (field-independent basis, Debye):
    X=              3.0717    Y=              0.2601    Z=             -2.3280  Tot=              3.8630
 Quadrupole moment (field-independent basis, Debye-Ang):
   XX=            -62.7668   YY=            -56.4073   ZZ=            -60.7477
   XY=              7.7714   XZ=             -4.6795   YZ=              1.8836

 Normal termination of Gaussian 09 at Fri Feb 10 23:18:42 2017.
