 Gaussian 09, Revision A.02,
 Gaussian 09:  EM64L-G09RevA.02 11-Jun-2009

 ----------------------------------------------------------------------
 # b3lyp/6-31G* Opt=(ModRedundant, maxcycles=1000, calcfc) geom=nocrowd
 ----------------------------------------------------------------------

 ------------------
 Phi Psi fixed scan
 ------------------
 Symbolic Z-matrix:
 Charge =  0 Multiplicity = 1

 SCF Done:  E(RB3LYP) =  -495.840411930     A.U. after   16 cycles

  Exact polarizability:   0.000   0.000   0.000   0.000   0.000   0.000
 Approx polarizability: 108.632  -8.057 105.333  -6.124   8.507 121.787

 SCF Done:  E(RB3LYP) =  -495.843775507     A.U. after   12 cycles
 SCF Done:  E(RB3LYP) =  -495.847464372     A.U. after   12 cycles
 SCF Done:  E(RB3LYP) =  -495.848200285     A.U. after   13 cycles
 SCF Done:  E(RB3LYP) =  -495.801411075     A.U. after   14 cycles
 SCF Done:  E(RB3LYP) =  -495.816297203     A.U. after   13 cycles
 SCF Done:  E(RB3LYP) =  -495.827448988     A.U. after   13 cycles
 SCF Done:  E(RB3LYP) =  -495.835512064     A.U. after   13 cycles
 SCF Done:  E(RB3LYP) =  -495.841197955     A.U. after   13 cycles
 SCF Done:  E(RB3LYP) =  -495.844862792     A.U. after   12 cycles
 SCF Done:  E(RB3LYP) =  -495.848363558     A.U. after   12 cycles
 SCF Done:  E(RB3LYP) =  -495.847680283     A.U. after   13 cycles
 SCF Done:  E(RB3LYP) =  -495.848516178     A.U. after   13 cycles
 SCF Done:  E(RB3LYP) =  -495.848557251     A.U. after   11 cycles
 SCF Done:  E(RB3LYP) =  -495.848587471     A.U. after   11 cycles
 SCF Done:  E(RB3LYP) =  -495.848600443     A.U. after   10 cycles
 SCF Done:  E(RB3LYP) =  -495.848604080     A.U. after   10 cycles
 SCF Done:  E(RB3LYP) =  -495.848604357     A.U. after    7 cycles
 SCF Done:  E(RB3LYP) =  -495.848604374     A.U. after    7 cycles
 SCF Done:  E(RB3LYP) =  -495.848604415     A.U. after    6 cycles
 Optimization completed.
    -- Stationary point found.

                         Standard orientation:
 ---------------------------------------------------------------------
 Center     Atomic      Atomic             Coordinates (Angstroms)
 Number     Number       Type             X           Y           Z
 ---------------------------------------------------------------------
      1          1           0        3.425276   -1.802215   -0.280553
      2          6           0        3.213712   -0.755113   -0.511918
      3          1           0        3.135350   -0.634573   -1.597343
      4          1           0        4.063840   -0.163402   -0.154771
      5          6           0        1.963466   -0.328401    0.244284
      6          8           0        1.782957   -0.604182    1.420534
      7          7           0        1.045261    0.390923   -0.489852
      8          1           0        1.319994    0.714890   -1.407900
      9          6           0       -0.089535    1.059324    0.147436
     10          1           0        0.196798    1.271421    1.182112
     11          6           0       -0.424064    2.368932   -0.574574
     12          1           0       -0.682634    2.186591   -1.625542
     13          1           0       -1.285541    2.834581   -0.090948
     14          1           0        0.422677    3.062590   -0.536080
     15          6           0       -1.363240    0.194519    0.261852
     16          8           0       -2.297174    0.583293    0.953529
     17          7           0       -1.391703   -0.931157   -0.501650
     18          1           0       -0.521154   -1.211607   -0.930967
     19          6           0       -2.495861   -1.872049   -0.451727
     20          1           0       -3.329517   -1.373229    0.044845
     21          1           0       -2.797912   -2.165391   -1.463156
     22          1           0       -2.235226   -2.774185    0.116192
 ---------------------------------------------------------------------

 The electronic state is 1-A.
 Alpha  occ. eigenvalues --  -19.11756 -19.10274 -14.37131 -14.35667 -10.29595
 Alpha  occ. eigenvalues --  -10.27765 -10.23485 -10.21409 -10.20144 -10.19285
 Alpha  occ. eigenvalues --   -1.03908  -1.02276  -0.93369  -0.91128  -0.78357
 Alpha  occ. eigenvalues --   -0.73550  -0.70891  -0.64422  -0.59615  -0.57604
 Alpha  occ. eigenvalues --   -0.53038  -0.49730  -0.48214  -0.45667  -0.45085
 Alpha  occ. eigenvalues --   -0.43875  -0.42475  -0.41787  -0.40672  -0.39824
 Alpha  occ. eigenvalues --   -0.38937  -0.38492  -0.37717  -0.36042  -0.34289
 Alpha  occ. eigenvalues --   -0.27993  -0.25611  -0.24805  -0.23501
 Alpha virt. eigenvalues --    0.01856   0.03356   0.06013   0.10123   0.11280
 Alpha virt. eigenvalues --    0.12237   0.13611   0.14614   0.14891   0.15921
 Alpha virt. eigenvalues --    0.16625   0.17445   0.17589   0.18175   0.19563

 Mulliken atomic charges:
              1
     1  H    0.190092
     2  C   -0.540320
     3  H    0.144354
     4  H    0.189351
     5  C    0.580289
     6  O   -0.487784
     7  N   -0.629461
     8  H    0.325280
     9  C   -0.018873
    10  H    0.197239
    11  C   -0.478168
    12  H    0.144880
    13  H    0.195422
    14  H    0.154634
    15  C    0.609742
    16  O   -0.526988
    17  N   -0.586256
    18  H    0.330864
    19  C   -0.309919
    20  H    0.202084
    21  H    0.151687
    22  H    0.161852
 Sum of Mulliken atomic charges =   0.00000

 Dipole moment (field-independent basis, Debye):
    X=              2.4167    Y=             -0.3312    Z=             -5.1059  Tot=              5.6587
 Quadrupole moment (field-independent basis, Debye-Ang):
   XX=            -61.4112   YY=            -55.0447   ZZ=            -63.6176
   XY=              5.5223   XZ=             -1.5738   YZ=              1.2268

 Normal termination of Gaussian 09 at Fri Feb 10 23:29:39 2017.
