 Gaussian 09, Revision A.02,
 Gaussian 09:  EM64L-G09RevA.02 11-Jun-2009

 ----------------------------------------------------------------------
 # b3lyp/6-31G* Opt=(ModRedundant, maxcycles=1000, calcfc) geom=nocrowd
 ----------------------------------------------------------------------

 ------------------
 Phi Psi fixed scan
 ------------------
 Symbolic Z-matrix:
 Charge =  0 Multiplicity = 1

 SCF Done:  E(RB3LYP) =  -495.826237659     A.U. after   15 cycles

  Exact polarizability:   0.000   0.000   0.000   0.000   0.000   0.000
 Approx polarizability: 118.358  15.209 114.252   8.324  15.483 104.242

 SCF Done:  E(RB3LYP) =  -495.831710076     A.U. after   12 cycles
 SCF Done:  E(RB3LYP) =  -495.838144642     A.U. after   12 cycles
 SCF Done:  E(RB3LYP) =  -495.840347195     A.U. after   15 cycles
 SCF Done:  E(RB3LYP) =  -495.841237561     A.U. after   13 cycles
 SCF Done:  E(RB3LYP) =  -495.835267045     A.U. after   15 cycles
 SCF Done:  E(RB3LYP) =  -495.841260454     A.U. after   15 cycles
 SCF Done:  E(RB3LYP) =  -495.841634956     A.U. after   12 cycles
 SCF Done:  E(RB3LYP) =  -495.840974364     A.U. after   13 cycles
 SCF Done:  E(RB3LYP) =  -495.841782403     A.U. after   12 cycles
 SCF Done:  E(RB3LYP) =  -495.841822355     A.U. after   11 cycles
 SCF Done:  E(RB3LYP) =  -495.841825065     A.U. after    9 cycles
 SCF Done:  E(RB3LYP) =  -495.841825274     A.U. after    8 cycles
 SCF Done:  E(RB3LYP) =  -495.841825606     A.U. after    7 cycles
 SCF Done:  E(RB3LYP) =  -495.841826131     A.U. after    8 cycles
 SCF Done:  E(RB3LYP) =  -495.841826704     A.U. after    9 cycles
 SCF Done:  E(RB3LYP) =  -495.841826899     A.U. after    7 cycles
 SCF Done:  E(RB3LYP) =  -495.841826919     A.U. after    6 cycles
 Optimization completed.
    -- Stationary point found.

                         Standard orientation:
 ---------------------------------------------------------------------
 Center     Atomic      Atomic             Coordinates (Angstroms)
 Number     Number       Type             X           Y           Z
 ---------------------------------------------------------------------
      1          1           0       -4.048052   -0.976733    0.527510
      2          6           0       -3.039109   -0.903561    0.937068
      3          1           0       -2.645714   -1.919249    1.065721
      4          1           0       -3.075954   -0.422439    1.920604
      5          6           0       -2.158200   -0.154579   -0.049636
      6          8           0       -2.392780   -0.115460   -1.246092
      7          7           0       -1.085864    0.509483    0.523829
      8          1           0       -0.878670    0.265274    1.485370
      9          6           0        0.064340    0.889763   -0.291804
     10          1           0       -0.320200    0.915863   -1.316054
     11          6           0        0.573200    2.281833    0.096218
     12          1           0        0.916766    2.321313    1.138247
     13          1           0        1.394900    2.603408   -0.554810
     14          1           0       -0.238542    3.006945   -0.008439
     15          6           0        1.094146   -0.269027   -0.270623
     16          8           0        0.765181   -1.394486   -0.621745
     17          7           0        2.334954    0.021240    0.225600
     18          1           0        2.564129    0.979972    0.438565
     19          6           0        3.401028   -0.965502    0.271339
     20          1           0        2.955383   -1.936795    0.053512
     21          1           0        4.178720   -0.756223   -0.473914
     22          1           0        3.861966   -0.990396    1.265017
 ---------------------------------------------------------------------

 The electronic state is 1-A.
 Alpha  occ. eigenvalues --  -19.10925 -19.10499 -14.36751 -14.35521 -10.28532
 Alpha  occ. eigenvalues --  -10.28160 -10.23326 -10.22135 -10.19721 -10.18617
 Alpha  occ. eigenvalues --   -1.03314  -1.02218  -0.92332  -0.91734  -0.78077
 Alpha  occ. eigenvalues --   -0.72711  -0.70861  -0.64892  -0.58708  -0.57959
 Alpha  occ. eigenvalues --   -0.53528  -0.47773  -0.47220  -0.46257  -0.44911
 Alpha  occ. eigenvalues --   -0.43784  -0.42648  -0.41860  -0.40019  -0.39445
 Alpha  occ. eigenvalues --   -0.38980  -0.38791  -0.37463  -0.35538  -0.34654
 Alpha  occ. eigenvalues --   -0.26783  -0.25492  -0.24478  -0.23511
 Alpha virt. eigenvalues --    0.01423   0.04275   0.06894   0.08783   0.11331
 Alpha virt. eigenvalues --    0.13196   0.13666   0.14685   0.14954   0.15716
 Alpha virt. eigenvalues --    0.16203   0.16495   0.18227   0.18486   0.19704

 Mulliken atomic charges:
              1
     1  H    0.186103
     2  C   -0.548605
     3  H    0.188713
     4  H    0.150487
     5  C    0.602830
     6  O   -0.489362
     7  N   -0.576528
     8  H    0.315360
     9  C   -0.046758
    10  H    0.208914
    11  C   -0.482042
    12  H    0.140933
    13  H    0.151973
    14  H    0.178386
    15  C    0.580789
    16  O   -0.504635
    17  N   -0.596554
    18  H    0.330016
    19  C   -0.312183
    20  H    0.207004
    21  H    0.160127
    22  H    0.155031
 Sum of Mulliken atomic charges =   0.00000

 Dipole moment (field-independent basis, Debye):
    X=              3.3140    Y=              2.4275    Z=              4.0661  Tot=              5.7800
 Quadrupole moment (field-independent basis, Debye-Ang):
   XX=            -53.7365   YY=            -60.4257   ZZ=            -61.2777
   XY=              3.3154   XZ=             -5.5850   YZ=             -2.9909

 Normal termination of Gaussian 09 at Fri Feb 10 23:18:32 2017.
