 Gaussian 09, Revision A.02,
 Gaussian 09:  EM64L-G09RevA.02 11-Jun-2009

 ----------------------------------------------------------------------
 # b3lyp/6-31G* Opt=(ModRedundant, maxcycles=1000, calcfc) geom=nocrowd
 ----------------------------------------------------------------------

 ------------------
 Phi Psi fixed scan
 ------------------
 Symbolic Z-matrix:
 Charge =  0 Multiplicity = 1

 SCF Done:  E(RB3LYP) =  -495.829616513     A.U. after   15 cycles

  Exact polarizability:   0.000   0.000   0.000   0.000   0.000   0.000
 Approx polarizability: 119.815 -14.596 111.945  -0.926  -5.932 103.652

 SCF Done:  E(RB3LYP) =  -495.834131535     A.U. after   12 cycles
 SCF Done:  E(RB3LYP) =  -495.839946956     A.U. after   12 cycles
 SCF Done:  E(RB3LYP) =  -495.841619966     A.U. after   12 cycles
 SCF Done:  E(RB3LYP) =  -495.842728257     A.U. after   12 cycles
 SCF Done:  E(RB3LYP) =  -495.843106648     A.U. after   14 cycles
 SCF Done:  E(RB3LYP) =  -495.811862439     A.U. after   14 cycles
 SCF Done:  E(RB3LYP) =  -495.843406661     A.U. after   15 cycles
 SCF Done:  E(RB3LYP) =  -495.843998264     A.U. after   12 cycles
 SCF Done:  E(RB3LYP) =  -495.812480255     A.U. after   15 cycles
 SCF Done:  E(RB3LYP) =  -495.844675292     A.U. after   12 cycles
 SCF Done:  E(RB3LYP) =  -495.844690594     A.U. after   11 cycles
 SCF Done:  E(RB3LYP) =  -495.844699238     A.U. after   10 cycles
 SCF Done:  E(RB3LYP) =  -495.844708851     A.U. after   10 cycles
 SCF Done:  E(RB3LYP) =  -495.844712630     A.U. after   10 cycles
 SCF Done:  E(RB3LYP) =  -495.844714304     A.U. after    9 cycles
 SCF Done:  E(RB3LYP) =  -495.844715417     A.U. after    9 cycles
 SCF Done:  E(RB3LYP) =  -495.844717058     A.U. after    9 cycles
 SCF Done:  E(RB3LYP) =  -495.844718820     A.U. after   10 cycles
 SCF Done:  E(RB3LYP) =  -495.844718896     A.U. after    7 cycles
 Optimization completed.
    -- Stationary point found.

                         Standard orientation:
 ---------------------------------------------------------------------
 Center     Atomic      Atomic             Coordinates (Angstroms)
 Number     Number       Type             X           Y           Z
 ---------------------------------------------------------------------
      1          1           0        4.082947   -1.007127   -0.161906
      2          6           0        3.141042   -0.890455   -0.700314
      3          1           0        2.732717   -1.886777   -0.908784
      4          1           0        3.322363   -0.387684   -1.656524
      5          6           0        2.158435   -0.132483    0.175140
      6          8           0        2.256964   -0.083066    1.391302
      7          7           0        1.154911    0.525259   -0.518671
      8          1           0        1.020918    0.205139   -1.471116
      9          6           0       -0.071337    0.880505    0.181269
     10          1           0        0.214241    0.924089    1.238881
     11          6           0       -0.577852    2.259347   -0.264332
     12          1           0       -0.932919    2.250053   -1.301612
     13          1           0       -1.391184    2.625095    0.374367
     14          1           0        0.239190    2.982076   -0.190672
     15          6           0       -1.079317   -0.291040    0.045944
     16          8           0       -0.684658   -1.443421   -0.087906
     17          7           0       -2.403131    0.042502    0.048846
     18          1           0       -2.664269    1.002753    0.211886
     19          6           0       -3.456213   -0.958961    0.015705
     20          1           0       -2.996841   -1.908634   -0.260401
     21          1           0       -3.940802   -1.071313    0.993832
     22          1           0       -4.215816   -0.691584   -0.726821
 ---------------------------------------------------------------------

 The electronic state is 1-A.
 Alpha  occ. eigenvalues --  -19.11262 -19.10528 -14.36734 -14.35025 -10.28676
 Alpha  occ. eigenvalues --  -10.28010 -10.23313 -10.22141 -10.19626 -10.18341
 Alpha  occ. eigenvalues --   -1.03524  -1.02197  -0.92358  -0.91564  -0.77945
 Alpha  occ. eigenvalues --   -0.72566  -0.70830  -0.64667  -0.58747  -0.57543
 Alpha  occ. eigenvalues --   -0.53563  -0.47377  -0.47019  -0.46214  -0.45107
 Alpha  occ. eigenvalues --   -0.43773  -0.42767  -0.41801  -0.39922  -0.39389
 Alpha  occ. eigenvalues --   -0.39107  -0.38447  -0.37706  -0.35424  -0.34471
 Alpha  occ. eigenvalues --   -0.26248  -0.25460  -0.24893  -0.23890
 Alpha virt. eigenvalues --    0.02096   0.03677   0.06659   0.09079   0.11543
 Alpha virt. eigenvalues --    0.13046   0.13950   0.14508   0.15593   0.15835
 Alpha virt. eigenvalues --    0.16354   0.16568   0.18118   0.18723   0.20167

 Mulliken atomic charges:
              1
     1  H    0.183766
     2  C   -0.550161
     3  H    0.191473
     4  H    0.153830
     5  C    0.598349
     6  O   -0.495425
     7  N   -0.566009
     8  H    0.318743
     9  C   -0.066787
    10  H    0.209320
    11  C   -0.470002
    12  H    0.151863
    13  H    0.140224
    14  H    0.177344
    15  C    0.592852
    16  O   -0.514043
    17  N   -0.595323
    18  H    0.328285
    19  C   -0.310783
    20  H    0.205644
    21  H    0.161211
    22  H    0.155628
 Sum of Mulliken atomic charges =   0.00000

 Dipole moment (field-independent basis, Debye):
    X=             -3.2684    Y=              2.3320    Z=             -2.6740  Tot=              4.8240
 Quadrupole moment (field-independent basis, Debye-Ang):
   XX=            -51.7417   YY=            -60.8274   ZZ=            -61.6036
   XY=             -3.4891   XZ=             -7.8303   YZ=              1.2701

 Normal termination of Gaussian 09 at Fri Feb 10 23:09:29 2017.
