 Gaussian 09, Revision A.02,
 Gaussian 09:  EM64L-G09RevA.02 11-Jun-2009

 ----------------------------------------------------------------------
 # b3lyp/6-31G* Opt=(ModRedundant, maxcycles=1000, calcfc) geom=nocrowd
 ----------------------------------------------------------------------

 ------------------
 Phi Psi fixed scan
 ------------------
 Symbolic Z-matrix:
 Charge =  0 Multiplicity = 1

 SCF Done:  E(RB3LYP) =  -495.835646452     A.U. after   15 cycles

  Exact polarizability:   0.000   0.000   0.000   0.000   0.000   0.000
 Approx polarizability: 103.458  -1.653  95.392  -0.016   6.891 136.556

 SCF Done:  E(RB3LYP) =  -495.839133350     A.U. after   12 cycles
 SCF Done:  E(RB3LYP) =  -495.843143344     A.U. after   13 cycles
 SCF Done:  E(RB3LYP) =  -495.844291706     A.U. after   14 cycles
 SCF Done:  E(RB3LYP) =  -495.780498637     A.U. after   14 cycles
 SCF Done:  E(RB3LYP) =  -495.844291689     A.U. after   14 cycles
 SCF Done:  E(RB3LYP) =  -495.844439203     A.U. after   12 cycles
 SCF Done:  E(RB3LYP) =  -495.804344040     A.U. after   16 cycles
 SCF Done:  E(RB3LYP) =  -495.844500376     A.U. after   14 cycles
 SCF Done:  E(RB3LYP) =  -495.844547827     A.U. after   11 cycles
 SCF Done:  E(RB3LYP) =  -495.844578746     A.U. after   10 cycles
 SCF Done:  E(RB3LYP) =  -495.844612834     A.U. after   11 cycles
 SCF Done:  E(RB3LYP) =  -495.844643157     A.U. after   11 cycles
 SCF Done:  E(RB3LYP) =  -495.844655699     A.U. after   11 cycles
 SCF Done:  E(RB3LYP) =  -495.844661607     A.U. after   11 cycles
 SCF Done:  E(RB3LYP) =  -495.844663066     A.U. after    9 cycles
 SCF Done:  E(RB3LYP) =  -495.844665227     A.U. after   10 cycles
 SCF Done:  E(RB3LYP) =  -495.844665584     A.U. after    9 cycles
 SCF Done:  E(RB3LYP) =  -495.844665627     A.U. after    8 cycles
 SCF Done:  E(RB3LYP) =  -495.844665603     A.U. after    7 cycles
 Optimization completed.
    -- Stationary point found.

                         Standard orientation:
 ---------------------------------------------------------------------
 Center     Atomic      Atomic             Coordinates (Angstroms)
 Number     Number       Type             X           Y           Z
 ---------------------------------------------------------------------
      1          1           0        3.473779   -1.831922   -0.354321
      2          6           0        3.232862   -0.797070   -0.610325
      3          1           0        3.095500   -0.717182   -1.693588
      4          1           0        4.089754   -0.179620   -0.318563
      5          6           0        2.014619   -0.366128    0.194407
      6          8           0        1.895287   -0.610396    1.384246
      7          7           0        1.047663    0.314353   -0.517280
      8          1           0        1.310112    0.662049   -1.431076
      9          6           0       -0.040820    1.015299    0.170289
     10          1           0        0.307520    1.271769    1.174281
     11          6           0       -0.433721    2.283824   -0.594006
     12          1           0       -0.773413    2.048803   -1.609854
     13          1           0       -1.253797    2.787419   -0.074520
     14          1           0        0.412822    2.976974   -0.654991
     15          6           0       -1.282324    0.128691    0.403676
     16          8           0       -1.940598    0.229218    1.428867
     17          7           0       -1.665833   -0.622173   -0.675215
     18          1           0       -0.942456   -0.823139   -1.353709
     19          6           0       -2.787242   -1.543966   -0.589751
     20          1           0       -3.502679   -1.134638    0.124777
     21          1           0       -3.264587   -1.639943   -1.569856
     22          1           0       -2.483129   -2.540300   -0.241767
 ---------------------------------------------------------------------

 The electronic state is 1-A.
 Alpha  occ. eigenvalues --  -19.11574 -19.10632 -14.36911 -14.35659 -10.29335
 Alpha  occ. eigenvalues --  -10.27769 -10.23386 -10.21466 -10.19925 -10.19758
 Alpha  occ. eigenvalues --   -1.03712  -1.02473  -0.93169  -0.91131  -0.78431
 Alpha  occ. eigenvalues --   -0.73497  -0.70652  -0.64643  -0.59374  -0.57444
 Alpha  occ. eigenvalues --   -0.52607  -0.49713  -0.48027  -0.45557  -0.44916
 Alpha  occ. eigenvalues --   -0.43752  -0.42634  -0.41936  -0.40652  -0.39790
 Alpha  occ. eigenvalues --   -0.39207  -0.38120  -0.38082  -0.35939  -0.34618
 Alpha  occ. eigenvalues --   -0.27788  -0.25356  -0.24983  -0.23575
 Alpha virt. eigenvalues --    0.01958   0.02710   0.05879   0.09733   0.11430
 Alpha virt. eigenvalues --    0.12081   0.13417   0.14534   0.14963   0.15807
 Alpha virt. eigenvalues --    0.16333   0.17320   0.17646   0.18380   0.19547

 Mulliken atomic charges:
              1
     1  H    0.191577
     2  C   -0.540989
     3  H    0.143829
     4  H    0.187020
     5  C    0.585446
     6  O   -0.483098
     7  N   -0.618414
     8  H    0.320646
     9  C   -0.034485
    10  H    0.193526
    11  C   -0.478090
    12  H    0.148353
    13  H    0.186487
    14  H    0.157368
    15  C    0.608712
    16  O   -0.510063
    17  N   -0.582799
    18  H    0.322820
    19  C   -0.307427
    20  H    0.198491
    21  H    0.150460
    22  H    0.160632
 Sum of Mulliken atomic charges =   0.00000

 Dipole moment (field-independent basis, Debye):
    X=              1.4651    Y=              0.4648    Z=             -6.0087  Tot=              6.2022
 Quadrupole moment (field-independent basis, Debye-Ang):
   XX=            -58.3415   YY=            -55.4966   ZZ=            -64.9752
   XY=              3.9874   XZ=             -0.7100   YZ=              1.9360

 Normal termination of Gaussian 09 at Fri Feb 10 23:21:14 2017.
