 Gaussian 09, Revision A.02,
 Gaussian 09:  EM64L-G09RevA.02 11-Jun-2009

 ----------------------------------------------------------------------
 # b3lyp/6-31G* Opt=(ModRedundant, maxcycles=1000, calcfc) geom=nocrowd
 ----------------------------------------------------------------------

 ------------------
 Phi Psi fixed scan
 ------------------
 Symbolic Z-matrix:
 Charge =  0 Multiplicity = 1

 SCF Done:  E(RB3LYP) =  -495.840418607     A.U. after   15 cycles

  Exact polarizability:   0.000   0.000   0.000   0.000   0.000   0.000
 Approx polarizability: 111.633  -4.550 101.940 -12.231  -3.044 119.312

 SCF Done:  E(RB3LYP) =  -495.843179860     A.U. after   12 cycles
 SCF Done:  E(RB3LYP) =  -495.846479167     A.U. after   12 cycles
 SCF Done:  E(RB3LYP) =  -495.848006426     A.U. after   13 cycles
 SCF Done:  E(RB3LYP) =  -495.831837593     A.U. after   15 cycles
 SCF Done:  E(RB3LYP) =  -495.848041221     A.U. after   14 cycles
 SCF Done:  E(RB3LYP) =  -495.848669196     A.U. after   12 cycles
 SCF Done:  E(RB3LYP) =  -495.847125394     A.U. after   14 cycles
 SCF Done:  E(RB3LYP) =  -495.848964020     A.U. after   13 cycles
 SCF Done:  E(RB3LYP) =  -495.848967253     A.U. after   11 cycles
 SCF Done:  E(RB3LYP) =  -495.849133311     A.U. after   12 cycles
 SCF Done:  E(RB3LYP) =  -495.849178409     A.U. after   12 cycles
 SCF Done:  E(RB3LYP) =  -495.849204730     A.U. after   11 cycles
 SCF Done:  E(RB3LYP) =  -495.849208392     A.U. after   10 cycles
 SCF Done:  E(RB3LYP) =  -495.849209459     A.U. after    9 cycles
 SCF Done:  E(RB3LYP) =  -495.849209853     A.U. after    7 cycles
 SCF Done:  E(RB3LYP) =  -495.849210157     A.U. after    9 cycles
 Optimization completed.
    -- Stationary point found.

                         Standard orientation:
 ---------------------------------------------------------------------
 Center     Atomic      Atomic             Coordinates (Angstroms)
 Number     Number       Type             X           Y           Z
 ---------------------------------------------------------------------
      1          1           0        4.054368   -1.101050    0.100876
      2          6           0        3.194336   -0.886184   -0.535873
      3          1           0        2.827193   -1.833207   -0.950145
      4          1           0        3.501647   -0.246068   -1.369268
      5          6           0        2.100081   -0.253294    0.307649
      6          8           0        2.008137   -0.436116    1.513698
      7          7           0        1.231694    0.564389   -0.392302
      8          1           0        1.179560    0.377203   -1.388447
      9          6           0       -0.055728    0.900591    0.192506
     10          1           0        0.084148    0.857760    1.276786
     11          6           0       -0.494937    2.311517   -0.231075
     12          1           0       -0.620711    2.368502   -1.318600
     13          1           0       -1.449152    2.586623    0.230092
     14          1           0        0.262737    3.042013    0.066992
     15          6           0       -1.102406   -0.153371   -0.234743
     16          8           0       -0.916144   -0.880842   -1.204742
     17          7           0       -2.258299   -0.144122    0.488015
     18          1           0       -2.280993    0.396180    1.341813
     19          6           0       -3.348096   -1.072268    0.234395
     20          1           0       -3.173294   -1.523403   -0.742957
     21          1           0       -3.387002   -1.868236    0.988563
     22          1           0       -4.307707   -0.544474    0.225499
 ---------------------------------------------------------------------

 The electronic state is 1-A.
 Alpha  occ. eigenvalues --  -19.11712 -19.10797 -14.36811 -14.34921 -10.28760
 Alpha  occ. eigenvalues --  -10.28234 -10.23247 -10.22198 -10.19147 -10.18519
 Alpha  occ. eigenvalues --   -1.03765  -1.02433  -0.92526  -0.91624  -0.77907
 Alpha  occ. eigenvalues --   -0.72646  -0.71043  -0.64056  -0.58998  -0.57281
 Alpha  occ. eigenvalues --   -0.53538  -0.47808  -0.46900  -0.45825  -0.45505
 Alpha  occ. eigenvalues --   -0.44012  -0.42680  -0.41629  -0.40489  -0.39526
 Alpha  occ. eigenvalues --   -0.39259  -0.37967  -0.37348  -0.35544  -0.34804
 Alpha  occ. eigenvalues --   -0.26221  -0.25950  -0.25344  -0.23924
 Alpha virt. eigenvalues --    0.02354   0.02889   0.06733   0.09331   0.11877
 Alpha virt. eigenvalues --    0.12842   0.14241   0.15029   0.15682   0.15778
 Alpha virt. eigenvalues --    0.16462   0.16764   0.17757   0.18656   0.19369

 Mulliken atomic charges:
              1
     1  H    0.183765
     2  C   -0.545209
     3  H    0.186486
     4  H    0.158410
     5  C    0.585437
     6  O   -0.501483
     7  N   -0.564494
     8  H    0.328925
     9  C   -0.081054
    10  H    0.181773
    11  C   -0.440644
    12  H    0.155766
    13  H    0.144653
    14  H    0.168765
    15  C    0.609766
    16  O   -0.527180
    17  N   -0.585821
    18  H    0.328399
    19  C   -0.310428
    20  H    0.203791
    21  H    0.163335
    22  H    0.157041
 Sum of Mulliken atomic charges =   0.00000

 Dipole moment (field-independent basis, Debye):
    X=             -2.3189    Y=              1.6507    Z=             -0.4320  Tot=              2.8790
 Quadrupole moment (field-independent basis, Debye-Ang):
   XX=            -51.7942   YY=            -59.4731   ZZ=            -63.4539
   XY=             -0.7596   XZ=            -10.9809   YZ=              0.1693

 Normal termination of Gaussian 09 at Fri Feb 10 23:08:08 2017.
