 Gaussian 09, Revision A.02,
 Gaussian 09:  EM64L-G09RevA.02 11-Jun-2009

 ----------------------------------------------------------------------
 # b3lyp/6-31G* Opt=(ModRedundant, maxcycles=1000, calcfc) geom=nocrowd
 ----------------------------------------------------------------------

 ------------------
 Phi Psi fixed scan
 ------------------
 Symbolic Z-matrix:
 Charge =  0 Multiplicity = 1

 SCF Done:  E(RB3LYP) =  -990.463439271     A.U. after   14 cycles

  Exact polarizability:   0.000   0.000   0.000   0.000   0.000   0.000
 Approx polarizability: 242.754  -2.094 226.378  -8.130   4.819 198.785

 SCF Done:  E(RB3LYP) =  -990.475668314     A.U. after   12 cycles
 SCF Done:  E(RB3LYP) =  -990.489242701     A.U. after   13 cycles
 SCF Done:  E(RB3LYP) =  -990.492770475     A.U. after   13 cycles
 SCF Done:  E(RB3LYP) =  -990.494741650     A.U. after   12 cycles
 SCF Done:  E(RB3LYP) =  -990.496579369     A.U. after   14 cycles
 SCF Done:  E(RB3LYP) =  -990.492420993     A.U. after   14 cycles
 SCF Done:  E(RB3LYP) =  -990.497252783     A.U. after   13 cycles
 SCF Done:  E(RB3LYP) =  -990.497685426     A.U. after   12 cycles
 SCF Done:  E(RB3LYP) =  -990.497474976     A.U. after   12 cycles
 SCF Done:  E(RB3LYP) =  -990.498277148     A.U. after    9 cycles
 SCF Done:  E(RB3LYP) =  -990.498277100     A.U. after    6 cycles
 SCF Done:  E(RB3LYP) =  -990.498276656     A.U. after    9 cycles
 SCF Done:  E(RB3LYP) =  -990.498276517     A.U. after   10 cycles
 SCF Done:  E(RB3LYP) =  -990.498277375     A.U. after    9 cycles
 SCF Done:  E(RB3LYP) =  -990.498277202     A.U. after    9 cycles
 SCF Done:  E(RB3LYP) =  -990.498277552     A.U. after    9 cycles
 SCF Done:  E(RB3LYP) =  -990.498277752     A.U. after    9 cycles
 SCF Done:  E(RB3LYP) =  -990.498277789     A.U. after    6 cycles
 SCF Done:  E(RB3LYP) =  -990.498277836     A.U. after    6 cycles
 Optimization completed.
    -- Stationary point found.

                         Standard orientation:
 ---------------------------------------------------------------------
 Center     Atomic      Atomic             Coordinates (Angstroms)
 Number     Number       Type             X           Y           Z
 ---------------------------------------------------------------------
      1          1           0        7.531559   -0.203391   -1.108743
      2          6           0        6.555888   -0.128456   -1.599460
      3          1           0        6.597956   -0.744452   -2.502940
      4          1           0        6.380690    0.913655   -1.883877
      5          6           0        5.492394   -0.695630   -0.669547
      6          8           0        5.520391   -1.861616   -0.284073
      7          7           0        4.521677    0.179511   -0.287618
      8          1           0        4.448142    1.111262   -0.680301
      9          6           0        3.394562   -0.225601    0.528360
     10          1           0        3.042374   -1.203036    0.172813
     11          6           0        3.779232   -0.354787    2.015483
     12          1           0        4.114768    0.610465    2.409052
     13          1           0        2.934916   -0.702072    2.621042
     14          1           0        4.592176   -1.079436    2.103955
     15          6           0        2.286631    0.827425    0.310347
     16          8           0        2.529534    1.887895   -0.257855
     17          7           0        1.087999    0.483421    0.867912
     18          1           0        1.029160   -0.495991    1.120341
     19          6           0       -0.232463    1.068464    0.624039
     20          1           0       -0.636775    1.406454    1.589456
     21          6           0       -0.267158    2.259018   -0.348909
     22          1           0        0.085846    1.967986   -1.340493
     23          1           0       -1.303193    2.605673   -0.431403
     24          1           0        0.356590    3.079161    0.005344
     25          6           0       -1.147454   -0.056201    0.086216
     26          8           0       -0.704452   -1.010003   -0.547882
     27          7           0       -2.460450    0.085134    0.396476
     28          1           0       -2.820011    0.911465    0.865164
     29          6           0       -3.484511   -0.790953   -0.144203
     30          1           0       -3.225537   -1.025562   -1.184467
     31          6           0       -3.585752   -2.109738    0.646015
     32          1           0       -3.850851   -1.910929    1.689473
     33          1           0       -4.342284   -2.775923    0.216411
     34          1           0       -2.618981   -2.618137    0.612866
     35          6           0       -4.805201   -0.000989   -0.098829
     36          8           0       -4.913872    1.019084    0.578510
     37          7           0       -5.819027   -0.530264   -0.830786
     38          1           0       -5.632443   -1.352868   -1.386896
     39          6           0       -7.150703    0.052271   -0.878171
     40          1           0       -7.157422    0.910324   -0.205422
     41          1           0       -7.397827    0.389398   -1.891305
     42          1           0       -7.905838   -0.670478   -0.549612
 ---------------------------------------------------------------------

 The electronic state is 1-A.
 Alpha  occ. eigenvalues --  -19.13613 -19.12389 -19.12139 -19.09159 -14.38517
 Alpha  occ. eigenvalues --  -14.36749 -14.36514 -14.34178 -10.30756 -10.29485
 Alpha  occ. eigenvalues --  -10.29302 -10.27163 -10.25126 -10.24740 -10.23496
 Alpha  occ. eigenvalues --  -10.22878 -10.19730 -10.18594 -10.17910 -10.17731
 Alpha  occ. eigenvalues --   -1.05674  -1.04466  -1.03772  -1.01135  -0.94297
 Alpha  occ. eigenvalues --   -0.93384  -0.92984  -0.90707  -0.80062  -0.77698
 Alpha  occ. eigenvalues --   -0.75410  -0.72470  -0.71423  -0.67801  -0.66172
 Alpha  occ. eigenvalues --   -0.63625  -0.61032  -0.59020  -0.57311  -0.56385
 Alpha  occ. eigenvalues --   -0.55776  -0.52414  -0.50627  -0.49488  -0.47905
 Alpha  occ. eigenvalues --   -0.47288  -0.47129  -0.46210  -0.44959  -0.44546
 Alpha  occ. eigenvalues --   -0.44032  -0.43464  -0.42857  -0.42508  -0.41267
 Alpha  occ. eigenvalues --   -0.41021  -0.40967  -0.40244  -0.39372  -0.38908
 Alpha  occ. eigenvalues --   -0.38626  -0.38130  -0.37817  -0.37745  -0.37514
 Alpha  occ. eigenvalues --   -0.36640  -0.36079  -0.35677  -0.33191  -0.27942
 Alpha  occ. eigenvalues --   -0.27725  -0.26759  -0.26274  -0.25761  -0.25486
 Alpha  occ. eigenvalues --   -0.23696  -0.23146
 Alpha virt. eigenvalues --    0.00454   0.01439   0.02242   0.04472   0.05416
 Alpha virt. eigenvalues --    0.07681   0.09003   0.10501   0.10766   0.12483
 Alpha virt. eigenvalues --    0.12952   0.13350   0.14270   0.14355   0.14558

 Mulliken atomic charges:
              1
     1  H    0.179981
     2  C   -0.532827
     3  H    0.180737
     4  H    0.147010
     5  C    0.596070
     6  O   -0.525430
     7  N   -0.605931
     8  H    0.346320
     9  C   -0.037674
    10  H    0.179143
    11  C   -0.443150
    12  H    0.153677
    13  H    0.136611
    14  H    0.190397
    15  C    0.608088
    16  O   -0.531096
    17  N   -0.604777
    18  H    0.337698
    19  C   -0.018134
    20  H    0.152753
    21  C   -0.440334
    22  H    0.178032
    23  H    0.142008
    24  H    0.188861
    25  C    0.577230
    26  O   -0.526423
    27  N   -0.610971
    28  H    0.354784
    29  C   -0.036163
    30  H    0.172722
    31  C   -0.443308
    32  H    0.161630
    33  H    0.138795
    34  H    0.189554
    35  C    0.606558
    36  O   -0.529247
    37  N   -0.591971
    38  H    0.333361
    39  C   -0.314489
    40  H    0.208868
    41  H    0.166313
    42  H    0.164723
 Sum of Mulliken atomic charges =   0.00000

 Dipole moment (field-independent basis, Debye):
    X=             -6.8589    Y=              0.1657    Z=             -0.4273  Tot=              6.8742
 Quadrupole moment (field-independent basis, Debye-Ang):
   XX=           -102.4293   YY=           -128.0159   ZZ=           -114.1640
   XY=             23.0229   XZ=              9.2017   YZ=             -0.8888

 Normal termination of Gaussian 09 at Thu Dec 29 02:12:14 2016.
