 Gaussian 09, Revision A.02,
 Gaussian 09:  EM64L-G09RevA.02 11-Jun-2009

 ----------------------------------------------------------------------
 # b3lyp/6-31G* Opt=(ModRedundant, maxcycles=1000, calcfc) geom=nocrowd
 ----------------------------------------------------------------------

 ------------------
 Phi Psi fixed scan
 ------------------
 Symbolic Z-matrix:
 Charge =  0 Multiplicity = 1

 SCF Done:  E(RB3LYP) =  -990.461704057     A.U. after   15 cycles

  Exact polarizability:   0.000   0.000   0.000   0.000   0.000   0.000
 Approx polarizability: 237.959 -12.717 237.434  -5.270 -22.126 194.299

 SCF Done:  E(RB3LYP) =  -990.475184821     A.U. after   16 cycles
 SCF Done:  E(RB3LYP) =  -990.490726226     A.U. after   16 cycles
 SCF Done:  E(RB3LYP) =  -990.493731176     A.U. after   16 cycles
 SCF Done:  E(RB3LYP) =  -990.491568978     A.U. after   15 cycles
 SCF Done:  E(RB3LYP) =  -990.494514529     A.U. after   13 cycles
 SCF Done:  E(RB3LYP) =  -990.495612616     A.U. after   12 cycles
 SCF Done:  E(RB3LYP) =  -990.497171118     A.U. after   12 cycles
 SCF Done:  E(RB3LYP) =  -990.497927226     A.U. after   16 cycles
 SCF Done:  E(RB3LYP) =  -990.498355517     A.U. after   12 cycles
 SCF Done:  E(RB3LYP) =  -990.499420578     A.U. after    7 cycles
 SCF Done:  E(RB3LYP) =  -990.499420784     A.U. after    7 cycles
 SCF Done:  E(RB3LYP) =  -990.499421222     A.U. after    7 cycles
 SCF Done:  E(RB3LYP) =  -990.499422087     A.U. after    8 cycles
 SCF Done:  E(RB3LYP) =  -990.499423260     A.U. after    7 cycles
 SCF Done:  E(RB3LYP) =  -990.499425012     A.U. after    7 cycles
 SCF Done:  E(RB3LYP) =  -990.499428377     A.U. after    9 cycles
 SCF Done:  E(RB3LYP) =  -990.499430169     A.U. after    9 cycles
 SCF Done:  E(RB3LYP) =  -990.499430355     A.U. after    7 cycles
 SCF Done:  E(RB3LYP) =  -990.499430448     A.U. after    6 cycles
 Optimization completed.
    -- Stationary point found.

                         Standard orientation:
 ---------------------------------------------------------------------
 Center     Atomic      Atomic             Coordinates (Angstroms)
 Number     Number       Type             X           Y           Z
 ---------------------------------------------------------------------
      1          1           0       -6.150036   -2.183762    1.194617
      2          6           0       -5.120662   -2.031326    1.533460
      3          1           0       -4.772335   -2.980046    1.953683
      4          1           0       -5.112414   -1.268965    2.318462
      5          6           0       -4.254453   -1.680735    0.332485
      6          8           0       -4.159800   -2.421024   -0.642678
      7          7           0       -3.595940   -0.490457    0.411871
      8          1           0       -3.627044    0.092800    1.239901
      9          6           0       -2.679338   -0.048465   -0.618822
     10          1           0       -2.078978   -0.910212   -0.938450
     11          6           0       -3.421680    0.513523   -1.848396
     12          1           0       -4.021417    1.385731   -1.567878
     13          1           0       -2.724017    0.810461   -2.640256
     14          1           0       -4.081456   -0.262783   -2.243041
     15          6           0       -1.769874    1.020409    0.018871
     16          8           0       -2.080188    1.569214    1.069684
     17          7           0       -0.625456    1.267874   -0.690960
     18          1           0       -0.545533    0.750118   -1.557558
     19          6           0        0.311492    2.399355   -0.578763
     20          1           0        0.407907    2.818082   -1.589887
     21          6           0       -0.134727    3.540275    0.342446
     22          1           0       -0.233846    3.212429    1.377168
     23          1           0        0.628836    4.318990    0.280666
     24          1           0       -1.096202    3.948132    0.020934
     25          6           0        1.749583    1.958412   -0.214717
     26          8           0        2.647246    2.794423   -0.143714
     27          7           0        1.950625    0.630226   -0.052247
     28          1           0        1.180391   -0.028312   -0.073759
     29          6           0        3.253414    0.068284    0.244794
     30          1           0        3.991716    0.566072   -0.395938
     31          6           0        3.657921    0.278725    1.717454
     32          1           0        2.943902   -0.216254    2.383728
     33          1           0        4.656758   -0.125493    1.917124
     34          1           0        3.666349    1.349839    1.933345
     35          6           0        3.171830   -1.428141   -0.101393
     36          8           0        2.089347   -2.002167   -0.194852
     37          7           0        4.370042   -2.049677   -0.259518
     38          1           0        5.211943   -1.495802   -0.187766
     39          6           0        4.494457   -3.473123   -0.528230
     40          1           0        3.486334   -3.886001   -0.576665
     41          1           0        5.001093   -3.649673   -1.483798
     42          1           0        5.052531   -3.977837    0.268697
 ---------------------------------------------------------------------

 The electronic state is 1-A.
 Alpha  occ. eigenvalues --  -19.12999 -19.12990 -19.11139 -19.09773 -14.38005
 Alpha  occ. eigenvalues --  -14.37888 -14.35971 -14.34909 -10.30248 -10.30161
 Alpha  occ. eigenvalues --  -10.28652 -10.27779 -10.24718 -10.24518 -10.23761
 Alpha  occ. eigenvalues --  -10.23064 -10.19101 -10.18616 -10.18395 -10.17779
 Alpha  occ. eigenvalues --   -1.05067  -1.04917  -1.03114  -1.01789  -0.94283
 Alpha  occ. eigenvalues --   -0.93744  -0.92249  -0.91423  -0.79560  -0.77717
 Alpha  occ. eigenvalues --   -0.75838  -0.72028  -0.72008  -0.67679  -0.66019
 Alpha  occ. eigenvalues --   -0.63860  -0.60511  -0.58774  -0.57855  -0.57221
 Alpha  occ. eigenvalues --   -0.55453  -0.53768  -0.49877  -0.48791  -0.48310
 Alpha  occ. eigenvalues --   -0.47834  -0.46659  -0.46133  -0.45234  -0.45003
 Alpha  occ. eigenvalues --   -0.43883  -0.43387  -0.43003  -0.41707  -0.41317
 Alpha  occ. eigenvalues --   -0.40694  -0.40629  -0.40332  -0.39915  -0.38745
 Alpha  occ. eigenvalues --   -0.38553  -0.38257  -0.37921  -0.37400  -0.37040
 Alpha  occ. eigenvalues --   -0.36888  -0.36533  -0.34747  -0.33863  -0.28845
 Alpha  occ. eigenvalues --   -0.27192  -0.26972  -0.26575  -0.25385  -0.24500
 Alpha  occ. eigenvalues --   -0.24111  -0.23766
 Alpha virt. eigenvalues --    0.01034   0.01086   0.02650   0.03829   0.05549
 Alpha virt. eigenvalues --    0.06029   0.09888   0.11032   0.11752   0.12110
 Alpha virt. eigenvalues --    0.13274   0.13485   0.13667   0.14124   0.14915

 Mulliken atomic charges:
              1
     1  H    0.181776
     2  C   -0.533270
     3  H    0.182940
     4  H    0.147997
     5  C    0.598144
     6  O   -0.523716
     7  N   -0.606402
     8  H    0.346774
     9  C   -0.037141
    10  H    0.176961
    11  C   -0.446636
    12  H    0.157817
    13  H    0.131828
    14  H    0.195306
    15  C    0.611664
    16  O   -0.519772
    17  N   -0.644240
    18  H    0.336888
    19  C   -0.035400
    20  H    0.171975
    21  C   -0.442779
    22  H    0.182231
    23  H    0.175400
    24  H    0.155037
    25  C    0.618379
    26  O   -0.539591
    27  N   -0.619080
    28  H    0.355148
    29  C   -0.031412
    30  H    0.167713
    31  C   -0.445700
    32  H    0.162678
    33  H    0.137104
    34  H    0.192492
    35  C    0.606643
    36  O   -0.529354
    37  N   -0.592868
    38  H    0.331762
    39  C   -0.314440
    40  H    0.209494
    41  H    0.163820
    42  H    0.163829
 Sum of Mulliken atomic charges =   0.00000

 Dipole moment (field-independent basis, Debye):
    X=              3.9106    Y=             -0.7308    Z=             -0.4379  Tot=              4.0023
 Quadrupole moment (field-independent basis, Debye-Ang):
   XX=           -100.5716   YY=           -131.8781   ZZ=           -114.9927
   XY=            -23.8365   XZ=             -5.4475   YZ=             -8.0686

 Normal termination of Gaussian 09 at Thu Dec 29 02:26:28 2016.
