 Gaussian 09, Revision A.02,
 Gaussian 09:  EM64L-G09RevA.02 11-Jun-2009

 ----------------------------------------------------------------------
 # b3lyp/6-31G* Opt=(ModRedundant, maxcycles=1000, calcfc) geom=nocrowd
 ----------------------------------------------------------------------

 ------------------
 Phi Psi fixed scan
 ------------------
 Symbolic Z-matrix:
 Charge =  0 Multiplicity = 1

 SCF Done:  E(RB3LYP) =  -990.459950411     A.U. after   15 cycles

  Exact polarizability:   0.000   0.000   0.000   0.000   0.000   0.000
 Approx polarizability: 237.786 -15.433 225.958  -1.158  19.380 206.305

 SCF Done:  E(RB3LYP) =  -990.472618303     A.U. after   12 cycles
 SCF Done:  E(RB3LYP) =  -990.486730434     A.U. after   13 cycles
 SCF Done:  E(RB3LYP) =  -990.490635953     A.U. after   13 cycles
 SCF Done:  E(RB3LYP) =  -990.489010619     A.U. after   13 cycles
 SCF Done:  E(RB3LYP) =  -990.491559049     A.U. after   12 cycles
 SCF Done:  E(RB3LYP) =  -990.492624116     A.U. after   12 cycles
 SCF Done:  E(RB3LYP) =  -990.494168062     A.U. after   13 cycles
 SCF Done:  E(RB3LYP) =  -990.495038962     A.U. after   16 cycles
 SCF Done:  E(RB3LYP) =  -990.495449692     A.U. after   12 cycles
 SCF Done:  E(RB3LYP) =  -990.495933036     A.U. after   10 cycles
 SCF Done:  E(RB3LYP) =  -990.495938383     A.U. after    9 cycles
 SCF Done:  E(RB3LYP) =  -990.495940381     A.U. after    9 cycles
 SCF Done:  E(RB3LYP) =  -990.495940864     A.U. after    7 cycles
 SCF Done:  E(RB3LYP) =  -990.495941508     A.U. after    8 cycles
 SCF Done:  E(RB3LYP) =  -990.495941918     A.U. after    7 cycles
 SCF Done:  E(RB3LYP) =  -990.495942310     A.U. after    7 cycles
 SCF Done:  E(RB3LYP) =  -990.495942612     A.U. after    7 cycles
 SCF Done:  E(RB3LYP) =  -990.495942815     A.U. after    7 cycles
 SCF Done:  E(RB3LYP) =  -990.495942867     A.U. after    6 cycles
 Optimization completed.
    -- Stationary point found.

                         Standard orientation:
 ---------------------------------------------------------------------
 Center     Atomic      Atomic             Coordinates (Angstroms)
 Number     Number       Type             X           Y           Z
 ---------------------------------------------------------------------
      1          1           0        6.322264   -1.559352   -2.050408
      2          6           0        6.329696   -0.995918   -1.112164
      3          1           0        6.457956    0.067716   -1.334903
      4          1           0        7.188760   -1.344172   -0.530168
      5          6           0        5.054769   -1.309150   -0.342592
      6          8           0        4.752871   -2.455440   -0.019846
      7          7           0        4.278804   -0.234262   -0.031066
      8          1           0        4.484639    0.700289   -0.365611
      9          6           0        2.998772   -0.376620    0.632348
     10          1           0        2.491501   -1.254831    0.212638
     11          6           0        3.158149   -0.583747    2.151635
     12          1           0        3.648744    0.283351    2.606057
     13          1           0        2.188987   -0.731329    2.642018
     14          1           0        3.771658   -1.471876    2.321756
     15          6           0        2.190240    0.900908    0.317877
     16          8           0        2.748642    1.910461   -0.098682
     17          7           0        0.859607    0.781043    0.587115
     18          1           0        0.554719   -0.138419    0.880551
     19          6           0       -0.238149    1.748032    0.408510
     20          1           0       -0.718899    1.864605    1.391233
     21          6           0        0.175538    3.126237   -0.101379
     22          1           0        0.577092    3.060101   -1.112131
     23          1           0       -0.718288    3.759975   -0.121688
     24          1           0        0.922196    3.584247    0.547587
     25          6           0       -1.253502    1.100757   -0.564999
     26          8           0       -1.152633    1.197273   -1.782162
     27          7           0       -2.222155    0.361908    0.043986
     28          1           0       -2.397642    0.417673    1.043015
     29          6           0       -3.277747   -0.291427   -0.709642
     30          1           0       -3.591303    0.380982   -1.519066
     31          6           0       -2.799679   -1.616407   -1.332742
     32          1           0       -2.496252   -2.321178   -0.551637
     33          1           0       -3.586912   -2.084463   -1.934315
     34          1           0       -1.945882   -1.413496   -1.983993
     35          6           0       -4.447072   -0.504141    0.269120
     36          8           0       -4.300917   -0.350598    1.480434
     37          7           0       -5.618188   -0.881553   -0.304481
     38          1           0       -5.656881   -0.961740   -1.310828
     39          6           0       -6.823132   -1.158881    0.461055
     40          1           0       -6.585404   -1.004646    1.513921
     41          1           0       -7.634896   -0.481499    0.173125
     42          1           0       -7.153635   -2.193316    0.313846
 ---------------------------------------------------------------------

 The electronic state is 1-A.
 Alpha  occ. eigenvalues --  -19.13654 -19.12173 -19.11983 -19.09485 -14.38512
 Alpha  occ. eigenvalues --  -14.37375 -14.36733 -14.34538 -10.30782 -10.29590
 Alpha  occ. eigenvalues --  -10.29160 -10.27484 -10.25023 -10.24730 -10.23499
 Alpha  occ. eigenvalues --  -10.23298 -10.19734 -10.18201 -10.18141 -10.17620
 Alpha  occ. eigenvalues --   -1.05675  -1.04315  -1.03708  -1.01463  -0.94307
 Alpha  occ. eigenvalues --   -0.93693  -0.92911  -0.91050  -0.79838  -0.77865
 Alpha  occ. eigenvalues --   -0.75610  -0.72468  -0.71722  -0.68054  -0.65982
 Alpha  occ. eigenvalues --   -0.63613  -0.60913  -0.58829  -0.57830  -0.56914
 Alpha  occ. eigenvalues --   -0.55699  -0.52773  -0.50856  -0.49465  -0.48141
 Alpha  occ. eigenvalues --   -0.47565  -0.47140  -0.46474  -0.45004  -0.44726
 Alpha  occ. eigenvalues --   -0.44433  -0.43567  -0.42861  -0.41556  -0.41358
 Alpha  occ. eigenvalues --   -0.41080  -0.40950  -0.40527  -0.39040  -0.38587
 Alpha  occ. eigenvalues --   -0.38508  -0.38397  -0.37738  -0.37445  -0.37289
 Alpha  occ. eigenvalues --   -0.36690  -0.36348  -0.35822  -0.33541  -0.28346
 Alpha  occ. eigenvalues --   -0.27773  -0.27439  -0.26267  -0.25816  -0.24573
 Alpha  occ. eigenvalues --   -0.23902  -0.23465
 Alpha virt. eigenvalues --    0.00226   0.01010   0.02946   0.04230   0.05356
 Alpha virt. eigenvalues --    0.06291   0.09462   0.10269   0.10686   0.12415
 Alpha virt. eigenvalues --    0.12930   0.13352   0.13674   0.14356   0.14660

 Mulliken atomic charges:
              1
     1  H    0.181565
     2  C   -0.532783
     3  H    0.148583
     4  H    0.180789
     5  C    0.596200
     6  O   -0.526590
     7  N   -0.604267
     8  H    0.347523
     9  C   -0.035197
    10  H    0.168630
    11  C   -0.443170
    12  H    0.157070
    13  H    0.132963
    14  H    0.190600
    15  C    0.617805
    16  O   -0.527880
    17  N   -0.610700
    18  H    0.330621
    19  C   -0.029657
    20  H    0.143882
    21  C   -0.434484
    22  H    0.196042
    23  H    0.140742
    24  H    0.168907
    25  C    0.600834
    26  O   -0.516875
    27  N   -0.622178
    28  H    0.351573
    29  C   -0.033709
    30  H    0.175368
    31  C   -0.445969
    32  H    0.159134
    33  H    0.138216
    34  H    0.193752
    35  C    0.606081
    36  O   -0.530607
    37  N   -0.591992
    38  H    0.333768
    39  C   -0.314556
    40  H    0.208774
    41  H    0.165772
    42  H    0.165418
 Sum of Mulliken atomic charges =   0.00000

 Dipole moment (field-independent basis, Debye):
    X=             -6.0953    Y=             -0.2632    Z=              0.1880  Tot=              6.1039
 Quadrupole moment (field-independent basis, Debye-Ang):
   XX=            -92.0983   YY=           -129.7663   ZZ=           -122.1285
   XY=             15.4487   XZ=              7.9716   YZ=              6.3364

 Normal termination of Gaussian 09 at Thu Dec 29 05:24:50 2016.
