 Gaussian 09, Revision A.02,
 Gaussian 09:  EM64L-G09RevA.02 11-Jun-2009

 ----------------------------------------------------------------------
 # b3lyp/6-31G* Opt=(ModRedundant, maxcycles=1000, calcfc) geom=nocrowd
 ----------------------------------------------------------------------

 ------------------
 Phi Psi fixed scan
 ------------------
 Symbolic Z-matrix:
 Charge =  0 Multiplicity = 1

 SCF Done:  E(RB3LYP) =  -990.462342937     A.U. after   15 cycles

  Exact polarizability:   0.000   0.000   0.000   0.000   0.000   0.000
 Approx polarizability: 242.230  10.366 213.896  -8.456  -3.585 213.494

 SCF Done:  E(RB3LYP) =  -990.474544430     A.U. after   12 cycles
 SCF Done:  E(RB3LYP) =  -990.487986114     A.U. after   13 cycles
 SCF Done:  E(RB3LYP) =  -990.491562064     A.U. after   13 cycles
 SCF Done:  E(RB3LYP) =  -990.493262908     A.U. after   12 cycles
 SCF Done:  E(RB3LYP) =  -990.495028899     A.U. after   13 cycles
 SCF Done:  E(RB3LYP) =  -990.477115074     A.U. after   15 cycles
 SCF Done:  E(RB3LYP) =  -990.495282787     A.U. after   15 cycles
 SCF Done:  E(RB3LYP) =  -990.495623497     A.U. after   12 cycles
 SCF Done:  E(RB3LYP) =  -990.493862696     A.U. after   13 cycles
 SCF Done:  E(RB3LYP) =  -990.496482312     A.U. after    8 cycles
 SCF Done:  E(RB3LYP) =  -990.496484547     A.U. after    9 cycles
 SCF Done:  E(RB3LYP) =  -990.496487713     A.U. after    9 cycles
 SCF Done:  E(RB3LYP) =  -990.496491750     A.U. after   10 cycles
 SCF Done:  E(RB3LYP) =  -990.496494159     A.U. after    9 cycles
 SCF Done:  E(RB3LYP) =  -990.496494734     A.U. after   10 cycles
 SCF Done:  E(RB3LYP) =  -990.496494690     A.U. after   10 cycles
 SCF Done:  E(RB3LYP) =  -990.496493826     A.U. after   10 cycles
 SCF Done:  E(RB3LYP) =  -990.496494991     A.U. after    9 cycles
 SCF Done:  E(RB3LYP) =  -990.496495271     A.U. after    8 cycles
 Optimization completed.
    -- Stationary point found.

                         Standard orientation:
 ---------------------------------------------------------------------
 Center     Atomic      Atomic             Coordinates (Angstroms)
 Number     Number       Type             X           Y           Z
 ---------------------------------------------------------------------
      1          1           0        6.667348   -1.375493   -1.958644
      2          6           0        6.616748   -0.638514   -1.151024
      3          1           0        6.562401    0.364273   -1.585667
      4          1           0        7.541129   -0.726485   -0.571658
      5          6           0        5.437772   -0.978758   -0.250805
      6          8           0        5.343978   -2.063637    0.318046
      7          7           0        4.501778    0.000833   -0.115329
      8          1           0        4.539430    0.865910   -0.642446
      9          6           0        3.284483   -0.197113    0.644734
     10          1           0        2.906724   -1.205538    0.431883
     11          6           0        3.528566   -0.074890    2.162015
     12          1           0        3.892608    0.927553    2.410374
     13          1           0        2.612904   -0.263749    2.734117
     14          1           0        4.279840   -0.811653    2.456451
     15          6           0        2.273623    0.859495    0.148497
     16          8           0        2.649838    1.833775   -0.495257
     17          7           0        0.992082    0.611054    0.538697
     18          1           0        0.848624   -0.274011    1.007679
     19          6           0       -0.245738    1.336105    0.233390
     20          1           0       -0.694698    1.628789    1.194089
     21          6           0       -0.075848    2.594988   -0.624030
     22          1           0        0.313522    2.340794   -1.610231
     23          1           0       -1.062218    3.059330   -0.739377
     24          1           0        0.600452    3.310509   -0.155791
     25          6           0       -1.203854    0.363734   -0.492377
     26          8           0       -0.900159   -0.173387   -1.551896
     27          7           0       -2.388676    0.150551    0.138262
     28          1           0       -2.661249    0.660314    0.972815
     29          6           0       -3.450893   -0.637330   -0.460406
     30          1           0       -3.490453   -0.404119   -1.532259
     31          6           0       -3.205938   -2.149703   -0.296926
     32          1           0       -3.178823   -2.421026    0.763504
     33          1           0       -3.992025   -2.736867   -0.784746
     34          1           0       -2.248666   -2.404746   -0.758102
     35          6           0       -4.759582   -0.198553    0.220688
     36          8           0       -4.747938    0.448234    1.266158
     37          7           0       -5.896921   -0.598587   -0.404059
     38          1           0       -5.814799   -1.103332   -1.275392
     39          6           0       -7.226555   -0.316533    0.112940
     40          1           0       -7.105020    0.233670    1.046410
     41          1           0       -7.800602    0.295126   -0.592182
     42          1           0       -7.776731   -1.243653    0.309591
 ---------------------------------------------------------------------

 The electronic state is 1-A.
 Alpha  occ. eigenvalues --  -19.13562 -19.12056 -19.11778 -19.09331 -14.38466
 Alpha  occ. eigenvalues --  -14.37140 -14.36710 -14.34382 -10.30705 -10.29447
 Alpha  occ. eigenvalues --  -10.29056 -10.27335 -10.24996 -10.24752 -10.23463
 Alpha  occ. eigenvalues --  -10.23132 -10.19664 -10.18108 -10.18049 -10.18021
 Alpha  occ. eigenvalues --   -1.05591  -1.04218  -1.03560  -1.01310  -0.94245
 Alpha  occ. eigenvalues --   -0.93367  -0.93071  -0.90899  -0.79899  -0.77797
 Alpha  occ. eigenvalues --   -0.75565  -0.72431  -0.71595  -0.67878  -0.66112
 Alpha  occ. eigenvalues --   -0.63608  -0.60933  -0.58869  -0.57730  -0.56755
 Alpha  occ. eigenvalues --   -0.55744  -0.52555  -0.50825  -0.49397  -0.47987
 Alpha  occ. eigenvalues --   -0.47446  -0.47104  -0.46234  -0.44947  -0.44696
 Alpha  occ. eigenvalues --   -0.44306  -0.43475  -0.42751  -0.41851  -0.41242
 Alpha  occ. eigenvalues --   -0.40988  -0.40974  -0.40409  -0.39081  -0.38733
 Alpha  occ. eigenvalues --   -0.38506  -0.38280  -0.37674  -0.37604  -0.37389
 Alpha  occ. eigenvalues --   -0.36668  -0.36300  -0.35612  -0.33388  -0.27953
 Alpha  occ. eigenvalues --   -0.27690  -0.27132  -0.26008  -0.25771  -0.24739
 Alpha  occ. eigenvalues --   -0.23816  -0.23317
 Alpha virt. eigenvalues --    0.00404   0.01205   0.02845   0.04351   0.05446
 Alpha virt. eigenvalues --    0.06674   0.09056   0.10387   0.10774   0.12466
 Alpha virt. eigenvalues --    0.12956   0.13629   0.14084   0.14461   0.14628

 Mulliken atomic charges:
              1
     1  H    0.181589
     2  C   -0.532798
     3  H    0.148057
     4  H    0.180255
     5  C    0.597001
     6  O   -0.526695
     7  N   -0.604892
     8  H    0.347278
     9  C   -0.035372
    10  H    0.171102
    11  C   -0.443586
    12  H    0.156088
    13  H    0.132361
    14  H    0.191227
    15  C    0.620744
    16  O   -0.531075
    17  N   -0.606496
    18  H    0.332173
    19  C   -0.021487
    20  H    0.141318
    21  C   -0.438837
    22  H    0.193617
    23  H    0.140206
    24  H    0.176379
    25  C    0.589145
    26  O   -0.523044
    27  N   -0.614734
    28  H    0.352946
    29  C   -0.033127
    30  H    0.173042
    31  C   -0.445449
    32  H    0.159652
    33  H    0.138756
    34  H    0.192215
    35  C    0.606038
    36  O   -0.529755
    37  N   -0.592173
    38  H    0.333418
    39  C   -0.314487
    40  H    0.208719
    41  H    0.165795
    42  H    0.164886
 Sum of Mulliken atomic charges =   0.00000

 Dipole moment (field-independent basis, Debye):
    X=             -6.6188    Y=              0.1524    Z=             -0.0027  Tot=              6.6206
 Quadrupole moment (field-independent basis, Debye-Ang):
   XX=            -96.5028   YY=           -126.0145   ZZ=           -121.0227
   XY=             18.8678   XZ=              7.1310   YZ=              2.5622

 Normal termination of Gaussian 09 at Thu Dec 29 02:29:47 2016.
