 Gaussian 09, Revision A.02,
 Gaussian 09:  EM64L-G09RevA.02 11-Jun-2009

 ----------------------------------------------------------------------
 # b3lyp/6-31G* Opt=(ModRedundant, maxcycles=1000, calcfc) geom=nocrowd
 ----------------------------------------------------------------------

 ------------------
 Phi Psi fixed scan
 ------------------
 Symbolic Z-matrix:
 Charge =  0 Multiplicity = 1

 SCF Done:  E(RB3LYP) =  -990.457590425     A.U. after   15 cycles

  Exact polarizability:   0.000   0.000   0.000   0.000   0.000   0.000
 Approx polarizability: 233.464  -9.942 239.675   2.832  27.914 196.013

 SCF Done:  E(RB3LYP) =  -990.470796958     A.U. after   13 cycles
 SCF Done:  E(RB3LYP) =  -990.485728392     A.U. after   13 cycles
 SCF Done:  E(RB3LYP) =  -990.489417246     A.U. after   14 cycles
 SCF Done:  E(RB3LYP) =  -990.486761381     A.U. after   13 cycles
 SCF Done:  E(RB3LYP) =  -990.490087104     A.U. after   13 cycles
 SCF Done:  E(RB3LYP) =  -990.491168177     A.U. after   12 cycles
 SCF Done:  E(RB3LYP) =  -990.492683973     A.U. after   12 cycles
 SCF Done:  E(RB3LYP) =  -990.493323224     A.U. after   13 cycles
 SCF Done:  E(RB3LYP) =  -990.493759145     A.U. after   12 cycles
 SCF Done:  E(RB3LYP) =  -990.494591640     A.U. after   11 cycles
 SCF Done:  E(RB3LYP) =  -990.494534538     A.U. after   13 cycles
 SCF Done:  E(RB3LYP) =  -990.494688219     A.U. after   13 cycles
 SCF Done:  E(RB3LYP) =  -990.494700663     A.U. after   10 cycles
 SCF Done:  E(RB3LYP) =  -990.494726899     A.U. after   10 cycles
 SCF Done:  E(RB3LYP) =  -990.494730956     A.U. after    9 cycles
 SCF Done:  E(RB3LYP) =  -990.494734105     A.U. after   10 cycles
 SCF Done:  E(RB3LYP) =  -990.494734900     A.U. after    9 cycles
 SCF Done:  E(RB3LYP) =  -990.494734916     A.U. after    7 cycles
 SCF Done:  E(RB3LYP) =  -990.494734902     A.U. after    7 cycles
 Optimization completed.
    -- Stationary point found.

                         Standard orientation:
 ---------------------------------------------------------------------
 Center     Atomic      Atomic             Coordinates (Angstroms)
 Number     Number       Type             X           Y           Z
 ---------------------------------------------------------------------
      1          1           0        6.758120   -1.839231   -0.735308
      2          6           0        5.935725   -1.356060   -1.272268
      3          1           0        5.840880   -1.856965   -2.240682
      4          1           0        6.187751   -0.303976   -1.436640
      5          6           0        4.648584   -1.560535   -0.486619
      6          8           0        4.212816   -2.679979   -0.229236
      7          7           0        4.019760   -0.421744   -0.083861
      8          1           0        4.336668    0.501352   -0.357609
      9          6           0        2.751841   -0.449877    0.616604
     10          1           0        2.132972   -1.238002    0.168841
     11          6           0        2.928495   -0.760260    2.116142
     12          1           0        3.533935    0.014918    2.597389
     13          1           0        1.962513   -0.816410    2.630703
     14          1           0        3.433765   -1.723829    2.218226
     15          6           0        2.093180    0.930293    0.401516
     16          8           0        2.760582    1.892663    0.036020
     17          7           0        0.762949    0.948369    0.698968
     18          1           0        0.353025    0.044894    0.896599
     19          6           0       -0.215792    2.048475    0.589837
     20          1           0       -0.674617    2.154298    1.585830
     21          6           0        0.354600    3.402001    0.178895
     22          1           0        0.768412    3.371945   -0.828298
     23          1           0       -0.463786    4.128228    0.191889
     24          1           0        1.134404    3.724242    0.869795
     25          6           0       -1.337922    1.604695   -0.384881
     26          8           0       -1.561776    2.172874   -1.445352
     27          7           0       -2.013935    0.483508    0.010094
     28          1           0       -2.030160    0.189996    0.984437
     29          6           0       -3.141745   -0.025392   -0.753268
     30          1           0       -3.689797    0.827880   -1.174851
     31          6           0       -2.679915   -0.929399   -1.910403
     32          1           0       -2.145115   -1.804313   -1.527031
     33          1           0       -3.525347   -1.276867   -2.514941
     34          1           0       -2.010037   -0.359067   -2.558915
     35          6           0       -4.046252   -0.768380    0.248564
     36          8           0       -3.683861   -0.969473    1.406988
     37          7           0       -5.242475   -1.177302   -0.244327
     38          1           0       -5.469351   -0.953784   -1.202962
     39          6           0       -6.217891   -1.910874    0.546724
     40          1           0       -5.798091   -2.044672    1.544018
     41          1           0       -7.158218   -1.353673    0.624284
     42          1           0       -6.421559   -2.893583    0.106677
 ---------------------------------------------------------------------

 The electronic state is 1-A.
 Alpha  occ. eigenvalues --  -19.13763 -19.12479 -19.12203 -19.09550 -14.38563
 Alpha  occ. eigenvalues --  -14.37370 -14.36582 -14.34617 -10.30853 -10.29625
 Alpha  occ. eigenvalues --  -10.29437 -10.27558 -10.25011 -10.24773 -10.23528
 Alpha  occ. eigenvalues --  -10.23343 -10.19752 -10.18220 -10.18182 -10.17403
 Alpha  occ. eigenvalues --   -1.05782  -1.04426  -1.03959  -1.01532  -0.94384
 Alpha  occ. eigenvalues --   -0.94004  -0.92649  -0.91116  -0.79754  -0.77867
 Alpha  occ. eigenvalues --   -0.75635  -0.72491  -0.71776  -0.68073  -0.65805
 Alpha  occ. eigenvalues --   -0.63606  -0.60919  -0.58909  -0.57712  -0.56946
 Alpha  occ. eigenvalues --   -0.55784  -0.53009  -0.50725  -0.49473  -0.48272
 Alpha  occ. eigenvalues --   -0.47577  -0.47187  -0.46700  -0.45120  -0.44618
 Alpha  occ. eigenvalues --   -0.44390  -0.43639  -0.42911  -0.41630  -0.41416
 Alpha  occ. eigenvalues --   -0.41160  -0.40742  -0.40476  -0.39299  -0.38576
 Alpha  occ. eigenvalues --   -0.38527  -0.38274  -0.37698  -0.37445  -0.37248
 Alpha  occ. eigenvalues --   -0.36663  -0.36448  -0.35849  -0.33611  -0.28691
 Alpha  occ. eigenvalues --   -0.27870  -0.27604  -0.26502  -0.25841  -0.24616
 Alpha  occ. eigenvalues --   -0.23926  -0.23533
 Alpha virt. eigenvalues --    0.00265   0.00994   0.02470   0.04153   0.05241
 Alpha virt. eigenvalues --    0.06048   0.10142   0.10554   0.10783   0.11710
 Alpha virt. eigenvalues --    0.12738   0.13207   0.13737   0.14384   0.14725

 Mulliken atomic charges:
              1
     1  H    0.181183
     2  C   -0.532768
     3  H    0.181186
     4  H    0.148499
     5  C    0.595982
     6  O   -0.526467
     7  N   -0.604298
     8  H    0.346962
     9  C   -0.035530
    10  H    0.167542
    11  C   -0.442278
    12  H    0.157008
    13  H    0.135558
    14  H    0.189532
    15  C    0.614826
    16  O   -0.527759
    17  N   -0.617594
    18  H    0.331867
    19  C   -0.046848
    20  H    0.155234
    21  C   -0.423849
    22  H    0.187903
    23  H    0.148065
    24  H    0.163868
    25  C    0.613433
    26  O   -0.509297
    27  N   -0.630531
    28  H    0.349217
    29  C   -0.038113
    30  H    0.177407
    31  C   -0.443524
    32  H    0.161845
    33  H    0.136197
    34  H    0.191785
    35  C    0.606825
    36  O   -0.532123
    37  N   -0.591512
    38  H    0.334303
    39  C   -0.314734
    40  H    0.209015
    41  H    0.165908
    42  H    0.166074
 Sum of Mulliken atomic charges =   0.00000

 Dipole moment (field-independent basis, Debye):
    X=             -5.5960    Y=             -0.5144    Z=              0.0438  Tot=              5.6197
 Quadrupole moment (field-independent basis, Debye-Ang):
   XX=            -90.5599   YY=           -135.0472   ZZ=           -119.3522
   XY=             14.4617   XZ=              5.5057   YZ=              8.1903

 Normal termination of Gaussian 09 at Thu Dec 29 06:21:06 2016.
