 Gaussian 09, Revision A.02,
 Gaussian 09:  EM64L-G09RevA.02 11-Jun-2009

 ----------------------------------------------------------------------
 # b3lyp/6-31G* Opt=(ModRedundant, maxcycles=1000, calcfc) geom=nocrowd
 ----------------------------------------------------------------------

 ------------------
 Phi Psi fixed scan
 ------------------
 Symbolic Z-matrix:
 Charge =  0 Multiplicity = 1

 SCF Done:  E(RB3LYP) =  -990.456670448     A.U. after   15 cycles

  Exact polarizability:   0.000   0.000   0.000   0.000   0.000   0.000
 Approx polarizability: 234.189   0.998 244.600   1.685  28.873 190.309

 SCF Done:  E(RB3LYP) =  -990.470402359     A.U. after   13 cycles
 SCF Done:  E(RB3LYP) =  -990.486389103     A.U. after   14 cycles
 SCF Done:  E(RB3LYP) =  -990.489716362     A.U. after   13 cycles
 SCF Done:  E(RB3LYP) =  -990.487706560     A.U. after   13 cycles
 SCF Done:  E(RB3LYP) =  -990.490202634     A.U. after   13 cycles
 SCF Done:  E(RB3LYP) =  -990.491346177     A.U. after   12 cycles
 SCF Done:  E(RB3LYP) =  -990.493014562     A.U. after   12 cycles
 SCF Done:  E(RB3LYP) =  -990.493917286     A.U. after   13 cycles
 SCF Done:  E(RB3LYP) =  -990.494430284     A.U. after   12 cycles
 SCF Done:  E(RB3LYP) =  -990.495740481     A.U. after   11 cycles
 SCF Done:  E(RB3LYP) =  -990.495797408     A.U. after   10 cycles
 SCF Done:  E(RB3LYP) =  -990.495829552     A.U. after   10 cycles
 SCF Done:  E(RB3LYP) =  -990.495839959     A.U. after   10 cycles
 SCF Done:  E(RB3LYP) =  -990.495845596     A.U. after   10 cycles
 SCF Done:  E(RB3LYP) =  -990.495847612     A.U. after    9 cycles
 SCF Done:  E(RB3LYP) =  -990.495848143     A.U. after    9 cycles
 SCF Done:  E(RB3LYP) =  -990.495848338     A.U. after    8 cycles
 SCF Done:  E(RB3LYP) =  -990.495848423     A.U. after    7 cycles
 SCF Done:  E(RB3LYP) =  -990.495848492     A.U. after    7 cycles
 Optimization completed.
    -- Stationary point found.

                         Standard orientation:
 ---------------------------------------------------------------------
 Center     Atomic      Atomic             Coordinates (Angstroms)
 Number     Number       Type             X           Y           Z
 ---------------------------------------------------------------------
      1          1           0       -6.467566   -1.992577    1.129603
      2          6           0       -5.491128   -1.760371    1.565828
      3          1           0       -5.221693   -2.593724    2.222314
      4          1           0       -5.575407   -0.847816    2.163846
      5          6           0       -4.463610   -1.666153    0.447543
      6          8           0       -4.254093   -2.596682   -0.326021
      7          7           0       -3.796633   -0.481185    0.360876
      8          1           0       -3.921820    0.264024    1.036108
      9          6           0       -2.741043   -0.262039   -0.606340
     10          1           0       -2.124241   -1.168818   -0.655370
     11          6           0       -3.300652    0.024066   -2.014748
     12          1           0       -3.909601    0.934134   -2.007954
     13          1           0       -2.498401    0.147060   -2.752113
     14          1           0       -3.922093   -0.820648   -2.321172
     15          6           0       -1.898159    0.920690   -0.087931
     16          8           0       -2.329512    1.669820    0.780303
     17          7           0       -0.662100    1.018606   -0.670076
     18          1           0       -0.516525    0.363377   -1.428682
     19          6           0        0.241821    2.188029   -0.708714
     20          1           0        0.484802    2.337389   -1.770979
     21          6           0       -0.350995    3.496161   -0.184732
     22          1           0       -0.597324    3.434487    0.874429
     23          1           0        0.397145    4.278310   -0.327964
     24          1           0       -1.258920    3.756062   -0.735004
     25          6           0        1.608981    1.893797   -0.035937
     26          8           0        2.309344    2.803215    0.398563
     27          7           0        2.030502    0.605204   -0.101165
     28          1           0        1.395889   -0.151213   -0.328678
     29          6           0        3.313451    0.175480    0.423023
     30          1           0        4.081524    0.862633    0.047858
     31          6           0        3.355827    0.177555    1.964417
     32          1           0        2.609460   -0.515474    2.366386
     33          1           0        4.342883   -0.123710    2.333242
     34          1           0        3.140992    1.185920    2.325506
     35          6           0        3.547776   -1.241549   -0.126633
     36          8           0        2.608150   -1.941262   -0.498867
     37          7           0        4.842064   -1.654500   -0.128454
     38          1           0        5.553764   -1.004103    0.173547
     39          6           0        5.247952   -2.987450   -0.543725
     40          1           0        4.345394   -3.531162   -0.824438
     41          1           0        5.922882   -2.942235   -1.405936
     42          1           0        5.749594   -3.518809    0.273057
 ---------------------------------------------------------------------

 The electronic state is 1-A.
 Alpha  occ. eigenvalues --  -19.13086 -19.12976 -19.11483 -19.09802 -14.38111
 Alpha  occ. eigenvalues --  -14.37840 -14.35979 -14.34926 -10.30242 -10.30177
 Alpha  occ. eigenvalues --  -10.28807 -10.27808 -10.24810 -10.24568 -10.23777
 Alpha  occ. eigenvalues --  -10.23154 -10.19023 -10.18679 -10.18416 -10.17428
 Alpha  occ. eigenvalues --   -1.05137  -1.04904  -1.03345  -1.01816  -0.94219
 Alpha  occ. eigenvalues --   -0.93841  -0.92290  -0.91440  -0.79533  -0.77717
 Alpha  occ. eigenvalues --   -0.75780  -0.72080  -0.72051  -0.67705  -0.65965
 Alpha  occ. eigenvalues --   -0.63725  -0.60587  -0.58994  -0.57758  -0.57086
 Alpha  occ. eigenvalues --   -0.55391  -0.53563  -0.49957  -0.48723  -0.48559
 Alpha  occ. eigenvalues --   -0.47895  -0.46764  -0.46121  -0.45287  -0.45046
 Alpha  occ. eigenvalues --   -0.44053  -0.43465  -0.42941  -0.41702  -0.41601
 Alpha  occ. eigenvalues --   -0.40790  -0.40589  -0.40156  -0.39416  -0.38764
 Alpha  occ. eigenvalues --   -0.38443  -0.38292  -0.37888  -0.37270  -0.37023
 Alpha  occ. eigenvalues --   -0.36910  -0.36430  -0.35196  -0.33890  -0.29072
 Alpha  occ. eigenvalues --   -0.27266  -0.27083  -0.26511  -0.25448  -0.24558
 Alpha  occ. eigenvalues --   -0.24126  -0.23792
 Alpha virt. eigenvalues --    0.00879   0.00979   0.02161   0.03822   0.05425
 Alpha virt. eigenvalues --    0.05938   0.09905   0.10893   0.11720   0.12221
 Alpha virt. eigenvalues --    0.12877   0.13280   0.13512   0.14253   0.14892

 Mulliken atomic charges:
              1
     1  H    0.182024
     2  C   -0.533159
     3  H    0.182564
     4  H    0.148438
     5  C    0.597307
     6  O   -0.523849
     7  N   -0.606291
     8  H    0.347250
     9  C   -0.037956
    10  H    0.176094
    11  C   -0.447809
    12  H    0.158018
    13  H    0.131401
    14  H    0.195740
    15  C    0.613827
    16  O   -0.517972
    17  N   -0.633001
    18  H    0.335977
    19  C   -0.061954
    20  H    0.171346
    21  C   -0.434906
    22  H    0.187959
    23  H    0.170831
    24  H    0.147249
    25  C    0.637194
    26  O   -0.530366
    27  N   -0.622890
    28  H    0.346234
    29  C   -0.030143
    30  H    0.165111
    31  C   -0.447933
    32  H    0.162038
    33  H    0.137487
    34  H    0.195355
    35  C    0.608260
    36  O   -0.531785
    37  N   -0.592700
    38  H    0.332103
    39  C   -0.314398
    40  H    0.208925
    41  H    0.164177
    42  H    0.164206
 Sum of Mulliken atomic charges =   0.00000

 Dipole moment (field-independent basis, Debye):
    X=              4.4519    Y=             -0.3704    Z=             -0.7810  Tot=              4.5350
 Quadrupole moment (field-independent basis, Debye-Ang):
   XX=            -93.4049   YY=           -137.9164   ZZ=           -114.0577
   XY=            -20.0577   XZ=             -3.5774   YZ=             -9.6698

 Normal termination of Gaussian 09 at Thu Dec 29 08:00:59 2016.
