 Gaussian 09, Revision A.02,
 Gaussian 09:  EM64L-G09RevA.02 11-Jun-2009

 -------------------
 #SP MP2/aug-cc-pVDZ
 -------------------

 -------------------------------
 Single Point calculation at MP2
 -------------------------------
 Symbolic Z-matrix:
 Charge =  0 Multiplicity = 1

                         Standard orientation:
 ---------------------------------------------------------------------
 Center     Atomic      Atomic             Coordinates (Angstroms)
 Number     Number       Type             X           Y           Z
 ---------------------------------------------------------------------
      1          1           0       -3.445703   -1.862706    0.013995
      2          6           0       -3.046208   -0.948304    0.457895
      3          1           0       -2.956007   -1.112603    1.537995
      4          1           0       -3.749212   -0.125808    0.289995
      5          6           0       -1.662609   -0.688096   -0.118705
      6          8           0       -0.884304   -1.599592   -0.377605
      7          7           0       -1.363516    0.629105   -0.349505
      8          1           0       -2.017820    1.305802    0.022095
      9          6           0       -0.002319    1.144513   -0.563405
     10          1           0        0.215081    1.095014   -1.639805
     11          6           0        0.064873    2.600513   -0.106305
     12          1           0       -0.038527    2.651713    0.981295
     13          1           0        1.031171    3.037118   -0.375105
     14          1           0       -0.721230    3.196409   -0.584805
     15          6           0        1.076285    0.315419    0.183995
     16          8           0        1.277485    0.482720    1.380195
     17          7           0        1.826190   -0.509277   -0.603905
     18          1           0        1.344892   -0.850380   -1.426505
     19          6           0        2.739695   -1.453472    0.025095
     20          1           0        3.302192   -0.931869    0.800895
     21          1           0        2.200800   -2.289475    0.489295
     22          1           0        3.431897   -1.840468   -0.727605
 ---------------------------------------------------------------------

 SCF Done:  E(RHF) =  -492.920758865     A.U. after   15 cycles
 E2 =    -0.1602807356D+01 EUMP2 =    -0.49452356622131D+03

 The electronic state is 1-A.
 Alpha  occ. eigenvalues --  -20.53811 -20.52891 -15.60498 -15.58073 -11.37039
 Alpha  occ. eigenvalues --  -11.35340 -11.29768 -11.25403 -11.25175 -11.24162
 Alpha  occ. eigenvalues --   -1.39390  -1.37824  -1.24477  -1.22118  -1.05882
 Alpha  occ. eigenvalues --   -0.99575  -0.95048  -0.87170  -0.80847  -0.76692
 Alpha  occ. eigenvalues --   -0.70859  -0.69210  -0.67354  -0.63313  -0.61948
 Alpha  occ. eigenvalues --   -0.61513  -0.59709  -0.58426  -0.57477  -0.54543
 Alpha  occ. eigenvalues --   -0.54403  -0.53473  -0.53187  -0.51335  -0.50387
 Alpha  occ. eigenvalues --   -0.43573  -0.43321  -0.40062  -0.38142
 Alpha virt. eigenvalues --    0.02803   0.03922   0.04280   0.04815   0.05583
 Alpha virt. eigenvalues --    0.06202   0.06529   0.06913   0.07411   0.08099
 Alpha virt. eigenvalues --    0.09050   0.09430   0.11032   0.12066   0.12882

 Mulliken atomic charges:
              1
     1  H   -0.002225
     2  C    0.407657
     3  H    0.069517
     4  H   -0.108660
     5  C    0.569177
     6  O   -0.863244
     7  N   -0.522887
     8  H   -0.021719
     9  C    0.147613
    10  H   -0.284826
    11  C    0.656163
    12  H    0.039852
    13  H   -0.076278
    14  H   -0.047470
    15  C    1.077811
    16  O   -0.889830
    17  N   -0.536584
    18  H   -0.005554
    19  C    0.737402
    20  H   -0.115489
    21  H   -0.045716
    22  H   -0.184710
 Sum of Mulliken atomic charges =   0.00000

 Dipole moment (field-independent basis, Debye):
    X=             -2.5559    Y=              1.8100    Z=             -2.0962  Tot=              3.7687
 Quadrupole moment (field-independent basis, Debye-Ang):
   XX=            -52.1301   YY=            -60.7140   ZZ=            -64.6638
   XY=             -4.9665   XZ=             -6.1006   YZ=             -2.1359

 Normal termination of Gaussian 09 at Mon Feb 13 20:01:26 2017.
