 Gaussian 09, Revision A.02,
 Gaussian 09:  EM64L-G09RevA.02 11-Jun-2009

 -------------------
 #SP MP2/aug-cc-pVDZ
 -------------------

 -------------------------------
 Single Point calculation at MP2
 -------------------------------
 Symbolic Z-matrix:
 Charge =  0 Multiplicity = 1

                         Standard orientation:
 ---------------------------------------------------------------------
 Center     Atomic      Atomic             Coordinates (Angstroms)
 Number     Number       Type             X           Y           Z
 ---------------------------------------------------------------------
      1          1           0        3.310487   -1.571233   -0.757990
      2          6           0        3.211094   -0.596032   -0.274490
      3          1           0        3.548700    0.184465   -0.963990
      4          1           0        3.869394   -0.596537    0.601010
      5          6           0        1.770696   -0.428722    0.195210
      6          8           0        1.170489   -1.331217    0.765710
      7          7           0        1.225605    0.805482   -0.041290
      8          1           0        1.796109    1.477878   -0.535390
      9          6           0       -0.126292    1.253892    0.310910
     10          1           0       -0.120489    1.635692    1.338610
     11          6           0       -0.544784    2.388895   -0.633790
     12          1           0       -0.598386    2.038695   -1.669990
     13          1           0       -1.529981    2.762102   -0.341290
     14          1           0        0.163222    3.225490   -0.579290
     15          6           0       -1.235300    0.178000    0.341210
     16          8           0       -2.112399    0.260806    1.189210
     17          7           0       -1.271906   -0.704900   -0.701190
     18          1           0       -0.388208   -0.886606   -1.155590
     19          6           0       -2.211414   -1.817193   -0.670390
     20          1           0       -3.166412   -1.452186   -0.290790
     21          1           0       -2.347017   -2.205592   -1.683790
     22          1           0       -1.862020   -2.625995   -0.015490
 ---------------------------------------------------------------------

 SCF Done:  E(RHF) =  -492.917560246     A.U. after   14 cycles
 E2 =    -0.1603282334D+01 EUMP2 =    -0.49452084257998D+03

 The electronic state is 1-A.
 Alpha  occ. eigenvalues --  -20.54068 -20.52587 -15.61246 -15.58120 -11.37552
 Alpha  occ. eigenvalues --  -11.35435 -11.29740 -11.25838 -11.25545 -11.24945
 Alpha  occ. eigenvalues --   -1.39672  -1.37808  -1.25190  -1.21947  -1.06361
 Alpha  occ. eigenvalues --   -1.00124  -0.94755  -0.88240  -0.81639  -0.77328
 Alpha  occ. eigenvalues --   -0.70707  -0.69642  -0.67520  -0.62854  -0.62282
 Alpha  occ. eigenvalues --   -0.62054  -0.59750  -0.58464  -0.58092  -0.56029
 Alpha  occ. eigenvalues --   -0.55077  -0.53935  -0.53687  -0.51801  -0.50114
 Alpha  occ. eigenvalues --   -0.43527  -0.42333  -0.40594  -0.38275
 Alpha virt. eigenvalues --    0.02236   0.03770   0.04009   0.04669   0.05701
 Alpha virt. eigenvalues --    0.05985   0.06196   0.06776   0.07323   0.08271
 Alpha virt. eigenvalues --    0.08466   0.09509   0.11511   0.11674   0.12283

 Mulliken atomic charges:
              1
     1  H    0.020672
     2  C    0.423527
     3  H   -0.160708
     4  H    0.064905
     5  C    0.428412
     6  O   -0.829640
     7  N   -0.396358
     8  H   -0.054043
     9  C    0.406295
    10  H   -0.198970
    11  C    0.580278
    12  H   -0.002654
    13  H   -0.053724
    14  H   -0.094382
    15  C    0.997346
    16  O   -0.923899
    17  N   -0.515309
    18  H   -0.045989
    19  C    0.721092
    20  H   -0.120349
    21  H   -0.183729
    22  H   -0.062772
 Sum of Mulliken atomic charges =   0.00000

 Dipole moment (field-independent basis, Debye):
    X=              4.1611    Y=              2.2144    Z=             -4.3520  Tot=              6.4155
 Quadrupole moment (field-independent basis, Debye-Ang):
   XX=            -58.8853   YY=            -58.1148   ZZ=            -65.0328
   XY=              5.2312   XZ=              2.7712   YZ=              2.8088

 Normal termination of Gaussian 09 at Mon Feb 13 21:21:59 2017.
