 Gaussian 09, Revision A.02,
 Gaussian 09:  EM64L-G09RevA.02 11-Jun-2009

 -------------------
 #SP MP2/aug-cc-pVDZ
 -------------------

 -------------------------------
 Single Point calculation at MP2
 -------------------------------
 Symbolic Z-matrix:
 Charge =  0 Multiplicity = 1

                         Standard orientation:
 ---------------------------------------------------------------------
 Center     Atomic      Atomic             Coordinates (Angstroms)
 Number     Number       Type             X           Y           Z
 ---------------------------------------------------------------------
      1          1           0       -3.951509   -0.936816   -0.302995
      2          6           0       -3.316010   -0.405414    0.410705
      3          1           0       -3.387709   -0.933814    1.367005
      4          1           0       -3.697013    0.612085    0.540605
      5          6           0       -1.874810   -0.482610   -0.077795
      6          8           0       -1.398407   -1.577308   -0.386195
      7          7           0       -1.238414    0.717692   -0.163495
      8          1           0       -1.796016    1.493091    0.166805
      9          6           0        0.160685    1.140197   -0.439195
     10          1           0        0.253085    1.240097   -1.532095
     11          6           0        0.335281    2.533297    0.174205
     12          1           0        0.220781    2.493797    1.263405
     13          1           0        1.336180    2.901700   -0.045995
     14          1           0       -0.403821    3.231595   -0.236895
     15          6           0        1.381588    0.248200   -0.051395
     16          8           0        2.457486    0.813604    0.144705
     17          7           0        1.244492   -1.088900   -0.032995
     18          1           0        0.331893   -1.498303   -0.243795
     19          6           0        2.396194   -1.936397    0.225105
     20          1           0        3.144094   -1.849594   -0.572095
     21          1           0        2.880193   -1.656395    1.166305
     22          1           0        2.057097   -2.972998    0.287305
 ---------------------------------------------------------------------

 SCF Done:  E(RHF) =  -492.913961386     A.U. after   14 cycles
 E2 =    -0.1604985143D+01 EUMP2 =    -0.49451894652863D+03

 The electronic state is 1-A.
 Alpha  occ. eigenvalues --  -20.54874 -20.51869 -15.61880 -15.57138 -11.38576
 Alpha  occ. eigenvalues --  -11.35267 -11.30636 -11.26071 -11.25504 -11.23941
 Alpha  occ. eigenvalues --   -1.40252  -1.37347  -1.25598  -1.21603  -1.06431
 Alpha  occ. eigenvalues --   -1.00113  -0.95135  -0.87686  -0.82097  -0.77252
 Alpha  occ. eigenvalues --   -0.71581  -0.69888  -0.67618  -0.63202  -0.62379
 Alpha  occ. eigenvalues --   -0.61097  -0.59881  -0.59594  -0.58045  -0.55544
 Alpha  occ. eigenvalues --   -0.54059  -0.53549  -0.53252  -0.52307  -0.49939
 Alpha  occ. eigenvalues --   -0.44260  -0.43173  -0.39971  -0.37608
 Alpha virt. eigenvalues --    0.02417   0.04036   0.04459   0.04484   0.05665
 Alpha virt. eigenvalues --    0.06294   0.06462   0.06571   0.07246   0.07916
 Alpha virt. eigenvalues --    0.09385   0.09674   0.11563   0.11886   0.12661

 Mulliken atomic charges:
              1
     1  H    0.038594
     2  C    0.421232
     3  H    0.043943
     4  H   -0.194654
     5  C    0.554260
     6  O   -0.934071
     7  N   -0.546190
     8  H   -0.004098
     9  C    0.267238
    10  H   -0.006654
    11  C    0.662120
    12  H   -0.035364
    13  H   -0.099207
    14  H   -0.043418
    15  C    0.666450
    16  O   -0.834709
    17  N   -0.302675
    18  H   -0.027455
    19  C    0.702868
    20  H   -0.042248
    21  H   -0.067740
    22  H   -0.218222
 Sum of Mulliken atomic charges =   0.00000

 Dipole moment (field-independent basis, Debye):
    X=             -4.4803    Y=              1.4415    Z=              0.4758  Tot=              4.7305
 Quadrupole moment (field-independent basis, Debye-Ang):
   XX=            -62.5753   YY=            -60.6930   ZZ=            -60.9499
   XY=            -10.1748   XZ=             -3.2432   YZ=             -2.1184

 Normal termination of Gaussian 09 at Mon Feb 13 21:03:09 2017.
