 Gaussian 09, Revision A.02,
 Gaussian 09:  EM64L-G09RevA.02 11-Jun-2009

 -------------------
 #SP MP2/aug-cc-pVDZ
 -------------------

 -------------------------------
 Single Point calculation at MP2
 -------------------------------
 Symbolic Z-matrix:
 Charge =  0 Multiplicity = 1

                         Standard orientation:
 ---------------------------------------------------------------------
 Center     Atomic      Atomic             Coordinates (Angstroms)
 Number     Number       Type             X           Y           Z
 ---------------------------------------------------------------------
      1          1           0       -3.527304   -1.739496    0.164606
      2          6           0       -3.057502   -0.842597    0.573606
      3          1           0       -2.915502   -0.999497    1.649406
      4          1           0       -3.725900    0.013304    0.434806
      5          6           0       -1.697501   -0.659900   -0.084594
      6          8           0       -1.000404   -1.621702   -0.394894
      7          7           0       -1.342099    0.639399   -0.333094
      8          1           0       -1.957497    1.334500    0.070506
      9          6           0        0.027102    1.140396   -0.576494
     10          1           0        0.217702    1.065396   -1.656094
     11          6           0        0.098406    2.606696   -0.159194
     12          1           0        0.021906    2.693296    0.928206
     13          1           0        1.057307    3.037794   -0.458694
     14          1           0       -0.700393    3.184298   -0.638794
     15          6           0        1.150601    0.333194    0.138606
     16          8           0        1.586202    0.695893    1.225606
     17          7           0        1.667898   -0.707207   -0.574494
     18          1           0        0.993397   -1.157106   -1.184294
     19          6           0        2.631397   -1.594810    0.062506
     20          1           0        3.372198   -0.990811    0.588606
     21          1           0        2.153495   -2.265709    0.788406
     22          1           0        3.128595   -2.192711   -0.705894
 ---------------------------------------------------------------------

 SCF Done:  E(RHF) =  -492.918084709     A.U. after   14 cycles
 E2 =    -0.1603101887D+01 EUMP2 =    -0.49452118659599D+03

 The electronic state is 1-A.
 Alpha  occ. eigenvalues --  -20.54288 -20.53082 -15.60912 -15.57685 -11.37558
 Alpha  occ. eigenvalues --  -11.35388 -11.29951 -11.25513 -11.25364 -11.24048
 Alpha  occ. eigenvalues --   -1.39698  -1.37995  -1.24792  -1.21959  -1.06022
 Alpha  occ. eigenvalues --   -0.99799  -0.95067  -0.87173  -0.81132  -0.76376
 Alpha  occ. eigenvalues --   -0.71150  -0.69389  -0.67463  -0.63567  -0.62111
 Alpha  occ. eigenvalues --   -0.61572  -0.59828  -0.58766  -0.57586  -0.54604
 Alpha  occ. eigenvalues --   -0.54279  -0.53399  -0.53084  -0.51117  -0.51056
 Alpha  occ. eigenvalues --   -0.44207  -0.43772  -0.40199  -0.37869
 Alpha virt. eigenvalues --    0.02742   0.04003   0.04325   0.04806   0.05598
 Alpha virt. eigenvalues --    0.06105   0.06536   0.06861   0.07438   0.08121
 Alpha virt. eigenvalues --    0.09112   0.09718   0.10953   0.11919   0.12912

 Mulliken atomic charges:
              1
     1  H   -0.005128
     2  C    0.407266
     3  H    0.061077
     4  H   -0.105591
     5  C    0.571440
     6  O   -0.848779
     7  N   -0.603365
     8  H   -0.017338
     9  C    0.242594
    10  H   -0.234672
    11  C    0.687806
    12  H    0.039876
    13  H   -0.103279
    14  H   -0.042382
    15  C    0.925938
    16  O   -0.861295
    17  N   -0.550257
    18  H    0.042796
    19  C    0.757553
    20  H   -0.123441
    21  H   -0.061256
    22  H   -0.179565
 Sum of Mulliken atomic charges =   0.00000

 Dipole moment (field-independent basis, Debye):
    X=             -3.0902    Y=              1.4576    Z=             -1.4342  Tot=              3.7056
 Quadrupole moment (field-independent basis, Debye-Ang):
   XX=            -54.5552   YY=            -60.8974   ZZ=            -64.4696
   XY=             -6.0764   XZ=             -6.5813   YZ=             -3.0310

 Normal termination of Gaussian 09 at Mon Feb 13 22:15:18 2017.
