 Gaussian 09, Revision A.02,
 Gaussian 09:  EM64L-G09RevA.02 11-Jun-2009

 -------------------------------------------------------------------
 # HF/6-31G* Opt=(ModRedundant, maxcycles=1000, calcfc) geom=nocrowd
 -------------------------------------------------------------------

 ------------------
 Phi Psi fixed scan
 ------------------
 Symbolic Z-matrix:
 Charge =  0 Multiplicity = 1

 SCF Done:  E(RHF) =  -984.512582258     A.U. after   15 cycles

  Exact polarizability:   0.000   0.000   0.000   0.000   0.000   0.000
 Approx polarizability: 134.761  -5.072 134.853  -1.907  -9.327 119.428

 SCF Done:  E(RHF) =  -984.528262605     A.U. after   16 cycles
 SCF Done:  E(RHF) =  -984.546078267     A.U. after   16 cycles
 SCF Done:  E(RHF) =  -984.549046672     A.U. after   16 cycles
 SCF Done:  E(RHF) =  -984.545284415     A.U. after   15 cycles
 SCF Done:  E(RHF) =  -984.551066812     A.U. after   13 cycles
 SCF Done:  E(RHF) =  -984.553268303     A.U. after   16 cycles
 SCF Done:  E(RHF) =  -984.555250978     A.U. after   16 cycles
 SCF Done:  E(RHF) =  -984.556262192     A.U. after   15 cycles
 SCF Done:  E(RHF) =  -984.523971633     A.U. after   16 cycles
 SCF Done:  E(RHF) =  -984.556955035     A.U. after   10 cycles
 SCF Done:  E(RHF) =  -984.556955502     A.U. after    9 cycles
 SCF Done:  E(RHF) =  -984.556955603     A.U. after    7 cycles
 SCF Done:  E(RHF) =  -984.556955659     A.U. after    7 cycles
 SCF Done:  E(RHF) =  -984.556955708     A.U. after    7 cycles
 SCF Done:  E(RHF) =  -984.556955754     A.U. after    7 cycles
 SCF Done:  E(RHF) =  -984.556955818     A.U. after    7 cycles
 SCF Done:  E(RHF) =  -984.556955940     A.U. after    8 cycles
 SCF Done:  E(RHF) =  -984.556956047     A.U. after    8 cycles
 SCF Done:  E(RHF) =  -984.556956071     A.U. after    7 cycles
 Optimization completed.
    -- Stationary point found.

                         Standard orientation:
 ---------------------------------------------------------------------
 Center     Atomic      Atomic             Coordinates (Angstroms)
 Number     Number       Type             X           Y           Z
 ---------------------------------------------------------------------
      1          1           0       -5.896332   -2.650220    1.177733
      2          6           0       -4.977316   -2.187672    1.511198
      3          1           0       -4.396528   -2.938698    2.036141
      4          1           0       -5.203781   -1.381406    2.198383
      5          6           0       -4.193455   -1.733482    0.299228
      6          8           0       -4.120244   -2.405487   -0.696244
      7          7           0       -3.565912   -0.545140    0.418894
      8          1           0       -3.623022   -0.011946    1.257164
      9          6           0       -2.719170   -0.017598   -0.621421
     10          1           0       -2.137500   -0.832796   -1.034323
     11          6           0       -3.531139    0.637683   -1.748237
     12          1           0       -4.110922    1.468430   -1.360748
     13          1           0       -2.888205    1.005845   -2.541837
     14          1           0       -4.205403   -0.095534   -2.169333
     15          6           0       -1.788081    1.010719    0.020746
     16          8           0       -2.076077    1.542308    1.057518
     17          7           0       -0.652021    1.246363   -0.683046
     18          1           0       -0.577795    0.742505   -1.539212
     19          6           0        0.280272    2.368415   -0.573082
     20          1           0        0.384694    2.775191   -1.574001
     21          6           0       -0.165137    3.517199    0.333852
     22          1           0       -0.224076    3.217115    1.368696
     23          1           0        0.561600    4.310813    0.233586
     24          1           0       -1.136988    3.884928    0.032505
     25          6           0        1.703411    1.930487   -0.206357
     26          8           0        2.578181    2.756858   -0.144923
     27          7           0        1.919115    0.618400   -0.035588
     28          1           0        1.159983   -0.024214   -0.021191
     29          6           0        3.221543    0.089268    0.288949
     30          1           0        3.956101    0.618578   -0.304544
     31          6           0        3.565532    0.255108    1.775481
     32          1           0        2.845796   -0.274818    2.389748
     33          1           0        4.555474   -0.131327    1.994802
     34          1           0        3.542032    1.305696    2.032748
     35          6           0        3.211808   -1.388986   -0.090227
     36          8           0        2.184187   -2.013639   -0.148062
     37          7           0        4.416988   -1.944681   -0.304939
     38          1           0        5.219555   -1.360032   -0.335875
     39          6           0        4.560251   -3.344598   -0.649622
     40          1           0        3.993514   -3.954659    0.038825
     41          1           0        4.209311   -3.545225   -1.655237
     42          1           0        5.605820   -3.612404   -0.580635
 ---------------------------------------------------------------------

 The electronic state is 1-A.
 Alpha  occ. eigenvalues --  -20.54356 -20.53845 -20.52382 -20.51507 -15.60599
 Alpha  occ. eigenvalues --  -15.60021 -15.58621 -15.57937 -11.36570 -11.35807
 Alpha  occ. eigenvalues --  -11.34898 -11.34349 -11.29235 -11.28658 -11.28391
 Alpha  occ. eigenvalues --  -11.26817 -11.22776 -11.22767 -11.22690 -11.21728
 Alpha  occ. eigenvalues --   -1.41358  -1.40850  -1.39327  -1.38416  -1.26237
 Alpha  occ. eigenvalues --   -1.24774  -1.23861  -1.23515  -1.07483  -1.05127
 Alpha  occ. eigenvalues --   -1.02987  -0.98736  -0.96826  -0.92046  -0.89971
 Alpha  occ. eigenvalues --   -0.87292  -0.81468  -0.79786  -0.78998  -0.78275
 Alpha  occ. eigenvalues --   -0.75078  -0.73328  -0.69037  -0.67772  -0.66812
 Alpha  occ. eigenvalues --   -0.66625  -0.64899  -0.64669  -0.63495  -0.63274
 Alpha  occ. eigenvalues --   -0.61749  -0.61379  -0.60287  -0.59298  -0.58930
 Alpha  occ. eigenvalues --   -0.57962  -0.56759  -0.56616  -0.56545  -0.55799
 Alpha  occ. eigenvalues --   -0.54864  -0.54511  -0.53718  -0.53545  -0.52875
 Alpha  occ. eigenvalues --   -0.52474  -0.52071  -0.49813  -0.49560  -0.44878
 Alpha  occ. eigenvalues --   -0.43284  -0.42951  -0.41278  -0.40664  -0.39365
 Alpha  occ. eigenvalues --   -0.38885  -0.38422
 Alpha virt. eigenvalues --    0.17910   0.18338   0.19491   0.20655   0.20970
 Alpha virt. eigenvalues --    0.21331   0.24109   0.25705   0.26814   0.27037
 Alpha virt. eigenvalues --    0.27894   0.28746   0.29023   0.29625   0.30992

 Mulliken atomic charges:
              1
     1  H    0.207705
     2  C   -0.575933
     3  H    0.204463
     4  H    0.173035
     5  C    0.756851
     6  O   -0.620866
     7  N   -0.824117
     8  H    0.419337
     9  C   -0.039769
    10  H    0.222361
    11  C   -0.488614
    12  H    0.178561
    13  H    0.152914
    14  H    0.218439
    15  C    0.794741
    16  O   -0.617523
    17  N   -0.868539
    18  H    0.394495
    19  C   -0.013979
    20  H    0.211595
    21  C   -0.489201
    22  H    0.204399
    23  H    0.201812
    24  H    0.179191
    25  C    0.787176
    26  O   -0.637451
    27  N   -0.837339
    28  H    0.432539
    29  C   -0.033096
    30  H    0.213230
    31  C   -0.487898
    32  H    0.181509
    33  H    0.160804
    34  H    0.212188
    35  C    0.778806
    36  O   -0.630502
    37  N   -0.800138
    38  H    0.390215
    39  C   -0.273019
    40  H    0.204341
    41  H    0.184816
    42  H    0.172461
 Sum of Mulliken atomic charges =   0.00000

 Dipole moment (field-independent basis, Debye):
    X=              3.1904    Y=             -0.4123    Z=             -0.4044  Tot=              3.2423
 Quadrupole moment (field-independent basis, Debye-Ang):
   XX=           -100.2995   YY=           -135.7665   ZZ=           -116.1063
   XY=            -21.9951   XZ=             -7.6181   YZ=             -9.4630

 Normal termination of Gaussian 09 at Mon Dec 26 12:54:26 2016.
