 Gaussian 09, Revision A.02,
 Gaussian 09:  EM64L-G09RevA.02 11-Jun-2009

 -------------------------------------------------------------------
 # HF/6-31G* Opt=(ModRedundant, maxcycles=1000, calcfc) geom=nocrowd
 -------------------------------------------------------------------

 ------------------
 Phi Psi fixed scan
 ------------------
 Symbolic Z-matrix:
 Charge =  0 Multiplicity = 1

 SCF Done:  E(RHF) =  -984.507030398     A.U. after   15 cycles

  Exact polarizability:   0.000   0.000   0.000   0.000   0.000   0.000
 Approx polarizability: 129.637  -1.149 128.726   0.315  16.247 130.637

 SCF Done:  E(RHF) =  -984.524037341     A.U. after   13 cycles
 SCF Done:  E(RHF) =  -984.543429533     A.U. after   14 cycles
 SCF Done:  E(RHF) =  -984.549332842     A.U. after   15 cycles
 SCF Done:  E(RHF) =  -984.547071733     A.U. after   15 cycles
 SCF Done:  E(RHF) =  -984.551837875     A.U. after   13 cycles
 SCF Done:  E(RHF) =  -984.554030259     A.U. after   15 cycles
 SCF Done:  E(RHF) =  -984.555270377     A.U. after   15 cycles
 SCF Done:  E(RHF) =  -984.555442194     A.U. after   13 cycles
 SCF Done:  E(RHF) =  -984.555255784     A.U. after   12 cycles
 SCF Done:  E(RHF) =  -984.556087197     A.U. after   11 cycles
 SCF Done:  E(RHF) =  -984.556087881     A.U. after    9 cycles
 SCF Done:  E(RHF) =  -984.556088696     A.U. after    8 cycles
 SCF Done:  E(RHF) =  -984.556091096     A.U. after   10 cycles
 SCF Done:  E(RHF) =  -984.556091969     A.U. after    9 cycles
 SCF Done:  E(RHF) =  -984.556093984     A.U. after   10 cycles
 SCF Done:  E(RHF) =  -984.556094716     A.U. after    9 cycles
 SCF Done:  E(RHF) =  -984.556094799     A.U. after    8 cycles
 SCF Done:  E(RHF) =  -984.556094837     A.U. after    8 cycles
 SCF Done:  E(RHF) =  -984.556094843     A.U. after    6 cycles
 Optimization completed.
    -- Stationary point found.

                         Standard orientation:
 ---------------------------------------------------------------------
 Center     Atomic      Atomic             Coordinates (Angstroms)
 Number     Number       Type             X           Y           Z
 ---------------------------------------------------------------------
      1          1           0        5.029979    3.713848   -0.193119
      2          6           0        5.124840    2.813173    0.398801
      3          1           0        4.636545    2.954233    1.355371
      4          1           0        6.181637    2.637727    0.568605
      5          6           0        4.564967    1.651551   -0.393767
      6          8           0        4.817435    1.505754   -1.561774
      7          7           0        3.790673    0.790238    0.295475
      8          1           0        3.575696    0.941421    1.255237
      9          6           0        3.187885   -0.366770   -0.319432
     10          1           0        2.853415   -0.087907   -1.310621
     11          6           0        4.173158   -1.537707   -0.436770
     12          1           0        4.511654   -1.845034    0.546945
     13          1           0        3.716780   -2.391090   -0.927329
     14          1           0        5.028354   -1.223741   -1.020358
     15          6           0        1.987396   -0.766890    0.540764
     16          8           0        1.927151   -0.442650    1.698570
     17          7           0        1.079023   -1.520832   -0.107794
     18          1           0        1.200779   -1.629531   -1.090636
     19          6           0       -0.170114   -2.106767    0.372744
     20          1           0       -0.147505   -3.152590    0.085898
     21          6           0       -0.391115   -2.045953    1.880663
     22          1           0       -0.453485   -1.037231    2.260129
     23          1           0       -1.308136   -2.577628    2.114125
     24          1           0        0.422474   -2.533954    2.397884
     25          6           0       -1.274058   -1.504329   -0.508425
     26          8           0       -1.208547   -1.669226   -1.702932
     27          7           0       -2.245176   -0.793767    0.077160
     28          1           0       -2.261952   -0.638849    1.060240
     29          6           0       -3.290824   -0.150196   -0.685195
     30          1           0       -2.848557    0.272133   -1.578768
     31          6           0       -4.397782   -1.132280   -1.090320
     32          1           0       -4.864235   -1.557597   -0.208539
     33          1           0       -5.162676   -0.638406   -1.680270
     34          1           0       -3.969491   -1.929890   -1.682595
     35          6           0       -3.862869    0.963074    0.188154
     36          8           0       -3.763953    0.929861    1.387455
     37          7           0       -4.513766    1.940348   -0.465559
     38          1           0       -4.470139    1.968773   -1.457710
     39          6           0       -5.116433    3.055486    0.236720
     40          1           0       -4.365660    3.724582    0.640746
     41          1           0       -5.741734    3.602461   -0.455657
     42          1           0       -5.726012    2.692112    1.051270
 ---------------------------------------------------------------------

 The electronic state is 1-A.
 Alpha  occ. eigenvalues --  -20.54161 -20.53405 -20.53027 -20.51189 -15.60247
 Alpha  occ. eigenvalues --  -15.59721 -15.59370 -15.57601 -11.36124 -11.35864
 Alpha  occ. eigenvalues --  -11.35466 -11.34084 -11.29247 -11.29048 -11.27803
 Alpha  occ. eigenvalues --  -11.26970 -11.23150 -11.22696 -11.22610 -11.22079
 Alpha  occ. eigenvalues --   -1.41237  -1.40539  -1.39799  -1.38072  -1.25104
 Alpha  occ. eigenvalues --   -1.25023  -1.24800  -1.23210  -1.07824  -1.05255
 Alpha  occ. eigenvalues --   -1.02734  -0.98458  -0.97035  -0.92233  -0.90219
 Alpha  occ. eigenvalues --   -0.87650  -0.81794  -0.79842  -0.78857  -0.77808
 Alpha  occ. eigenvalues --   -0.75156  -0.73072  -0.68387  -0.67901  -0.67297
 Alpha  occ. eigenvalues --   -0.66247  -0.65075  -0.64516  -0.64315  -0.62897
 Alpha  occ. eigenvalues --   -0.61810  -0.60976  -0.60584  -0.59884  -0.58538
 Alpha  occ. eigenvalues --   -0.57388  -0.56731  -0.56560  -0.56452  -0.55990
 Alpha  occ. eigenvalues --   -0.54954  -0.54695  -0.54012  -0.53842  -0.53310
 Alpha  occ. eigenvalues --   -0.52701  -0.52238  -0.50702  -0.49275  -0.44242
 Alpha  occ. eigenvalues --   -0.43396  -0.42295  -0.40998  -0.40956  -0.39442
 Alpha  occ. eigenvalues --   -0.39231  -0.37900
 Alpha virt. eigenvalues --    0.17473   0.18952   0.20295   0.20622   0.21543
 Alpha virt. eigenvalues --    0.22383   0.24271   0.24589   0.25782   0.27287
 Alpha virt. eigenvalues --    0.28009   0.28596   0.29093   0.29482   0.30504

 Mulliken atomic charges:
              1
     1  H    0.206451
     2  C   -0.575314
     3  H    0.172655
     4  H    0.202101
     5  C    0.756244
     6  O   -0.623145
     7  N   -0.824420
     8  H    0.418849
     9  C   -0.034724
    10  H    0.219256
    11  C   -0.485561
    12  H    0.175147
    13  H    0.161660
    14  H    0.211273
    15  C    0.794658
    16  O   -0.637155
    17  N   -0.838518
    18  H    0.410449
    19  C   -0.004215
    20  H    0.210091
    21  C   -0.512518
    22  H    0.207877
    23  H    0.167915
    24  H    0.204236
    25  C    0.786008
    26  O   -0.647972
    27  N   -0.843688
    28  H    0.440439
    29  C   -0.030349
    30  H    0.215066
    31  C   -0.486932
    32  H    0.180841
    33  H    0.162732
    34  H    0.211343
    35  C    0.775941
    36  O   -0.628250
    37  N   -0.799388
    38  H    0.390786
    39  C   -0.273955
    40  H    0.186403
    41  H    0.173426
    42  H    0.204259
 Sum of Mulliken atomic charges =   0.00000

 Dipole moment (field-independent basis, Debye):
    X=             -4.0055    Y=              0.6373    Z=              0.2587  Tot=              4.0642
 Quadrupole moment (field-independent basis, Debye-Ang):
   XX=           -112.0532   YY=           -107.5615   ZZ=           -134.2705
   XY=            -11.1047   XZ=             21.0027   YZ=             -2.8778

 Normal termination of Gaussian 09 at Mon Dec 26 13:23:08 2016.
