 Gaussian 09, Revision A.02,
 Gaussian 09:  EM64L-G09RevA.02 11-Jun-2009

 -------------------------------------------------------------------
 # HF/6-31G* Opt=(ModRedundant, maxcycles=1000, calcfc) geom=nocrowd
 -------------------------------------------------------------------

 ------------------
 Phi Psi fixed scan
 ------------------
 Symbolic Z-matrix:
 Charge =  0 Multiplicity = 1

 SCF Done:  E(RHF) =  -984.514395822     A.U. after   15 cycles

  Exact polarizability:   0.000   0.000   0.000   0.000   0.000   0.000
 Approx polarizability: 133.040  -3.210 138.641   1.110  -5.171 116.867

 SCF Done:  E(RHF) =  -984.528923961     A.U. after   13 cycles
 SCF Done:  E(RHF) =  -984.544746642     A.U. after   14 cycles
 SCF Done:  E(RHF) =  -984.548345399     A.U. after   13 cycles
 SCF Done:  E(RHF) =  -984.542481653     A.U. after   14 cycles
 SCF Done:  E(RHF) =  -984.550476594     A.U. after   13 cycles
 SCF Done:  E(RHF) =  -984.552463340     A.U. after   13 cycles
 SCF Done:  E(RHF) =  -984.553404282     A.U. after   16 cycles
 SCF Done:  E(RHF) =  -984.554561370     A.U. after   15 cycles
 SCF Done:  E(RHF) =  -984.360078131     A.U. after   15 cycles
 SCF Done:  E(RHF) =  -984.556560479     A.U. after   12 cycles
 SCF Done:  E(RHF) =  -984.556561977     A.U. after   11 cycles
 SCF Done:  E(RHF) =  -984.556563027     A.U. after   10 cycles
 SCF Done:  E(RHF) =  -984.556563966     A.U. after    9 cycles
 SCF Done:  E(RHF) =  -984.556565414     A.U. after   10 cycles
 SCF Done:  E(RHF) =  -984.556566877     A.U. after   11 cycles
 SCF Done:  E(RHF) =  -984.556567711     A.U. after   11 cycles
 SCF Done:  E(RHF) =  -984.556567958     A.U. after   10 cycles
 SCF Done:  E(RHF) =  -984.556568030     A.U. after    8 cycles
 SCF Done:  E(RHF) =  -984.556568043     A.U. after    6 cycles
 Optimization completed.
    -- Stationary point found.

                         Standard orientation:
 ---------------------------------------------------------------------
 Center     Atomic      Atomic             Coordinates (Angstroms)
 Number     Number       Type             X           Y           Z
 ---------------------------------------------------------------------
      1          1           0        7.142365   -1.615310   -1.260348
      2          6           0        6.107554   -1.541070   -1.568157
      3          1           0        5.800334   -2.514819   -1.933423
      4          1           0        6.020345   -0.821435   -2.373048
      5          6           0        5.265715   -1.193874   -0.358855
      6          8           0        5.398204   -1.775063    0.687098
      7          7           0        4.358248   -0.214077   -0.537383
      8          1           0        4.242654    0.228208   -1.421179
      9          6           0        3.435310    0.180754    0.498654
     10          1           0        3.093751   -0.711002    1.009494
     11          6           0        4.087480    1.123056    1.519745
     12          1           0        4.417553    2.034735    1.033118
     13          1           0        3.396366    1.386040    2.313222
     14          1           0        4.944108    0.629593    1.958889
     15          6           0        2.248763    0.866894   -0.183455
     16          8           0        2.354726    1.309802   -1.297125
     17          7           0        1.156224    0.967508    0.604992
     18          1           0        1.164700    0.373144    1.404481
     19          6           0       -0.189710    1.398141    0.265768
     20          1           0       -0.464523    2.185813    0.964086
     21          6           0       -0.366007    1.956457   -1.150276
     22          1           0       -0.201960    1.201112   -1.905352
     23          1           0       -1.370289    2.348198   -1.260723
     24          1           0        0.328213    2.762293   -1.328152
     25          6           0       -1.138529    0.225707    0.572963
     26          8           0       -0.733354   -0.795181    1.068841
     27          7           0       -2.440092    0.437828    0.320547
     28          1           0       -2.763511    1.272898   -0.113665
     29          6           0       -3.448253   -0.564125    0.580379
     30          1           0       -3.045508   -1.531690    0.308356
     31          6           0       -3.867756   -0.592911    2.055876
     32          1           0       -4.288863    0.363410    2.346057
     33          1           0       -4.608003   -1.364629    2.238873
     34          1           0       -3.001156   -0.797342    2.670448
     35          6           0       -4.646070   -0.234819   -0.307123
     36          8           0       -4.819699    0.877113   -0.735506
     37          7           0       -5.500097   -1.246984   -0.533449
     38          1           0       -5.251790   -2.162820   -0.239043
     39          6           0       -6.686685   -1.075034   -1.347471
     40          1           0       -7.235795   -0.204016   -1.020337
     41          1           0       -6.436481   -0.950890   -2.394590
     42          1           0       -7.312368   -1.949851   -1.234857
 ---------------------------------------------------------------------

 The electronic state is 1-A.
 Alpha  occ. eigenvalues --  -20.54385 -20.53855 -20.53258 -20.50837 -15.60450
 Alpha  occ. eigenvalues --  -15.59353 -15.58947 -15.57233 -11.36340 -11.35914
 Alpha  occ. eigenvalues --  -11.35537 -11.33746 -11.29429 -11.29262 -11.27391
 Alpha  occ. eigenvalues --  -11.27156 -11.23335 -11.22767 -11.22335 -11.21679
 Alpha  occ. eigenvalues --   -1.41527  -1.40749  -1.39987  -1.37725  -1.25263
 Alpha  occ. eigenvalues --   -1.25106  -1.24621  -1.22851  -1.07920  -1.05154
 Alpha  occ. eigenvalues --   -1.02475  -0.98121  -0.97216  -0.92183  -0.90160
 Alpha  occ. eigenvalues --   -0.87315  -0.81971  -0.80041  -0.78444  -0.77211
 Alpha  occ. eigenvalues --   -0.75461  -0.72277  -0.69067  -0.68468  -0.66857
 Alpha  occ. eigenvalues --   -0.65957  -0.65274  -0.64618  -0.63968  -0.62729
 Alpha  occ. eigenvalues --   -0.61902  -0.60966  -0.60647  -0.60076  -0.58498
 Alpha  occ. eigenvalues --   -0.57161  -0.56965  -0.56919  -0.56180  -0.56055
 Alpha  occ. eigenvalues --   -0.54946  -0.54665  -0.53953  -0.53589  -0.53170
 Alpha  occ. eigenvalues --   -0.52640  -0.51911  -0.50815  -0.48865  -0.44155
 Alpha  occ. eigenvalues --   -0.43404  -0.42017  -0.41232  -0.40654  -0.40053
 Alpha  occ. eigenvalues --   -0.39404  -0.37573
 Alpha virt. eigenvalues --    0.17525   0.19290   0.19330   0.20407   0.21765
 Alpha virt. eigenvalues --    0.22902   0.24506   0.24719   0.25716   0.27232
 Alpha virt. eigenvalues --    0.28424   0.28561   0.28839   0.29800   0.30167

 Mulliken atomic charges:
              1
     1  H    0.205066
     2  C   -0.574618
     3  H    0.202371
     4  H    0.171271
     5  C    0.757320
     6  O   -0.623755
     7  N   -0.825947
     8  H    0.418989
     9  C   -0.035070
    10  H    0.222500
    11  C   -0.483228
    12  H    0.172781
    13  H    0.161470
    14  H    0.211385
    15  C    0.786859
    16  O   -0.635173
    17  N   -0.823034
    18  H    0.409148
    19  C   -0.026345
    20  H    0.206357
    21  C   -0.488928
    22  H    0.198301
    23  H    0.159052
    24  H    0.215704
    25  C    0.785784
    26  O   -0.638003
    27  N   -0.843577
    28  H    0.433080
    29  C   -0.031303
    30  H    0.215601
    31  C   -0.485700
    32  H    0.180401
    33  H    0.162615
    34  H    0.209634
    35  C    0.777511
    36  O   -0.631107
    37  N   -0.799360
    38  H    0.391235
    39  C   -0.273831
    40  H    0.204105
    41  H    0.186460
    42  H    0.173977
 Sum of Mulliken atomic charges =   0.00000

 Dipole moment (field-independent basis, Debye):
    X=             -5.3860    Y=             -0.3374    Z=             -0.6122  Tot=              5.4312
 Quadrupole moment (field-independent basis, Debye-Ang):
   XX=           -111.0336   YY=           -121.5475   ZZ=           -120.2850
   XY=             24.5815   XZ=            -10.9485   YZ=             11.5942

 Normal termination of Gaussian 09 at Mon Dec 26 13:05:59 2016.
