 Gaussian 09, Revision A.02,
 Gaussian 09:  EM64L-G09RevA.02 11-Jun-2009

 -------------------------------------------------------------------
 # HF/6-31G* Opt=(ModRedundant, maxcycles=1000, calcfc) geom=nocrowd
 -------------------------------------------------------------------

 ------------------
 Phi Psi fixed scan
 ------------------
 Symbolic Z-matrix:
 Charge =  0 Multiplicity = 1

 SCF Done:  E(RHF) =  -984.513331915     A.U. after   15 cycles

  Exact polarizability:   0.000   0.000   0.000   0.000   0.000   0.000
 Approx polarizability: 133.566   4.055 127.519  -2.754  -1.549 127.855

 SCF Done:  E(RHF) =  -984.527531527     A.U. after   13 cycles
 SCF Done:  E(RHF) =  -984.542731594     A.U. after   15 cycles
 SCF Done:  E(RHF) =  -984.546554757     A.U. after   13 cycles
 SCF Done:  E(RHF) =  -984.539163474     A.U. after   14 cycles
 SCF Done:  E(RHF) =  -984.548432450     A.U. after   13 cycles
 SCF Done:  E(RHF) =  -984.550269678     A.U. after   14 cycles
 SCF Done:  E(RHF) =  -984.551261016     A.U. after   15 cycles
 SCF Done:  E(RHF) =  -984.552003734     A.U. after   15 cycles
 SCF Done:  E(RHF) =  -984.552490012     A.U. after   12 cycles
 SCF Done:  E(RHF) =  -984.552996175     A.U. after   15 cycles
 SCF Done:  E(RHF) =  -984.553183420     A.U. after   12 cycles
 SCF Done:  E(RHF) =  -984.553260135     A.U. after   12 cycles
 SCF Done:  E(RHF) =  -984.553286540     A.U. after   11 cycles
 SCF Done:  E(RHF) =  -984.553287522     A.U. after   11 cycles
 SCF Done:  E(RHF) =  -984.553293655     A.U. after   11 cycles
 SCF Done:  E(RHF) =  -984.553293974     A.U. after    8 cycles
 SCF Done:  E(RHF) =  -984.553294081     A.U. after    8 cycles
 SCF Done:  E(RHF) =  -984.553294121     A.U. after    7 cycles
 SCF Done:  E(RHF) =  -984.553294146     A.U. after    7 cycles
 Optimization completed.
    -- Stationary point found.

                         Standard orientation:
 ---------------------------------------------------------------------
 Center     Atomic      Atomic             Coordinates (Angstroms)
 Number     Number       Type             X           Y           Z
 ---------------------------------------------------------------------
      1          1           0        7.378020   -1.237999   -0.771668
      2          6           0        6.449581   -0.921811   -1.228206
      3          1           0        6.243208   -1.588402   -2.058598
      4          1           0        6.557040    0.086455   -1.609223
      5          6           0        5.336578   -1.060510   -0.212234
      6          8           0        5.243588   -2.031494    0.493515
      7          7           0        4.453949   -0.042850   -0.166600
      8          1           0        4.527009    0.733982   -0.784402
      9          6           0        3.294569   -0.070111    0.690121
     10          1           0        2.897526   -1.077537    0.691467
     11          6           0        3.635856    0.335594    2.130668
     12          1           0        4.020737    1.349334    2.154420
     13          1           0        2.764789    0.282559    2.776108
     14          1           0        4.390203   -0.335955    2.518207
     15          6           0        2.264355    0.893332    0.096163
     16          8           0        2.608556    1.785649   -0.631117
     17          7           0        0.999775    0.661575    0.509909
     18          1           0        0.874693   -0.149993    1.072599
     19          6           0       -0.236547    1.352499    0.171429
     20          1           0       -0.673786    1.694717    1.105234
     21          6           0       -0.096578    2.560328   -0.754928
     22          1           0        0.295754    2.270851   -1.716859
     23          1           0       -1.084580    2.990470   -0.889729
     24          1           0        0.551625    3.309513   -0.325902
     25          6           0       -1.187558    0.339295   -0.478131
     26          8           0       -0.891300   -0.246443   -1.484549
     27          7           0       -2.356964    0.156165    0.162158
     28          1           0       -2.597005    0.687474    0.969728
     29          6           0       -3.397987   -0.694068   -0.366177
     30          1           0       -3.421133   -0.576261   -1.442511
     31          6           0       -3.155060   -2.171518   -0.030448
     32          1           0       -3.142656   -2.316557    1.044285
     33          1           0       -3.926884   -2.805805   -0.453941
     34          1           0       -2.201026   -2.477032   -0.439049
     35          6           0       -4.719872   -0.218780    0.233617
     36          8           0       -4.744034    0.426068    1.250603
     37          7           0       -5.821444   -0.596291   -0.438531
     38          1           0       -5.708783   -1.114114   -1.279767
     39          6           0       -7.167775   -0.305689    0.008705
     40          1           0       -7.108325    0.341234    0.868570
     41          1           0       -7.724665    0.195661   -0.773963
     42          1           0       -7.690833   -1.214402    0.285348
 ---------------------------------------------------------------------

 The electronic state is 1-A.
 Alpha  occ. eigenvalues --  -20.54316 -20.53306 -20.52991 -20.51080 -15.60540
 Alpha  occ. eigenvalues --  -15.59915 -15.59393 -15.57461 -11.36525 -11.35771
 Alpha  occ. eigenvalues --  -11.35220 -11.33950 -11.29260 -11.29165 -11.27758
 Alpha  occ. eigenvalues --  -11.27056 -11.23383 -11.22433 -11.22141 -11.22043
 Alpha  occ. eigenvalues --   -1.41369  -1.40480  -1.39763  -1.37957  -1.25347
 Alpha  occ. eigenvalues --   -1.25269  -1.24690  -1.23093  -1.07777  -1.05314
 Alpha  occ. eigenvalues --   -1.02748  -0.98333  -0.97318  -0.92185  -0.90041
 Alpha  occ. eigenvalues --   -0.87040  -0.81721  -0.79731  -0.78924  -0.77942
 Alpha  occ. eigenvalues --   -0.75332  -0.72364  -0.69872  -0.68329  -0.66921
 Alpha  occ. eigenvalues --   -0.65977  -0.65203  -0.64453  -0.63585  -0.62437
 Alpha  occ. eigenvalues --   -0.61980  -0.61578  -0.60720  -0.59939  -0.58811
 Alpha  occ. eigenvalues --   -0.57529  -0.57183  -0.56567  -0.56341  -0.55087
 Alpha  occ. eigenvalues --   -0.54697  -0.54480  -0.54044  -0.53407  -0.53099
 Alpha  occ. eigenvalues --   -0.52584  -0.52219  -0.50836  -0.49134  -0.44105
 Alpha  occ. eigenvalues --   -0.43666  -0.41985  -0.41019  -0.40884  -0.39655
 Alpha  occ. eigenvalues --   -0.39181  -0.37829
 Alpha virt. eigenvalues --    0.17522   0.18680   0.20237   0.20659   0.21327
 Alpha virt. eigenvalues --    0.21588   0.24188   0.24590   0.25839   0.27574
 Alpha virt. eigenvalues --    0.28251   0.28451   0.29565   0.29757   0.30373

 Mulliken atomic charges:
              1
     1  H    0.205754
     2  C   -0.575168
     3  H    0.203679
     4  H    0.172885
     5  C    0.756860
     6  O   -0.624687
     7  N   -0.823015
     8  H    0.420194
     9  C   -0.035640
    10  H    0.216288
    11  C   -0.484640
    12  H    0.177430
    13  H    0.154297
    14  H    0.212861
    15  C    0.804737
    16  O   -0.629738
    17  N   -0.831263
    18  H    0.390266
    19  C   -0.010043
    20  H    0.187224
    21  C   -0.485192
    22  H    0.220320
    23  H    0.160252
    24  H    0.200051
    25  C    0.765564
    26  O   -0.619323
    27  N   -0.831683
    28  H    0.424952
    29  C   -0.037025
    30  H    0.217699
    31  C   -0.486152
    32  H    0.179400
    33  H    0.159904
    34  H    0.212758
    35  C    0.781037
    36  O   -0.634119
    37  N   -0.799092
    38  H    0.389443
    39  C   -0.290698
    40  H    0.230644
    41  H    0.176807
    42  H    0.176172
 Sum of Mulliken atomic charges =   0.00000

 Dipole moment (field-independent basis, Debye):
    X=             -5.3839    Y=              0.2451    Z=             -0.2362  Tot=              5.3947
 Quadrupole moment (field-independent basis, Debye-Ang):
   XX=            -98.8008   YY=           -127.6867   ZZ=           -122.9058
   XY=             18.2444   XZ=              5.7998   YZ=              4.1819

 Normal termination of Gaussian 09 at Mon Dec 26 12:25:01 2016.
