 Gaussian 09, Revision A.02,
 Gaussian 09:  EM64L-G09RevA.02 11-Jun-2009

 -------------------------------------------------------------------
 # HF/6-31G* Opt=(ModRedundant, maxcycles=1000, calcfc) geom=nocrowd
 -------------------------------------------------------------------

 ------------------
 Phi Psi fixed scan
 ------------------
 Symbolic Z-matrix:
 Charge =  0 Multiplicity = 1

 SCF Done:  E(RHF) =  -984.510568373     A.U. after   15 cycles

  Exact polarizability:   0.000   0.000   0.000   0.000   0.000   0.000
 Approx polarizability: 132.221  -5.880 132.167   0.229   8.083 124.608

 SCF Done:  E(RHF) =  -984.525419924     A.U. after   13 cycles
 SCF Done:  E(RHF) =  -984.541661492     A.U. after   14 cycles
 SCF Done:  E(RHF) =  -984.545600359     A.U. after   13 cycles
 SCF Done:  E(RHF) =  -984.541801804     A.U. after   14 cycles
 SCF Done:  E(RHF) =  -984.547905514     A.U. after   13 cycles
 SCF Done:  E(RHF) =  -984.549811193     A.U. after   13 cycles
 SCF Done:  E(RHF) =  -984.551566799     A.U. after   16 cycles
 SCF Done:  E(RHF) =  -984.552094844     A.U. after   15 cycles
 SCF Done:  E(RHF) =  -984.552004056     A.U. after   14 cycles
 SCF Done:  E(RHF) =  -984.552730762     A.U. after    9 cycles
 SCF Done:  E(RHF) =  -984.552731041     A.U. after    9 cycles
 SCF Done:  E(RHF) =  -984.552731141     A.U. after    7 cycles
 SCF Done:  E(RHF) =  -984.552731492     A.U. after    8 cycles
 SCF Done:  E(RHF) =  -984.552732411     A.U. after    9 cycles
 SCF Done:  E(RHF) =  -984.552733254     A.U. after   10 cycles
 SCF Done:  E(RHF) =  -984.552733583     A.U. after    8 cycles
 SCF Done:  E(RHF) =  -984.552733649     A.U. after    7 cycles
 SCF Done:  E(RHF) =  -984.552733662     A.U. after    6 cycles
 SCF Done:  E(RHF) =  -984.552733666     A.U. after    6 cycles
 Optimization completed.
    -- Stationary point found.

                         Standard orientation:
 ---------------------------------------------------------------------
 Center     Atomic      Atomic             Coordinates (Angstroms)
 Number     Number       Type             X           Y           Z
 ---------------------------------------------------------------------
      1          1           0        6.986512   -1.763453   -0.783888
      2          6           0        6.151839   -1.220874   -1.207258
      3          1           0        5.912288   -1.672388   -2.163972
      4          1           0        6.435034   -0.188236   -1.370815
      5          6           0        4.957632   -1.374066   -0.290538
      6          8           0        4.671961   -2.434448    0.202947
      7          7           0        4.229604   -0.258437   -0.084114
      8          1           0        4.462889    0.601740   -0.527101
      9          6           0        3.021604   -0.265097    0.702858
     10          1           0        2.489750   -1.185779    0.498246
     11          6           0        3.315219   -0.181298    2.207141
     12          1           0        3.836846    0.741246    2.437532
     13          1           0        2.402364   -0.216795    2.793461
     14          1           0        3.938037   -1.018252    2.493423
     15          6           0        2.179593    0.933273    0.258900
     16          8           0        2.695582    1.885647   -0.259810
     17          7           0        0.864474    0.810487    0.544893
     18          1           0        0.590050   -0.054865    0.953757
     19          6           0       -0.235648    1.752047    0.335549
     20          1           0       -0.703828    1.902235    1.304466
     21          6           0        0.150069    3.116239   -0.222867
     22          1           0        0.565596    3.032405   -1.213281
     23          1           0       -0.750201    3.720579   -0.271352
     24          1           0        0.865416    3.609789    0.418469
     25          6           0       -1.243470    1.057437   -0.590913
     26          8           0       -1.157408    1.111496   -1.787220
     27          7           0       -2.194030    0.341455    0.044082
     28          1           0       -2.321226    0.407858    1.030027
     29          6           0       -3.225008   -0.371364   -0.673831
     30          1           0       -3.525602    0.227208   -1.525469
     31          6           0       -2.734415   -1.736504   -1.173050
     32          1           0       -2.448225   -2.363964   -0.335914
     33          1           0       -3.503545   -2.250265   -1.739853
     34          1           0       -1.875685   -1.593067   -1.815426
     35          6           0       -4.408146   -0.535186    0.277552
     36          8           0       -4.277448   -0.414851    1.468899
     37          7           0       -5.579182   -0.853387   -0.298615
     38          1           0       -5.647144   -0.848867   -1.289761
     39          6           0       -6.784587   -1.047665    0.482003
     40          1           0       -6.593841   -1.734864    1.293720
     41          1           0       -7.142841   -0.113767    0.898870
     42          1           0       -7.548292   -1.463723   -0.160660
 ---------------------------------------------------------------------

 The electronic state is 1-A.
 Alpha  occ. eigenvalues --  -20.54471 -20.53494 -20.53155 -20.51264 -15.60466
 Alpha  occ. eigenvalues --  -15.60227 -15.59348 -15.57661 -11.36401 -11.35972
 Alpha  occ. eigenvalues --  -11.35270 -11.34133 -11.29261 -11.29152 -11.27971
 Alpha  occ. eigenvalues --  -11.27201 -11.23324 -11.22582 -11.22320 -11.21509
 Alpha  occ. eigenvalues --   -1.41479  -1.40636  -1.39896  -1.38143  -1.25668
 Alpha  occ. eigenvalues --   -1.25265  -1.24469  -1.23280  -1.07682  -1.05354
 Alpha  occ. eigenvalues --   -1.02793  -0.98490  -0.97228  -0.92329  -0.89970
 Alpha  occ. eigenvalues --   -0.86998  -0.81699  -0.79730  -0.79056  -0.78142
 Alpha  occ. eigenvalues --   -0.75239  -0.72585  -0.69798  -0.68282  -0.67165
 Alpha  occ. eigenvalues --   -0.66121  -0.65328  -0.64634  -0.64003  -0.62671
 Alpha  occ. eigenvalues --   -0.62194  -0.61147  -0.60970  -0.59362  -0.58959
 Alpha  occ. eigenvalues --   -0.57714  -0.57009  -0.56820  -0.56510  -0.54935
 Alpha  occ. eigenvalues --   -0.54571  -0.54389  -0.53893  -0.53507  -0.52794
 Alpha  occ. eigenvalues --   -0.52567  -0.52031  -0.51063  -0.49331  -0.44704
 Alpha  occ. eigenvalues --   -0.43781  -0.42270  -0.41226  -0.41060  -0.39548
 Alpha  occ. eigenvalues --   -0.39116  -0.37996
 Alpha virt. eigenvalues --    0.17315   0.18372   0.20033   0.20670   0.20910
 Alpha virt. eigenvalues --    0.21676   0.24261   0.24585   0.25563   0.27197
 Alpha virt. eigenvalues --    0.27788   0.28377   0.29008   0.29438   0.30611

 Mulliken atomic charges:
              1
     1  H    0.206407
     2  C   -0.575210
     3  H    0.203581
     4  H    0.173461
     5  C    0.756234
     6  O   -0.624467
     7  N   -0.822507
     8  H    0.420211
     9  C   -0.036559
    10  H    0.214989
    11  C   -0.484909
    12  H    0.178493
    13  H    0.154749
    14  H    0.212760
    15  C    0.802232
    16  O   -0.624911
    17  N   -0.838151
    18  H    0.391063
    19  C   -0.019733
    20  H    0.186551
    21  C   -0.475710
    22  H    0.224553
    23  H    0.159472
    24  H    0.190463
    25  C    0.780179
    26  O   -0.614137
    27  N   -0.840662
    28  H    0.422574
    29  C   -0.033072
    30  H    0.217272
    31  C   -0.484580
    32  H    0.177560
    33  H    0.161176
    34  H    0.213324
    35  C    0.776257
    36  O   -0.632492
    37  N   -0.799039
    38  H    0.391849
    39  C   -0.273017
    40  H    0.203308
    41  H    0.186317
    42  H    0.174119
 Sum of Mulliken atomic charges =   0.00000

 Dipole moment (field-independent basis, Debye):
    X=             -4.9372    Y=              0.0554    Z=             -0.0266  Tot=              4.9376
 Quadrupole moment (field-independent basis, Debye-Ang):
   XX=            -92.5951   YY=           -132.0295   ZZ=           -124.3921
   XY=             12.9752   XZ=              7.1946   YZ=              8.9244

 Normal termination of Gaussian 09 at Mon Dec 26 15:12:37 2016.
