 Gaussian 09, Revision A.02,
 Gaussian 09:  EM64L-G09RevA.02 11-Jun-2009

 -------------------------------------------------------------------
 # HF/6-31G* Opt=(ModRedundant, maxcycles=1000, calcfc) geom=nocrowd
 -------------------------------------------------------------------

 ------------------
 Phi Psi fixed scan
 ------------------
 Symbolic Z-matrix:
 Charge =  0 Multiplicity = 1

 SCF Done:  E(RHF) =  -984.508396315     A.U. after   15 cycles

  Exact polarizability:   0.000   0.000   0.000   0.000   0.000   0.000
 Approx polarizability: 131.387  -3.638 137.054   1.846  11.618 120.213

 SCF Done:  E(RHF) =  -984.523796672     A.U. after   13 cycles
 SCF Done:  E(RHF) =  -984.540955114     A.U. after   14 cycles
 SCF Done:  E(RHF) =  -984.544439950     A.U. after   14 cycles
 SCF Done:  E(RHF) =  -984.539424647     A.U. after   14 cycles
 SCF Done:  E(RHF) =  -984.546531498     A.U. after   13 cycles
 SCF Done:  E(RHF) =  -984.548571339     A.U. after   13 cycles
 SCF Done:  E(RHF) =  -984.550264429     A.U. after   13 cycles
 SCF Done:  E(RHF) =  -984.550973733     A.U. after   16 cycles
 SCF Done:  E(RHF) =  -984.393556397     A.U. after   16 cycles
 SCF Done:  E(RHF) =  -984.551508910     A.U. after    8 cycles
 SCF Done:  E(RHF) =  -984.551508409     A.U. after   10 cycles
 SCF Done:  E(RHF) =  -984.551508091     A.U. after   10 cycles
 SCF Done:  E(RHF) =  -984.551508695     A.U. after    9 cycles
 SCF Done:  E(RHF) =  -984.551501015     A.U. after   11 cycles
 SCF Done:  E(RHF) =  -984.551498615     A.U. after   11 cycles
 SCF Done:  E(RHF) =  -984.551504775     A.U. after   11 cycles
 SCF Done:  E(RHF) =  -984.551509448     A.U. after   10 cycles
 SCF Done:  E(RHF) =  -984.551509520     A.U. after    8 cycles
 SCF Done:  E(RHF) =  -984.551509538     A.U. after    7 cycles
 Optimization completed on the basis of negligible forces.
    -- Stationary point found.

                         Standard orientation:
 ---------------------------------------------------------------------
 Center     Atomic      Atomic             Coordinates (Angstroms)
 Number     Number       Type             X           Y           Z
 ---------------------------------------------------------------------
      1          1           0        6.657154   -1.731910   -0.750838
      2          6           0        5.776696   -1.538359   -1.353836
      3          1           0        5.712116   -2.315692   -2.103690
      4          1           0        5.889244   -0.575940   -1.837847
      5          6           0        4.555741   -1.622083   -0.463705
      6          8           0        4.156772   -2.675069   -0.037622
      7          7           0        3.963515   -0.448153   -0.166680
      8          1           0        4.292883    0.409916   -0.548247
      9          6           0        2.790490   -0.368602    0.667799
     10          1           0        2.149256   -1.207427    0.428043
     11          6           0        3.140638   -0.418625    2.161437
     12          1           0        3.774353    0.420374    2.427581
     13          1           0        2.249277   -0.387210    2.779992
     14          1           0        3.669271   -1.339066    2.370761
     15          6           0        2.080367    0.945334    0.333510
     16          8           0        2.689367    1.865656   -0.140845
     17          7           0        0.767513    0.951577    0.654287
     18          1           0        0.408442    0.089161    0.995360
     19          6           0       -0.214368    2.035905    0.565269
     20          1           0       -0.652379    2.131454    1.556771
     21          6           0        0.334067    3.398585    0.164388
     22          1           0        0.729052    3.393147   -0.837788
     23          1           0       -0.481785    4.109857    0.209143
     24          1           0        1.112052    3.711752    0.845680
     25          6           0       -1.345533    1.594548   -0.378338
     26          8           0       -1.602630    2.173531   -1.397005
     27          7           0       -2.008870    0.482089    0.013621
     28          1           0       -1.933557    0.140039    0.946876
     29          6           0       -3.128478   -0.040006   -0.735727
     30          1           0       -3.696962    0.791368   -1.136386
     31          6           0       -2.666564   -0.931790   -1.894942
     32          1           0       -2.118771   -1.788429   -1.517994
     33          1           0       -3.506548   -1.290678   -2.480185
     34          1           0       -2.018055   -0.360371   -2.545671
     35          6           0       -4.003793   -0.819081    0.244650
     36          8           0       -3.600802   -1.134165    1.335636
     37          7           0       -5.228386   -1.145465   -0.199535
     38          1           0       -5.537177   -0.788927   -1.073816
     39          6           0       -6.165020   -1.885037    0.622718
     40          1           0       -5.694564   -2.776337    1.012598
     41          1           0       -6.517228   -1.289164    1.456344
     42          1           0       -7.009592   -2.170584    0.010808
 ---------------------------------------------------------------------

 The electronic state is 1-A.
 Alpha  occ. eigenvalues --  -20.54540 -20.53592 -20.53584 -20.51334 -15.60466
 Alpha  occ. eigenvalues --  -15.60293 -15.59056 -15.57771 -11.36439 -11.36067
 Alpha  occ. eigenvalues --  -11.35436 -11.34224 -11.29314 -11.29111 -11.28060
 Alpha  occ. eigenvalues --  -11.27202 -11.23230 -11.22676 -11.22379 -11.21218
 Alpha  occ. eigenvalues --   -1.41551  -1.40726  -1.40163  -1.38226  -1.25996
 Alpha  occ. eigenvalues --   -1.25279  -1.24132  -1.23367  -1.07579  -1.05300
 Alpha  occ. eigenvalues --   -1.02836  -0.98577  -0.97189  -0.92290  -0.89869
 Alpha  occ. eigenvalues --   -0.86975  -0.81735  -0.79895  -0.78944  -0.78084
 Alpha  occ. eigenvalues --   -0.75366  -0.72725  -0.69490  -0.68307  -0.67427
 Alpha  occ. eigenvalues --   -0.66257  -0.65395  -0.64841  -0.64205  -0.62797
 Alpha  occ. eigenvalues --   -0.62391  -0.61106  -0.60925  -0.59182  -0.58718
 Alpha  occ. eigenvalues --   -0.57714  -0.57020  -0.56657  -0.56589  -0.55175
 Alpha  occ. eigenvalues --   -0.54330  -0.54276  -0.53733  -0.53652  -0.52817
 Alpha  occ. eigenvalues --   -0.52517  -0.52044  -0.51014  -0.49457  -0.45182
 Alpha  occ. eigenvalues --   -0.43794  -0.42405  -0.41316  -0.41133  -0.39715
 Alpha  occ. eigenvalues --   -0.38980  -0.38062
 Alpha virt. eigenvalues --    0.17444   0.18361   0.19972   0.20333   0.20561
 Alpha virt. eigenvalues --    0.21495   0.24200   0.25317   0.25786   0.26756
 Alpha virt. eigenvalues --    0.27743   0.28396   0.28802   0.29498   0.30679

 Mulliken atomic charges:
              1
     1  H    0.202473
     2  C   -0.575294
     3  H    0.207145
     4  H    0.173743
     5  C    0.756518
     6  O   -0.623947
     7  N   -0.823437
     8  H    0.419719
     9  C   -0.037802
    10  H    0.216046
    11  C   -0.485522
    12  H    0.178274
    13  H    0.156673
    14  H    0.212417
    15  C    0.800008
    16  O   -0.624884
    17  N   -0.840909
    18  H    0.392411
    19  C   -0.040785
    20  H    0.193163
    21  C   -0.461484
    22  H    0.215575
    23  H    0.169293
    24  H    0.184094
    25  C    0.795481
    26  O   -0.608019
    27  N   -0.845175
    28  H    0.417257
    29  C   -0.036009
    30  H    0.217420
    31  C   -0.480886
    32  H    0.179573
    33  H    0.157602
    34  H    0.212820
    35  C    0.776472
    36  O   -0.634813
    37  N   -0.798789
    38  H    0.392381
    39  C   -0.272557
    40  H    0.203023
    41  H    0.186621
    42  H    0.174108
 Sum of Mulliken atomic charges =   0.00000

 Dipole moment (field-independent basis, Debye):
    X=             -4.4737    Y=             -0.1451    Z=              0.1448  Tot=              4.4784
 Quadrupole moment (field-independent basis, Debye-Ang):
   XX=            -88.9381   YY=           -139.3325   ZZ=           -120.5909
   XY=             11.6330   XZ=              4.0398   YZ=             11.4436

 Normal termination of Gaussian 09 at Mon Dec 26 17:54:57 2016.
