 Gaussian 09, Revision A.02,
 Gaussian 09:  EM64L-G09RevA.02 11-Jun-2009

 -------------------------------------------------------------------
 # HF/6-31G* Opt=(ModRedundant, maxcycles=1000, calcfc) geom=nocrowd
 -------------------------------------------------------------------

 ------------------
 Phi Psi fixed scan
 ------------------
 Symbolic Z-matrix:
 Charge =  0 Multiplicity = 1

 SCF Done:  E(RHF) =  -984.507283224     A.U. after   15 cycles

  Exact polarizability:   0.000   0.000   0.000   0.000   0.000   0.000
 Approx polarizability: 132.583   0.624 138.264   1.260  12.051 117.761

 SCF Done:  E(RHF) =  -984.523248411     A.U. after   13 cycles
 SCF Done:  E(RHF) =  -984.541543404     A.U. after   14 cycles
 SCF Done:  E(RHF) =  -984.544476697     A.U. after   13 cycles
 SCF Done:  E(RHF) =  -984.540919776     A.U. after   14 cycles
 SCF Done:  E(RHF) =  -984.546480210     A.U. after   13 cycles
 SCF Done:  E(RHF) =  -984.548854345     A.U. after   13 cycles
 SCF Done:  E(RHF) =  -984.551011981     A.U. after   13 cycles
 SCF Done:  E(RHF) =  -984.552413768     A.U. after   15 cycles
 SCF Done:  E(RHF) =  -984.547130204     A.U. after   15 cycles
 SCF Done:  E(RHF) =  -984.553296475     A.U. after   10 cycles
 SCF Done:  E(RHF) =  -984.553300315     A.U. after   10 cycles
 SCF Done:  E(RHF) =  -984.553307405     A.U. after   11 cycles
 SCF Done:  E(RHF) =  -984.553309414     A.U. after   10 cycles
 SCF Done:  E(RHF) =  -984.553309813     A.U. after    9 cycles
 SCF Done:  E(RHF) =  -984.553309855     A.U. after    7 cycles
 SCF Done:  E(RHF) =  -984.553309891     A.U. after    7 cycles
 SCF Done:  E(RHF) =  -984.553309902     A.U. after    7 cycles
 SCF Done:  E(RHF) =  -984.553309905     A.U. after    5 cycles
 SCF Done:  E(RHF) =  -984.553309914     A.U. after    5 cycles
 Optimization completed.
    -- Stationary point found.

                         Standard orientation:
 ---------------------------------------------------------------------
 Center     Atomic      Atomic             Coordinates (Angstroms)
 Number     Number       Type             X           Y           Z
 ---------------------------------------------------------------------
      1          1           0       -6.253422   -2.395205    1.189457
      2          6           0       -5.361151   -1.907949    1.559064
      3          1           0       -4.896952   -2.568630    2.283343
      4          1           0       -5.630707   -0.982984    2.054197
      5          6           0       -4.402549   -1.709750    0.405179
      6          8           0       -4.208257   -2.572265   -0.411174
      7          7           0       -3.768053   -0.519892    0.366862
      8          1           0       -3.926040    0.173538    1.062900
      9          6           0       -2.775093   -0.212450   -0.631655
     10          1           0       -2.166132   -1.093972   -0.790594
     11          6           0       -3.410877    0.202567   -1.966610
     12          1           0       -4.015040    1.093756   -1.835509
     13          1           0       -2.658414    0.403877   -2.723116
     14          1           0       -4.041820   -0.600899   -2.321533
     15          6           0       -1.909967    0.922946   -0.084681
     16          8           0       -2.318884    1.650449    0.776845
     17          7           0       -0.678381    1.007156   -0.652464
     18          1           0       -0.536911    0.372406   -1.407355
     19          6           0        0.228649    2.160257   -0.675068
     20          1           0        0.489774    2.306638   -1.720055
     21          6           0       -0.355636    3.475638   -0.166656
     22          1           0       -0.562320    3.446255    0.890975
     23          1           0        0.366503    4.256023   -0.359143
     24          1           0       -1.274511    3.706612   -0.689977
     25          6           0        1.573128    1.852150    0.001425
     26          8           0        2.257819    2.738663    0.439174
     27          7           0        1.991248    0.573422   -0.061438
     28          1           0        1.350901   -0.159331   -0.265992
     29          6           0        3.259997    0.154956    0.486016
     30          1           0        4.008245    0.877343    0.186451
     31          6           0        3.242006    0.055508    2.017689
     32          1           0        2.503712   -0.671343    2.338522
     33          1           0        4.211003   -0.247672    2.400826
     34          1           0        2.992588    1.020536    2.437776
     35          6           0        3.573436   -1.209589   -0.120745
     36          8           0        2.693593   -1.948726   -0.481155
     37          7           0        4.874557   -1.542135   -0.174550
     38          1           0        5.557459   -0.856579    0.050128
     39          6           0        5.314221   -2.819565   -0.697830
     40          1           0        4.749279   -3.619899   -0.242142
     41          1           0        5.184178   -2.875763   -1.772358
     42          1           0        6.361883   -2.947839   -0.461960
 ---------------------------------------------------------------------

 The electronic state is 1-A.
 Alpha  occ. eigenvalues --  -20.54421 -20.53839 -20.52850 -20.51569 -15.60633
 Alpha  occ. eigenvalues --  -15.60066 -15.58543 -15.58027 -11.36558 -11.35810
 Alpha  occ. eigenvalues --  -11.35037 -11.34427 -11.29368 -11.28647 -11.28461
 Alpha  occ. eigenvalues --  -11.26854 -11.22838 -11.22803 -11.22696 -11.21378
 Alpha  occ. eigenvalues --   -1.41412  -1.40865  -1.39634  -1.38488  -1.26200
 Alpha  occ. eigenvalues --   -1.24804  -1.23867  -1.23572  -1.07472  -1.05119
 Alpha  occ. eigenvalues --   -1.02923  -0.98809  -0.96862  -0.92080  -0.89979
 Alpha  occ. eigenvalues --   -0.87094  -0.81550  -0.79930  -0.79001  -0.78032
 Alpha  occ. eigenvalues --   -0.75008  -0.73195  -0.68966  -0.67680  -0.67301
 Alpha  occ. eigenvalues --   -0.66663  -0.64985  -0.64580  -0.63890  -0.63326
 Alpha  occ. eigenvalues --   -0.61603  -0.61401  -0.60510  -0.59349  -0.59156
 Alpha  occ. eigenvalues --   -0.58070  -0.56841  -0.56581  -0.55932  -0.55684
 Alpha  occ. eigenvalues --   -0.54765  -0.54535  -0.53605  -0.53437  -0.52909
 Alpha  occ. eigenvalues --   -0.52366  -0.51998  -0.50290  -0.49659  -0.45247
 Alpha  occ. eigenvalues --   -0.43281  -0.43017  -0.41351  -0.40700  -0.39403
 Alpha  occ. eigenvalues --   -0.38976  -0.38496
 Alpha virt. eigenvalues --    0.17383   0.18296   0.19082   0.20737   0.21003
 Alpha virt. eigenvalues --    0.21462   0.24037   0.25648   0.26729   0.27087
 Alpha virt. eigenvalues --    0.27733   0.28268   0.29175   0.29515   0.30898

 Mulliken atomic charges:
              1
     1  H    0.207690
     2  C   -0.575486
     3  H    0.204254
     4  H    0.173208
     5  C    0.756470
     6  O   -0.621028
     7  N   -0.824143
     8  H    0.419760
     9  C   -0.042511
    10  H    0.222497
    11  C   -0.489437
    12  H    0.179033
    13  H    0.152126
    14  H    0.218866
    15  C    0.797458
    16  O   -0.614112
    17  N   -0.857177
    18  H    0.392636
    19  C   -0.041745
    20  H    0.208008
    21  C   -0.475110
    22  H    0.210443
    23  H    0.194040
    24  H    0.170917
    25  C    0.806498
    26  O   -0.625744
    27  N   -0.838658
    28  H    0.421882
    29  C   -0.034498
    30  H    0.210807
    31  C   -0.491467
    32  H    0.180922
    33  H    0.161688
    34  H    0.214434
    35  C    0.781883
    36  O   -0.633026
    37  N   -0.800124
    38  H    0.390440
    39  C   -0.273289
    40  H    0.204360
    41  H    0.184581
    42  H    0.172656
 Sum of Mulliken atomic charges =   0.00000

 Dipole moment (field-independent basis, Debye):
    X=              3.5331    Y=              0.0213    Z=             -0.7100  Tot=              3.6038
 Quadrupole moment (field-independent basis, Debye-Ang):
   XX=            -92.9209   YY=           -142.1085   ZZ=           -115.2034
   XY=            -17.3365   XZ=             -5.8195   YZ=            -11.9578

 Normal termination of Gaussian 09 at Mon Dec 26 15:20:42 2016.
