 Gaussian 09, Revision A.02,
 Gaussian 09:  EM64L-G09RevA.02 11-Jun-2009

 -------------------------------------------------------------------
 # HF/6-31G* Opt=(ModRedundant, maxcycles=1000, calcfc) geom=nocrowd
 -------------------------------------------------------------------

 ------------------
 Phi Psi fixed scan
 ------------------
 Symbolic Z-matrix:
 Charge =  0 Multiplicity = 1

 SCF Done:  E(RHF) =  -984.515139878     A.U. after   15 cycles

  Exact polarizability:   0.000   0.000   0.000   0.000   0.000   0.000
 Approx polarizability: 133.731  -0.792 132.820  -2.837   2.199 121.949

 SCF Done:  E(RHF) =  -984.529241559     A.U. after   13 cycles
 SCF Done:  E(RHF) =  -984.544461342     A.U. after   13 cycles
 SCF Done:  E(RHF) =  -984.548246011     A.U. after   13 cycles
 SCF Done:  E(RHF) =  -984.542461985     A.U. after   14 cycles
 SCF Done:  E(RHF) =  -984.550277812     A.U. after   13 cycles
 SCF Done:  E(RHF) =  -984.552140528     A.U. after   13 cycles
 SCF Done:  E(RHF) =  -984.553027741     A.U. after   13 cycles
 SCF Done:  E(RHF) =  -984.553915914     A.U. after   13 cycles
 SCF Done:  E(RHF) =  -984.370925405     A.U. after   15 cycles
 SCF Done:  E(RHF) =  -984.555517410     A.U. after    9 cycles
 SCF Done:  E(RHF) =  -984.555517582     A.U. after    8 cycles
 SCF Done:  E(RHF) =  -984.555517766     A.U. after    8 cycles
 SCF Done:  E(RHF) =  -984.555518049     A.U. after    9 cycles
 SCF Done:  E(RHF) =  -984.555518741     A.U. after    9 cycles
 SCF Done:  E(RHF) =  -984.555520131     A.U. after   10 cycles
 SCF Done:  E(RHF) =  -984.555520809     A.U. after   10 cycles
 SCF Done:  E(RHF) =  -984.555520905     A.U. after    8 cycles
 SCF Done:  E(RHF) =  -984.555520955     A.U. after    8 cycles
 SCF Done:  E(RHF) =  -984.555520965     A.U. after    7 cycles
 Optimization completed.
    -- Stationary point found.

                         Standard orientation:
 ---------------------------------------------------------------------
 Center     Atomic      Atomic             Coordinates (Angstroms)
 Number     Number       Type             X           Y           Z
 ---------------------------------------------------------------------
      1          1           0        7.393872   -0.862214   -1.351875
      2          6           0        6.403539   -0.576269   -1.679934
      3          1           0        6.139635   -1.201051   -2.526571
      4          1           0        6.411321    0.458504   -2.000408
      5          6           0        5.423034   -0.845712   -0.558756
      6          8           0        5.479347   -1.851339    0.100584
      7          7           0        4.479896    0.097795   -0.366736
      8          1           0        4.427090    0.901849   -0.950714
      9          6           0        3.423200   -0.056965    0.602506
     10          1           0        3.088300   -1.086705    0.580409
     11          6           0        3.893462    0.286997    2.022681
     12          1           0        4.212653    1.322527    2.072478
     13          1           0        3.103675    0.134512    2.750712
     14          1           0        4.727759   -0.350577    2.282459
     15          6           0        2.276023    0.863979    0.179433
     16          8           0        2.473199    1.788543   -0.563301
     17          7           0        1.095474    0.568608    0.768247
     18          1           0        1.072068   -0.315911    1.224318
     19          6           0       -0.226362    1.108674    0.500191
     20          1           0       -0.610881    1.514856    1.431812
     21          6           0       -0.297268    2.215290   -0.559140
     22          1           0        0.038839    1.860437   -1.522573
     23          1           0       -1.329015    2.539400   -0.643640
     24          1           0        0.310642    3.061200   -0.278844
     25          6           0       -1.140112   -0.048835    0.078358
     26          8           0       -0.717044   -1.023614   -0.484634
     27          7           0       -2.437214    0.110697    0.396601
     28          1           0       -2.764135    0.941858    0.838722
     29          6           0       -3.456627   -0.820789   -0.026571
     30          1           0       -3.208030   -1.170438   -1.021118
     31          6           0       -3.557460   -2.027389    0.915653
     32          1           0       -3.819164   -1.702543    1.916694
     33          1           0       -4.308565   -2.732249    0.575074
     34          1           0       -2.602282   -2.534510    0.948687
     35          6           0       -4.779049   -0.058266   -0.065526
     36          8           0       -4.931302    0.963907    0.552478
     37          7           0       -5.756465   -0.623650   -0.793817
     38          1           0       -5.543100   -1.412554   -1.358762
     39          6           0       -7.067041   -0.016529   -0.911676
     40          1           0       -7.448064    0.233596    0.067906
     41          1           0       -7.034737    0.886945   -1.509276
     42          1           0       -7.735342   -0.726180   -1.379884
 ---------------------------------------------------------------------

 The electronic state is 1-A.
 Alpha  occ. eigenvalues --  -20.54408 -20.53566 -20.53319 -20.50919 -15.60452
 Alpha  occ. eigenvalues --  -15.59364 -15.59312 -15.57262 -11.36356 -11.35618
 Alpha  occ. eigenvalues --  -11.35586 -11.33784 -11.29280 -11.29245 -11.27514
 Alpha  occ. eigenvalues --  -11.27177 -11.23344 -11.22540 -11.22333 -11.21840
 Alpha  occ. eigenvalues --   -1.41476  -1.40617  -1.39986  -1.37792  -1.25256
 Alpha  occ. eigenvalues --   -1.25078  -1.24769  -1.22905  -1.07926  -1.05198
 Alpha  occ. eigenvalues --   -1.02585  -0.98169  -0.97220  -0.92119  -0.90073
 Alpha  occ. eigenvalues --   -0.87155  -0.81845  -0.79837  -0.78606  -0.77540
 Alpha  occ. eigenvalues --   -0.75517  -0.72119  -0.69712  -0.68314  -0.66735
 Alpha  occ. eigenvalues --   -0.65889  -0.65331  -0.64529  -0.63632  -0.62489
 Alpha  occ. eigenvalues --   -0.61784  -0.61440  -0.60389  -0.60360  -0.58696
 Alpha  occ. eigenvalues --   -0.57293  -0.57028  -0.56916  -0.56160  -0.55597
 Alpha  occ. eigenvalues --   -0.54738  -0.54499  -0.54046  -0.53742  -0.53128
 Alpha  occ. eigenvalues --   -0.52648  -0.52031  -0.50811  -0.48937  -0.44013
 Alpha  occ. eigenvalues --   -0.43424  -0.41842  -0.41193  -0.40723  -0.39919
 Alpha  occ. eigenvalues --   -0.39553  -0.37668
 Alpha virt. eigenvalues --    0.17619   0.18940   0.19679   0.20340   0.21677
 Alpha virt. eigenvalues --    0.22191   0.23986   0.24681   0.25636   0.27337
 Alpha virt. eigenvalues --    0.28150   0.28622   0.29213   0.29810   0.30299

 Mulliken atomic charges:
              1
     1  H    0.205775
     2  C   -0.575467
     3  H    0.202593
     4  H    0.172218
     5  C    0.756700
     6  O   -0.623676
     7  N   -0.824357
     8  H    0.419484
     9  C   -0.035708
    10  H    0.220735
    11  C   -0.483514
    12  H    0.174506
    13  H    0.157869
    14  H    0.212510
    15  C    0.794100
    16  O   -0.632822
    17  N   -0.821304
    18  H    0.394261
    19  C   -0.008808
    20  H    0.194826
    21  C   -0.484581
    22  H    0.204371
    23  H    0.164812
    24  H    0.211844
    25  C    0.752776
    26  O   -0.619740
    27  N   -0.830867
    28  H    0.424698
    29  C   -0.035701
    30  H    0.215567
    31  C   -0.483156
    32  H    0.180048
    33  H    0.161686
    34  H    0.209122
    35  C    0.777009
    36  O   -0.630674
    37  N   -0.799023
    38  H    0.391316
    39  C   -0.273428
    40  H    0.203846
    41  H    0.186208
    42  H    0.173948
 Sum of Mulliken atomic charges =   0.00000

 Dipole moment (field-independent basis, Debye):
    X=             -5.5491    Y=              0.1643    Z=             -0.7630  Tot=              5.6037
 Quadrupole moment (field-independent basis, Debye-Ang):
   XX=           -106.6271   YY=           -130.3737   ZZ=           -114.2819
   XY=             23.9384   XZ=              5.5923   YZ=              2.2051

 Normal termination of Gaussian 09 at Mon Dec 26 13:08:28 2016.
