 Gaussian 09, Revision A.02,
 Gaussian 09:  EM64L-G09RevA.02 11-Jun-2009

 -------------------------------------------------------------------
 # HF/6-31G* Opt=(ModRedundant, maxcycles=1000, calcfc) geom=nocrowd
 -------------------------------------------------------------------

 ------------------
 Phi Psi fixed scan
 ------------------
 Symbolic Z-matrix:
 Charge =  0 Multiplicity = 1

 SCF Done:  E(RHF) =  -984.512824549     A.U. after   15 cycles

  Exact polarizability:   0.000   0.000   0.000   0.000   0.000   0.000
 Approx polarizability: 130.956   7.392 125.566   6.517   4.917 132.059

 SCF Done:  E(RHF) =  -984.528124329     A.U. after   13 cycles
 SCF Done:  E(RHF) =  -984.545446974     A.U. after   15 cycles
 SCF Done:  E(RHF) =  -984.548471155     A.U. after   15 cycles
 SCF Done:  E(RHF) =  -984.543438752     A.U. after   15 cycles
 SCF Done:  E(RHF) =  -984.550619198     A.U. after   13 cycles
 SCF Done:  E(RHF) =  -984.552659245     A.U. after   13 cycles
 SCF Done:  E(RHF) =  -984.554531819     A.U. after   13 cycles
 SCF Done:  E(RHF) =  -984.555377589     A.U. after   15 cycles
 SCF Done:  E(RHF) =  -984.422389333     A.U. after   16 cycles
 SCF Done:  E(RHF) =  -984.555995615     A.U. after    9 cycles
 SCF Done:  E(RHF) =  -984.555996081     A.U. after    9 cycles
 SCF Done:  E(RHF) =  -984.555996522     A.U. after    8 cycles
 SCF Done:  E(RHF) =  -984.555997004     A.U. after    9 cycles
 SCF Done:  E(RHF) =  -984.555997374     A.U. after    8 cycles
 SCF Done:  E(RHF) =  -984.555997592     A.U. after    8 cycles
 SCF Done:  E(RHF) =  -984.555997686     A.U. after    8 cycles
 SCF Done:  E(RHF) =  -984.555997747     A.U. after    8 cycles
 SCF Done:  E(RHF) =  -984.555997773     A.U. after    7 cycles
 SCF Done:  E(RHF) =  -984.555997776     A.U. after    6 cycles
 Optimization completed.
    -- Stationary point found.

                         Standard orientation:
 ---------------------------------------------------------------------
 Center     Atomic      Atomic             Coordinates (Angstroms)
 Number     Number       Type             X           Y           Z
 ---------------------------------------------------------------------
      1          1           0        5.490374    3.093209    0.622450
      2          6           0        4.539474    2.681987    0.931678
      3          1           0        3.817038    3.490965    0.966551
      4          1           0        4.629759    2.258472    1.924797
      5          6           0        4.085615    1.672460   -0.099868
      6          8           0        4.296898    1.824746   -1.274890
      7          7           0        3.407283    0.610433    0.382254
      8          1           0        3.211047    0.520744    1.353915
      9          6           0        2.829179   -0.385980   -0.484279
     10          1           0        2.445119    0.112977   -1.365150
     11          6           0        3.856970   -1.440810   -0.917007
     12          1           0        4.249554   -1.961698   -0.050533
     13          1           0        3.418220   -2.171005   -1.589919
     14          1           0        4.672497   -0.949380   -1.430559
     15          6           0        1.683094   -1.049840    0.277705
     16          8           0        1.661911   -1.055097    1.479876
     17          7           0        0.742634   -1.613493   -0.512350
     18          1           0        0.879946   -1.510977   -1.493264
     19          6           0       -0.348281   -2.520324   -0.158311
     20          1           0       -0.268085   -3.372556   -0.820415
     21          6           0       -0.351872   -3.045457    1.278009
     22          1           0       -0.496150   -2.265972    2.009047
     23          1           0       -1.160852   -3.763616    1.360144
     24          1           0        0.578614   -3.548857    1.502566
     25          6           0       -1.696470   -1.891882   -0.524683
     26          8           0       -2.448556   -2.450751   -1.280671
     27          7           0       -1.985325   -0.723777    0.074659
     28          1           0       -1.306913   -0.254230    0.634846
     29          6           0       -3.206558   -0.003530   -0.195826
     30          1           0       -3.458466   -0.143388   -1.239903
     31          6           0       -4.370536   -0.506938    0.667879
     32          1           0       -4.146207   -0.367789    1.719664
     33          1           0       -5.290425    0.020846    0.438648
     34          1           0       -4.524223   -1.561358    0.478548
     35          6           0       -2.940164    1.475407    0.072673
     36          8           0       -2.033019    1.833763    0.777356
     37          7           0       -3.806859    2.333960   -0.494051
     38          1           0       -4.472487    1.988496   -1.145567
     39          6           0       -3.682663    3.766706   -0.318955
     40          1           0       -3.574921    4.002778    0.729868
     41          1           0       -2.823548    4.160354   -0.849716
     42          1           0       -4.578618    4.240053   -0.697044
 ---------------------------------------------------------------------

 The electronic state is 1-A.
 Alpha  occ. eigenvalues --  -20.54063 -20.53777 -20.52968 -20.51504 -15.60513
 Alpha  occ. eigenvalues --  -15.59893 -15.58423 -15.57831 -11.36398 -11.35725
 Alpha  occ. eigenvalues --  -11.34863 -11.34300 -11.29009 -11.28599 -11.28272
 Alpha  occ. eigenvalues --  -11.26732 -11.22817 -11.22681 -11.22606 -11.22558
 Alpha  occ. eigenvalues --   -1.41114  -1.40796  -1.39560  -1.38371  -1.25899
 Alpha  occ. eigenvalues --   -1.24669  -1.23877  -1.23456  -1.07718  -1.05111
 Alpha  occ. eigenvalues --   -1.02958  -0.98672  -0.96720  -0.92123  -0.89943
 Alpha  occ. eigenvalues --   -0.87555  -0.81343  -0.79447  -0.78959  -0.78434
 Alpha  occ. eigenvalues --   -0.74983  -0.73408  -0.68785  -0.67715  -0.66569
 Alpha  occ. eigenvalues --   -0.66142  -0.64914  -0.64610  -0.63448  -0.62957
 Alpha  occ. eigenvalues --   -0.62494  -0.61351  -0.60096  -0.59454  -0.58669
 Alpha  occ. eigenvalues --   -0.57693  -0.57191  -0.56667  -0.56474  -0.55579
 Alpha  occ. eigenvalues --   -0.54972  -0.54769  -0.53739  -0.53520  -0.53165
 Alpha  occ. eigenvalues --   -0.52823  -0.52223  -0.50484  -0.49548  -0.44578
 Alpha  occ. eigenvalues --   -0.43184  -0.42710  -0.41256  -0.40591  -0.39600
 Alpha  occ. eigenvalues --   -0.38616  -0.38271
 Alpha virt. eigenvalues --    0.17607   0.18676   0.20383   0.20700   0.20929
 Alpha virt. eigenvalues --    0.21323   0.24144   0.25363   0.25895   0.27524
 Alpha virt. eigenvalues --    0.28005   0.28452   0.29169   0.29803   0.30688

 Mulliken atomic charges:
              1
     1  H    0.207843
     2  C   -0.577068
     3  H    0.204292
     4  H    0.174686
     5  C    0.754792
     6  O   -0.622508
     7  N   -0.819919
     8  H    0.419629
     9  C   -0.036521
    10  H    0.217382
    11  C   -0.486249
    12  H    0.178899
    13  H    0.156153
    14  H    0.213906
    15  C    0.796340
    16  O   -0.630973
    17  N   -0.844813
    18  H    0.396153
    19  C   -0.039999
    20  H    0.220925
    21  C   -0.486246
    22  H    0.205318
    23  H    0.177734
    24  H    0.190561
    25  C    0.768465
    26  O   -0.624535
    27  N   -0.817837
    28  H    0.435383
    29  C   -0.036394
    30  H    0.212865
    31  C   -0.482026
    32  H    0.181541
    33  H    0.159312
    34  H    0.206424
    35  C    0.774285
    36  O   -0.626140
    37  N   -0.799355
    38  H    0.389679
    39  C   -0.272678
    40  H    0.203349
    41  H    0.185277
    42  H    0.172069
 Sum of Mulliken atomic charges =   0.00000

 Dipole moment (field-independent basis, Debye):
    X=             -2.9636    Y=              0.7528    Z=              0.0571  Tot=              3.0582
 Quadrupole moment (field-independent basis, Debye-Ang):
   XX=           -111.1107   YY=           -117.4217   ZZ=           -126.0125
   XY=            -19.7418   XZ=             10.3183   YZ=             -0.1528

 Normal termination of Gaussian 09 at Mon Dec 26 16:26:46 2016.
