 Gaussian 09, Revision A.02,
 Gaussian 09:  EM64L-G09RevA.02 11-Jun-2009

 -------------------------------------------------------------------
 # HF/6-31G* Opt=(ModRedundant, maxcycles=1000, calcfc) geom=nocrowd
 -------------------------------------------------------------------

 ------------------
 Phi Psi fixed scan
 ------------------
 Symbolic Z-matrix:
 Charge =  0 Multiplicity = 1

 SCF Done:  E(RHF) =  -984.542027205     A.U. after   15 cycles

  Exact polarizability:   0.000   0.000   0.000   0.000   0.000   0.000
 Approx polarizability: 130.863   4.078 120.215   8.473   4.977 137.705

 SCF Done:  E(RHF) =  -984.550032157     A.U. after   13 cycles
 SCF Done:  E(RHF) =  -984.558460303     A.U. after   13 cycles
 SCF Done:  E(RHF) =  -984.560456507     A.U. after   13 cycles
 SCF Done:  E(RHF) =  -984.562767945     A.U. after   14 cycles
 SCF Done:  E(RHF) =  -984.562889150     A.U. after   13 cycles
 SCF Done:  E(RHF) =  -984.563385856     A.U. after   14 cycles
 SCF Done:  E(RHF) =  -984.441590902     A.U. after   16 cycles
 SCF Done:  E(RHF) =  -984.563598465     A.U. after   15 cycles
 SCF Done:  E(RHF) =  -984.563697325     A.U. after   12 cycles
 SCF Done:  E(RHF) =  -984.563946970     A.U. after   12 cycles
 SCF Done:  E(RHF) =  -984.563972237     A.U. after   11 cycles
 SCF Done:  E(RHF) =  -984.563977030     A.U. after   11 cycles
 SCF Done:  E(RHF) =  -984.563977873     A.U. after   10 cycles
 SCF Done:  E(RHF) =  -984.563978295     A.U. after    9 cycles
 SCF Done:  E(RHF) =  -984.563978545     A.U. after    8 cycles
 SCF Done:  E(RHF) =  -984.563978610     A.U. after    7 cycles
 SCF Done:  E(RHF) =  -984.563978646     A.U. after    7 cycles
 SCF Done:  E(RHF) =  -984.563978684     A.U. after    7 cycles
 SCF Done:  E(RHF) =  -984.563978697     A.U. after    6 cycles
 Optimization completed.
    -- Stationary point found.

                         Standard orientation:
 ---------------------------------------------------------------------
 Center     Atomic      Atomic             Coordinates (Angstroms)
 Number     Number       Type             X           Y           Z
 ---------------------------------------------------------------------
      1          1           0       -6.887637   -1.812261   -0.893518
      2          6           0       -6.572027   -0.776753   -0.825145
      3          1           0       -7.395254   -0.205650   -0.417191
      4          1           0       -6.338104   -0.417522   -1.819917
      5          6           0       -5.402543   -0.691839    0.131378
      6          8           0       -5.550499   -0.796593    1.321241
      7          7           0       -4.191717   -0.514601   -0.435516
      8          1           0       -4.092184   -0.406904   -1.419739
      9          6           0       -2.984076   -0.420922    0.346871
     10          1           0       -3.203079    0.150435    1.240345
     11          6           0       -2.448762   -1.799607    0.757742
     12          1           0       -2.209142   -2.387898   -0.121422
     13          1           0       -1.555863   -1.710228    1.367286
     14          1           0       -3.206865   -2.316504    1.330903
     15          6           0       -1.948730    0.318824   -0.495014
     16          8           0       -2.029063    0.365808   -1.694507
     17          7           0       -0.919098    0.854471    0.197116
     18          1           0       -1.011432    0.947271    1.185241
     19          6           0        0.108787    1.663342   -0.443169
     20          1           0        0.229913    1.267739   -1.440617
     21          6           0       -0.265960    3.138883   -0.518398
     22          1           0       -0.397386    3.551330    0.473504
     23          1           0        0.513521    3.704979   -1.017589
     24          1           0       -1.185292    3.251361   -1.080604
     25          6           0        1.390327    1.449512    0.364085
     26          8           0        1.638791    2.123136    1.331601
     27          7           0        2.168258    0.433608   -0.041767
     28          1           0        1.930245   -0.111552   -0.841108
     29          6           0        3.381081    0.063480    0.648740
     30          1           0        3.885877    0.971441    0.954018
     31          6           0        3.102873   -0.795722    1.889381
     32          1           0        2.603650   -1.715532    1.605216
     33          1           0        4.022767   -1.048710    2.406026
     34          1           0        2.467754   -0.245608    2.571235
     35          6           0        4.249771   -0.706378   -0.342264
     36          8           0        3.765956   -1.281973   -1.281968
     37          7           0        5.565015   -0.734341   -0.065227
     38          1           0        5.917237   -0.156271    0.661922
     39          6           0        6.506159   -1.441082   -0.910380
     40          1           0        6.645832   -0.937204   -1.859754
     41          1           0        7.456513   -1.497891   -0.397292
     42          1           0        6.148831   -2.442232   -1.103084
 ---------------------------------------------------------------------

 The electronic state is 1-A.
 Alpha  occ. eigenvalues --  -20.54233 -20.54073 -20.53358 -20.51520 -15.60218
 Alpha  occ. eigenvalues --  -15.60111 -15.59117 -15.57980 -11.36163 -11.36055
 Alpha  occ. eigenvalues --  -11.35446 -11.34393 -11.28993 -11.28501 -11.28300
 Alpha  occ. eigenvalues --  -11.26970 -11.23185 -11.22822 -11.22399 -11.21972
 Alpha  occ. eigenvalues --   -1.41291  -1.41074  -1.40005  -1.38430  -1.25653
 Alpha  occ. eigenvalues --   -1.24990  -1.24483  -1.23600  -1.07542  -1.05435
 Alpha  occ. eigenvalues --   -1.02769  -0.98712  -0.97044  -0.92267  -0.90042
 Alpha  occ. eigenvalues --   -0.86748  -0.81461  -0.80764  -0.79563  -0.78765
 Alpha  occ. eigenvalues --   -0.75953  -0.71628  -0.68645  -0.67958  -0.67540
 Alpha  occ. eigenvalues --   -0.65366  -0.65074  -0.64912  -0.63664  -0.63334
 Alpha  occ. eigenvalues --   -0.62066  -0.61126  -0.60824  -0.60016  -0.59488
 Alpha  occ. eigenvalues --   -0.58553  -0.56979  -0.56726  -0.56596  -0.55908
 Alpha  occ. eigenvalues --   -0.54765  -0.54449  -0.54286  -0.53375  -0.52950
 Alpha  occ. eigenvalues --   -0.52644  -0.51639  -0.51188  -0.49526  -0.43838
 Alpha  occ. eigenvalues --   -0.43398  -0.43235  -0.41325  -0.40963  -0.40300
 Alpha  occ. eigenvalues --   -0.39224  -0.38245
 Alpha virt. eigenvalues --    0.17479   0.18537   0.19876   0.20514   0.21359
 Alpha virt. eigenvalues --    0.22270   0.23632   0.24419   0.25754   0.26873
 Alpha virt. eigenvalues --    0.27756   0.28311   0.29137   0.29305   0.30452

 Mulliken atomic charges:
              1
     1  H    0.202967
     2  C   -0.575796
     3  H    0.208184
     4  H    0.173454
     5  C    0.756059
     6  O   -0.622004
     7  N   -0.823840
     8  H    0.418569
     9  C   -0.029404
    10  H    0.216090
    11  C   -0.485771
    12  H    0.177568
    13  H    0.163329
    14  H    0.211707
    15  C    0.788377
    16  O   -0.630045
    17  N   -0.827206
    18  H    0.399892
    19  C   -0.045424
    20  H    0.230801
    21  C   -0.480998
    22  H    0.189360
    23  H    0.171443
    24  H    0.185919
    25  C    0.785070
    26  O   -0.629623
    27  N   -0.830024
    28  H    0.427548
    29  C   -0.033898
    30  H    0.213634
    31  C   -0.486276
    32  H    0.181845
    33  H    0.163224
    34  H    0.205923
    35  C    0.777017
    36  O   -0.627522
    37  N   -0.799740
    38  H    0.390181
    39  C   -0.273660
    40  H    0.185492
    41  H    0.173004
    42  H    0.204574
 Sum of Mulliken atomic charges =   0.00000

 Dipole moment (field-independent basis, Debye):
    X=              4.7431    Y=             -0.2540    Z=             -0.2434  Tot=              4.7561
 Quadrupole moment (field-independent basis, Debye-Ang):
   XX=            -96.1266   YY=           -124.4471   ZZ=           -130.3914
   XY=             -3.6891   XZ=             18.3476   YZ=             -4.2000

 Normal termination of Gaussian 09 at Tue Dec 27 00:50:38 2016.
