 Gaussian 09, Revision A.02,
 Gaussian 09:  EM64L-G09RevA.02 11-Jun-2009

 -------------------------------------------------------------------
 # HF/6-31G* Opt=(ModRedundant, maxcycles=1000, calcfc) geom=nocrowd
 -------------------------------------------------------------------

 ------------------
 Phi Psi fixed scan
 ------------------
 Symbolic Z-matrix:
 Charge =  0 Multiplicity = 1

 SCF Done:  E(RHF) =  -984.548651492     A.U. after   15 cycles

  Exact polarizability:   0.000   0.000   0.000   0.000   0.000   0.000
 Approx polarizability: 132.569  -0.544 131.472   0.148 -19.733 124.131

 SCF Done:  E(RHF) =  -984.556483887     A.U. after   16 cycles
 SCF Done:  E(RHF) =  -984.564546575     A.U. after   13 cycles
 SCF Done:  E(RHF) =  -984.566197825     A.U. after   13 cycles
 SCF Done:  E(RHF) =  -984.568059261     A.U. after   14 cycles
 SCF Done:  E(RHF) =  -984.568117157     A.U. after   12 cycles
 SCF Done:  E(RHF) =  -984.568527006     A.U. after   12 cycles
 SCF Done:  E(RHF) =  -984.450357541     A.U. after   16 cycles
 SCF Done:  E(RHF) =  -984.568585597     A.U. after   16 cycles
 SCF Done:  E(RHF) =  -984.568806319     A.U. after   12 cycles
 SCF Done:  E(RHF) =  -984.569084878     A.U. after    8 cycles
 SCF Done:  E(RHF) =  -984.569084991     A.U. after    8 cycles
 SCF Done:  E(RHF) =  -984.569085069     A.U. after    8 cycles
 SCF Done:  E(RHF) =  -984.569085199     A.U. after    9 cycles
 SCF Done:  E(RHF) =  -984.569085421     A.U. after    9 cycles
 SCF Done:  E(RHF) =  -984.569085962     A.U. after    9 cycles
 SCF Done:  E(RHF) =  -984.569086456     A.U. after    9 cycles
 SCF Done:  E(RHF) =  -984.569086553     A.U. after    8 cycles
 SCF Done:  E(RHF) =  -984.569086584     A.U. after    7 cycles
 SCF Done:  E(RHF) =  -984.569086613     A.U. after    7 cycles
 Optimization completed.
    -- Stationary point found.

                         Standard orientation:
 ---------------------------------------------------------------------
 Center     Atomic      Atomic             Coordinates (Angstroms)
 Number     Number       Type             X           Y           Z
 ---------------------------------------------------------------------
      1          1           0        7.558013   -0.133903   -1.127037
      2          6           0        6.965119   -0.743294   -0.453902
      3          1           0        7.596914   -1.026621    0.377735
      4          1           0        6.639956   -1.632037   -0.980835
      5          6           0        5.820296    0.095432    0.072318
      6          8           0        6.005603    0.998104    0.846966
      7          7           0        4.596436   -0.221741   -0.394410
      8          1           0        4.461630   -0.989589   -1.012852
      9          6           0        3.407154    0.482285    0.018763
     10          1           0        3.484858    0.692336    1.078055
     11          6           0        3.223593    1.804683   -0.738512
     12          1           0        3.125436    1.619036   -1.802807
     13          1           0        2.341403    2.336118   -0.397076
     14          1           0        4.088525    2.432154   -0.569645
     15          6           0        2.219351   -0.441823   -0.232537
     16          8           0        2.282718   -1.349023   -1.025137
     17          7           0        1.107237   -0.150937    0.460705
     18          1           0        1.092287    0.602034    1.113043
     19          6           0       -0.139489   -0.857530    0.271011
     20          1           0       -0.191144   -1.167685   -0.763538
     21          6           0       -0.249012   -2.092566    1.172770
     22          1           0       -0.195477   -1.803743    2.216546
     23          1           0       -1.184491   -2.616419    1.004989
     24          1           0        0.567273   -2.769048    0.953575
     25          6           0       -1.266247    0.122311    0.579965
     26          8           0       -1.121299    0.996418    1.399330
     27          7           0       -2.410285   -0.075125   -0.089741
     28          1           0       -2.499029   -0.810617   -0.756514
     29          6           0       -3.601563    0.702621    0.161911
     30          1           0       -3.668344    0.885752    1.227127
     31          6           0       -3.576825    2.046946   -0.577135
     32          1           0       -3.522459    1.886588   -1.648212
     33          1           0       -4.465284    2.630798   -0.360904
     34          1           0       -2.709801    2.612186   -0.261931
     35          6           0       -4.792886   -0.136460   -0.293981
     36          8           0       -4.661046   -1.027611   -1.092495
     37          7           0       -5.983879    0.215387    0.219069
     38          1           0       -6.016508    0.894470    0.943484
     39          6           0       -7.203062   -0.482209   -0.137649
     40          1           0       -7.282210   -0.562427   -1.212167
     41          1           0       -7.228566   -1.479915    0.284649
     42          1           0       -8.045929    0.081955    0.237507
 ---------------------------------------------------------------------

 The electronic state is 1-A.
 Alpha  occ. eigenvalues --  -20.54431 -20.53872 -20.53318 -20.51072 -15.60508
 Alpha  occ. eigenvalues --  -15.59667 -15.59030 -15.57518 -11.36405 -11.36001
 Alpha  occ. eigenvalues --  -11.35401 -11.33977 -11.29378 -11.28634 -11.27685
 Alpha  occ. eigenvalues --  -11.27211 -11.23399 -11.22773 -11.22508 -11.21937
 Alpha  occ. eigenvalues --   -1.41571  -1.40781  -1.40039  -1.37964  -1.25405
 Alpha  occ. eigenvalues --   -1.25246  -1.24726  -1.23129  -1.07849  -1.05389
 Alpha  occ. eigenvalues --   -1.02672  -0.98345  -0.97279  -0.92174  -0.90196
 Alpha  occ. eigenvalues --   -0.86964  -0.81969  -0.80326  -0.79762  -0.78261
 Alpha  occ. eigenvalues --   -0.76134  -0.71599  -0.68921  -0.67645  -0.67161
 Alpha  occ. eigenvalues --   -0.65562  -0.65402  -0.64577  -0.64254  -0.62328
 Alpha  occ. eigenvalues --   -0.62100  -0.61257  -0.60771  -0.60153  -0.59787
 Alpha  occ. eigenvalues --   -0.58152  -0.57020  -0.56908  -0.56406  -0.55837
 Alpha  occ. eigenvalues --   -0.55365  -0.54573  -0.54037  -0.53694  -0.53430
 Alpha  occ. eigenvalues --   -0.52261  -0.51921  -0.50700  -0.49044  -0.43980
 Alpha  occ. eigenvalues --   -0.43524  -0.42665  -0.41323  -0.40894  -0.40157
 Alpha  occ. eigenvalues --   -0.39347  -0.37835
 Alpha virt. eigenvalues --    0.17498   0.18797   0.20058   0.20281   0.21737
 Alpha virt. eigenvalues --    0.23293   0.23857   0.24447   0.25532   0.27319
 Alpha virt. eigenvalues --    0.27874   0.28524   0.29110   0.29913   0.30519

 Mulliken atomic charges:
              1
     1  H    0.202266
     2  C   -0.574891
     3  H    0.206408
     4  H    0.172143
     5  C    0.756853
     6  O   -0.623290
     7  N   -0.825096
     8  H    0.418542
     9  C   -0.028623
    10  H    0.219896
    11  C   -0.489178
    12  H    0.174239
    13  H    0.165212
    14  H    0.211667
    15  C    0.791921
    16  O   -0.644949
    17  N   -0.832514
    18  H    0.421432
    19  C   -0.036041
    20  H    0.225202
    21  C   -0.486689
    22  H    0.181297
    23  H    0.170446
    24  H    0.203562
    25  C    0.795016
    26  O   -0.646450
    27  N   -0.834554
    28  H    0.427035
    29  C   -0.038416
    30  H    0.215156
    31  C   -0.484230
    32  H    0.182585
    33  H    0.162133
    34  H    0.210202
    35  C    0.778132
    36  O   -0.628838
    37  N   -0.799636
    38  H    0.391013
    39  C   -0.273593
    40  H    0.204443
    41  H    0.186295
    42  H    0.173892
 Sum of Mulliken atomic charges =   0.00000

 Dipole moment (field-independent basis, Debye):
    X=             -5.9627    Y=              0.0532    Z=              0.0763  Tot=              5.9635
 Quadrupole moment (field-independent basis, Debye-Ang):
   XX=           -100.6945   YY=           -124.1098   ZZ=           -125.7468
   XY=            -19.3029   XZ=            -19.1809   YZ=             -8.1828

 Normal termination of Gaussian 09 at Mon Dec 26 23:21:11 2016.
