 Gaussian 09, Revision A.02,
 Gaussian 09:  EM64L-G09RevA.02 11-Jun-2009

 -------------------------------------------------------------------
 # HF/6-31G* Opt=(ModRedundant, maxcycles=1000, calcfc) geom=nocrowd
 -------------------------------------------------------------------

 ------------------
 Phi Psi fixed scan
 ------------------
 Symbolic Z-matrix:
 Charge =  0 Multiplicity = 1

 SCF Done:  E(RHF) =  -984.541530823     A.U. after   15 cycles

  Exact polarizability:   0.000   0.000   0.000   0.000   0.000   0.000
 Approx polarizability: 134.153   6.109 126.535  10.538  -1.347 128.217

 SCF Done:  E(RHF) =  -984.549690092     A.U. after   13 cycles
 SCF Done:  E(RHF) =  -984.558200366     A.U. after   13 cycles
 SCF Done:  E(RHF) =  -984.560068442     A.U. after   13 cycles
 SCF Done:  E(RHF) =  -984.562235518     A.U. after   15 cycles
 SCF Done:  E(RHF) =  -984.562353560     A.U. after   13 cycles
 SCF Done:  E(RHF) =  -984.562886072     A.U. after   13 cycles
 SCF Done:  E(RHF) =  -984.444745140     A.U. after   16 cycles
 SCF Done:  E(RHF) =  -984.563073194     A.U. after   15 cycles
 SCF Done:  E(RHF) =  -984.563194404     A.U. after   12 cycles
 SCF Done:  E(RHF) =  -984.563464617     A.U. after    9 cycles
 SCF Done:  E(RHF) =  -984.563465339     A.U. after   10 cycles
 SCF Done:  E(RHF) =  -984.563466499     A.U. after    9 cycles
 SCF Done:  E(RHF) =  -984.563468150     A.U. after    9 cycles
 SCF Done:  E(RHF) =  -984.563470423     A.U. after   10 cycles
 SCF Done:  E(RHF) =  -984.563471541     A.U. after   10 cycles
 SCF Done:  E(RHF) =  -984.563469766     A.U. after   10 cycles
 SCF Done:  E(RHF) =  -984.563471875     A.U. after   10 cycles
 SCF Done:  E(RHF) =  -984.563472122     A.U. after    8 cycles
 SCF Done:  E(RHF) =  -984.563472142     A.U. after    7 cycles
 Optimization completed on the basis of negligible forces.
    -- Stationary point found.

                         Standard orientation:
 ---------------------------------------------------------------------
 Center     Atomic      Atomic             Coordinates (Angstroms)
 Number     Number       Type             X           Y           Z
 ---------------------------------------------------------------------
      1          1           0       -7.227317   -0.519476   -0.032719
      2          6           0       -6.402867   -0.982796   -0.557764
      3          1           0       -6.287223   -0.522960   -1.531706
      4          1           0       -6.642601   -2.031900   -0.694308
      5          6           0       -5.161750   -0.880061    0.301664
      6          8           0       -5.196127   -1.075888    1.488670
      7          7           0       -4.019620   -0.579424   -0.350023
      8          1           0       -4.014969   -0.397770   -1.328374
      9          6           0       -2.756134   -0.457257    0.333771
     10          1           0       -2.933540    0.026957    1.286058
     11          6           0       -2.095757   -1.820218    0.584467
     12          1           0       -1.894685   -2.320852   -0.356349
     13          1           0       -1.160854   -1.713701    1.124386
     14          1           0       -2.764732   -2.433637    1.173241
     15          6           0       -1.850958    0.418438   -0.527127
     16          8           0       -2.038406    0.551080   -1.707269
     17          7           0       -0.799600    0.974415    0.119447
     18          1           0       -0.819468    0.979830    1.115663
     19          6           0        0.101272    1.912445   -0.536755
     20          1           0        0.170419    1.594019   -1.567749
     21          6           0       -0.409066    3.347350   -0.480886
     22          1           0       -0.499257    3.687263    0.543782
     23          1           0        0.273089    4.014775   -0.992027
     24          1           0       -1.378597    3.402134   -0.961473
     25          6           0        1.494486    1.782397    0.090976
     26          8           0        2.049388    2.713108    0.612606
     27          7           0        2.051712    0.562445   -0.012934
     28          1           0        1.551082   -0.195472   -0.422723
     29          6           0        3.366728    0.264737    0.502322
     30          1           0        4.018273    1.097737    0.269213
     31          6           0        3.364037    0.043099    2.021002
     32          1           0        2.725588   -0.795581    2.276668
     33          1           0        4.363973   -0.161802    2.389022
     34          1           0        2.993925    0.932844    2.513130
     35          6           0        3.855139   -0.994549   -0.207972
     36          8           0        3.080348   -1.803238   -0.648852
     37          7           0        5.188853   -1.156351   -0.257558
     38          1           0        5.776271   -0.407517    0.027236
     39          6           0        5.792313   -2.314577   -0.885015
     40          1           0        5.684203   -2.285644   -1.963061
     41          1           0        6.844537   -2.333915   -0.635741
     42          1           0        5.326188   -3.217466   -0.518031
 ---------------------------------------------------------------------

 The electronic state is 1-A.
 Alpha  occ. eigenvalues --  -20.54460 -20.53983 -20.53400 -20.51618 -15.60379
 Alpha  occ. eigenvalues --  -15.60161 -15.58750 -15.58076 -11.36343 -11.35972
 Alpha  occ. eigenvalues --  -11.35367 -11.34481 -11.28915 -11.28521 -11.28429
 Alpha  occ. eigenvalues --  -11.26920 -11.23107 -11.22886 -11.22445 -11.21711
 Alpha  occ. eigenvalues --   -1.41444  -1.41043  -1.40001  -1.38530  -1.26053
 Alpha  occ. eigenvalues --   -1.24919  -1.24080  -1.23685  -1.07481  -1.05359
 Alpha  occ. eigenvalues --   -1.02754  -0.98776  -0.96998  -0.92201  -0.89965
 Alpha  occ. eigenvalues --   -0.86676  -0.81392  -0.80867  -0.79336  -0.78867
 Alpha  occ. eigenvalues --   -0.76007  -0.71594  -0.68440  -0.68378  -0.67566
 Alpha  occ. eigenvalues --   -0.65620  -0.65047  -0.64796  -0.63654  -0.63431
 Alpha  occ. eigenvalues --   -0.61909  -0.61163  -0.60744  -0.60251  -0.59063
 Alpha  occ. eigenvalues --   -0.58576  -0.56968  -0.56666  -0.56476  -0.55991
 Alpha  occ. eigenvalues --   -0.54732  -0.54708  -0.53946  -0.53240  -0.52894
 Alpha  occ. eigenvalues --   -0.52681  -0.51763  -0.51018  -0.49597  -0.43903
 Alpha  occ. eigenvalues --   -0.43539  -0.43177  -0.41423  -0.40998  -0.40487
 Alpha  occ. eigenvalues --   -0.38999  -0.38279
 Alpha virt. eigenvalues --    0.17770   0.18010   0.19526   0.20584   0.20976
 Alpha virt. eigenvalues --    0.22057   0.23655   0.25080   0.25740   0.26538
 Alpha virt. eigenvalues --    0.27528   0.28712   0.29169   0.29533   0.30330

 Mulliken atomic charges:
              1
     1  H    0.208528
     2  C   -0.576077
     3  H    0.173804
     4  H    0.203208
     5  C    0.755783
     6  O   -0.621801
     7  N   -0.822978
     8  H    0.418436
     9  C   -0.030276
    10  H    0.215163
    11  C   -0.486572
    12  H    0.180660
    13  H    0.163853
    14  H    0.211684
    15  C    0.787380
    16  O   -0.626208
    17  N   -0.828146
    18  H    0.393417
    19  C   -0.060565
    20  H    0.240082
    21  C   -0.465655
    22  H    0.172689
    23  H    0.184447
    24  H    0.182120
    25  C    0.771542
    26  O   -0.620153
    27  N   -0.823990
    28  H    0.427872
    29  C   -0.027720
    30  H    0.210731
    31  C   -0.489456
    32  H    0.178890
    33  H    0.163853
    34  H    0.207866
    35  C    0.776503
    36  O   -0.628326
    37  N   -0.799677
    38  H    0.390157
    39  C   -0.273713
    40  H    0.185663
    41  H    0.172848
    42  H    0.204134
 Sum of Mulliken atomic charges =   0.00000

 Dipole moment (field-independent basis, Debye):
    X=              4.3107    Y=             -0.5033    Z=             -0.5909  Tot=              4.3800
 Quadrupole moment (field-independent basis, Debye-Ang):
   XX=            -94.4830   YY=           -130.4815   ZZ=           -126.9707
   XY=             -9.1052   XZ=             12.0026   YZ=              0.7427

 Normal termination of Gaussian 09 at Tue Dec 27 01:39:21 2016.
