 Gaussian 09, Revision A.02,
 Gaussian 09:  EM64L-G09RevA.02 11-Jun-2009

 -------------------------------------------------------------------
 # HF/6-31G* Opt=(ModRedundant, maxcycles=1000, calcfc) geom=nocrowd
 -------------------------------------------------------------------

 ------------------
 Phi Psi fixed scan
 ------------------
 Symbolic Z-matrix:
 Charge =  0 Multiplicity = 1

 SCF Done:  E(RHF) =  -984.535124400     A.U. after   15 cycles

  Exact polarizability:   0.000   0.000   0.000   0.000   0.000   0.000
 Approx polarizability: 139.443   0.834 137.020   0.848 -11.337 112.469

 SCF Done:  E(RHF) =  -984.544348383     A.U. after   13 cycles
 SCF Done:  E(RHF) =  -984.556240826     A.U. after   14 cycles
 SCF Done:  E(RHF) =  -984.558954477     A.U. after   13 cycles
 SCF Done:  E(RHF) =  -984.559909198     A.U. after   15 cycles
 SCF Done:  E(RHF) =  -984.562412740     A.U. after   13 cycles
 SCF Done:  E(RHF) =  -984.563105973     A.U. after   13 cycles
 SCF Done:  E(RHF) =  -984.561054690     A.U. after   15 cycles
 SCF Done:  E(RHF) =  -984.563528889     A.U. after   13 cycles
 SCF Done:  E(RHF) =  -984.522084195     A.U. after   15 cycles
 SCF Done:  E(RHF) =  -984.563954577     A.U. after   10 cycles
 SCF Done:  E(RHF) =  -984.563949685     A.U. after   11 cycles
 SCF Done:  E(RHF) =  -984.563516883     A.U. after   13 cycles
 SCF Done:  E(RHF) =  -984.563891234     A.U. after   13 cycles
 SCF Done:  E(RHF) =  -984.563948713     A.U. after   12 cycles
 SCF Done:  E(RHF) =  -984.563958396     A.U. after   11 cycles
 SCF Done:  E(RHF) =  -984.563959053     A.U. after   10 cycles
 SCF Done:  E(RHF) =  -984.563959274     A.U. after    9 cycles
 SCF Done:  E(RHF) =  -984.563959306     A.U. after    7 cycles
 SCF Done:  E(RHF) =  -984.563959319     A.U. after    7 cycles
 Optimization completed.
    -- Stationary point found.

                         Standard orientation:
 ---------------------------------------------------------------------
 Center     Atomic      Atomic             Coordinates (Angstroms)
 Number     Number       Type             X           Y           Z
 ---------------------------------------------------------------------
      1          1           0       -7.067283   -0.598053    0.759804
      2          6           0       -6.408233   -0.764311   -0.081530
      3          1           0       -6.479667    0.068648   -0.770435
      4          1           0       -6.736861   -1.664696   -0.589698
      5          6           0       -5.004988   -0.988998    0.438264
      6          8           0       -4.792147   -1.652616    1.419312
      7          7           0       -4.015358   -0.419593   -0.280379
      8          1           0       -4.214334    0.147504   -1.073374
      9          6           0       -2.626526   -0.556582    0.082792
     10          1           0       -2.557218   -0.523206    1.163066
     11          6           0       -2.021566   -1.878152   -0.412064
     12          1           0       -2.070990   -1.931970   -1.494268
     13          1           0       -0.985576   -1.981314   -0.108414
     14          1           0       -2.586020   -2.701138    0.005985
     15          6           0       -1.875465    0.627817   -0.517344
     16          8           0       -2.311359    1.242960   -1.451866
     17          7           0       -0.658780    0.879870    0.036112
     18          1           0       -0.523111    0.527383    0.959588
     19          6           0        0.090005    2.078759   -0.310222
     20          1           0       -0.124291    2.285085   -1.348606
     21          6           0       -0.323026    3.289210    0.530456
     22          1           0       -0.148034    3.105147    1.586936
     23          1           0        0.247026    4.159499    0.237223
     24          1           0       -1.377589    3.490557    0.385060
     25          6           0        1.601640    1.870436   -0.222109
     26          8           0        2.344093    2.790696   -0.446595
     27          7           0        2.036666    0.651898    0.150250
     28          1           0        1.419062   -0.128401    0.118266
     29          6           0        3.444655    0.329387    0.174578
     30          1           0        3.935334    0.839017   -0.646706
     31          6           0        4.100053    0.764773    1.491096
     32          1           0        3.643962    0.248121    2.328461
     33          1           0        5.164040    0.553278    1.494125
     34          1           0        3.963856    1.830328    1.619470
     35          6           0        3.565850   -1.180463   -0.024943
     36          8           0        2.618247   -1.912540    0.106604
     37          7           0        4.795888   -1.630536   -0.324870
     38          1           0        5.517013   -0.974340   -0.515531
     39          6           0        5.058253   -3.038079   -0.548307
     40          1           0        4.660390   -3.623154    0.268275
     41          1           0        4.608428   -3.385055   -1.471167
     42          1           0        6.128349   -3.185500   -0.599498
 ---------------------------------------------------------------------

 The electronic state is 1-A.
 Alpha  occ. eigenvalues --  -20.54763 -20.54340 -20.52791 -20.51609 -15.60283
 Alpha  occ. eigenvalues --  -15.60257 -15.58767 -15.58059 -11.36452 -11.36234
 Alpha  occ. eigenvalues --  -11.35242 -11.34468 -11.28900 -11.28420 -11.28386
 Alpha  occ. eigenvalues --  -11.27050 -11.23162 -11.22887 -11.22381 -11.22201
 Alpha  occ. eigenvalues --   -1.41650  -1.41288  -1.39700  -1.38524  -1.26319
 Alpha  occ. eigenvalues --   -1.25089  -1.23920  -1.23643  -1.07422  -1.05310
 Alpha  occ. eigenvalues --   -1.02909  -0.98736  -0.97049  -0.92082  -0.89895
 Alpha  occ. eigenvalues --   -0.87044  -0.81460  -0.81105  -0.79048  -0.78747
 Alpha  occ. eigenvalues --   -0.76155  -0.71649  -0.69032  -0.68181  -0.67412
 Alpha  occ. eigenvalues --   -0.65780  -0.65273  -0.64322  -0.63606  -0.63119
 Alpha  occ. eigenvalues --   -0.62075  -0.61571  -0.60442  -0.60246  -0.58680
 Alpha  occ. eigenvalues --   -0.58167  -0.57126  -0.56837  -0.56683  -0.56206
 Alpha  occ. eigenvalues --   -0.55625  -0.54608  -0.54090  -0.53334  -0.52991
 Alpha  occ. eigenvalues --   -0.52606  -0.52022  -0.50139  -0.49490  -0.43975
 Alpha  occ. eigenvalues --   -0.43742  -0.43472  -0.41401  -0.41088  -0.40269
 Alpha  occ. eigenvalues --   -0.39363  -0.38357
 Alpha virt. eigenvalues --    0.17652   0.18015   0.19892   0.20397   0.20645
 Alpha virt. eigenvalues --    0.21502   0.23852   0.25473   0.26480   0.26963
 Alpha virt. eigenvalues --    0.27802   0.28803   0.29273   0.29626   0.29888

 Mulliken atomic charges:
              1
     1  H    0.208581
     2  C   -0.576383
     3  H    0.173665
     4  H    0.203068
     5  C    0.755113
     6  O   -0.620858
     7  N   -0.822570
     8  H    0.417476
     9  C   -0.033006
    10  H    0.214492
    11  C   -0.489709
    12  H    0.175851
    13  H    0.179448
    14  H    0.210101
    15  C    0.784794
    16  O   -0.617978
    17  N   -0.842473
    18  H    0.388232
    19  C   -0.046503
    20  H    0.255306
    21  C   -0.490645
    22  H    0.157232
    23  H    0.210588
    24  H    0.187567
    25  C    0.783070
    26  O   -0.629745
    27  N   -0.847352
    28  H    0.438647
    29  C   -0.033861
    30  H    0.217065
    31  C   -0.481199
    32  H    0.177636
    33  H    0.158188
    34  H    0.211510
    35  C    0.774644
    36  O   -0.633012
    37  N   -0.798545
    38  H    0.391426
    39  C   -0.272894
    40  H    0.203329
    41  H    0.186248
    42  H    0.173457
 Sum of Mulliken atomic charges =   0.00000

 Dipole moment (field-independent basis, Debye):
    X=              3.8673    Y=             -0.8176    Z=             -0.4750  Tot=              3.9812
 Quadrupole moment (field-independent basis, Debye-Ang):
   XX=            -92.6371   YY=           -133.9192   ZZ=           -125.0511
   XY=            -18.2106   XZ=              7.2620   YZ=             12.0908

 Normal termination of Gaussian 09 at Mon Dec 26 20:49:37 2016.
