 Gaussian 09, Revision A.02,
 Gaussian 09:  EM64L-G09RevA.02 11-Jun-2009

 -------------------------------------------------------------------
 # HF/6-31G* Opt=(ModRedundant, maxcycles=1000, calcfc) geom=nocrowd
 -------------------------------------------------------------------

 ------------------
 Phi Psi fixed scan
 ------------------
 Symbolic Z-matrix:
 Charge =  0 Multiplicity = 1

 SCF Done:  E(RHF) =  -984.532308626     A.U. after   15 cycles

  Exact polarizability:   0.000   0.000   0.000   0.000   0.000   0.000
 Approx polarizability: 133.421  -6.710 131.110   5.239   0.974 124.609

 SCF Done:  E(RHF) =  -984.542082869     A.U. after   13 cycles
 SCF Done:  E(RHF) =  -984.552824503     A.U. after   13 cycles
 SCF Done:  E(RHF) =  -984.555477424     A.U. after   13 cycles
 SCF Done:  E(RHF) =  -984.557674359     A.U. after   16 cycles
 SCF Done:  E(RHF) =  -984.558359792     A.U. after   15 cycles
 SCF Done:  E(RHF) =  -984.354386068     A.U. after   17 cycles
 SCF Done:  E(RHF) =  -984.473713306     A.U. after   14 cycles
 SCF Done:  E(RHF) =  -984.502571471     A.U. after   12 cycles
 SCF Done:  E(RHF) =  -984.525485448     A.U. after   12 cycles
 SCF Done:  E(RHF) =  -984.559051125     A.U. after   10 cycles
 SCF Done:  E(RHF) =  -984.559051574     A.U. after    9 cycles
 SCF Done:  E(RHF) =  -984.559051767     A.U. after    8 cycles
 SCF Done:  E(RHF) =  -984.559051909     A.U. after    8 cycles
 SCF Done:  E(RHF) =  -984.559052080     A.U. after    8 cycles
 SCF Done:  E(RHF) =  -984.559052361     A.U. after    8 cycles
 SCF Done:  E(RHF) =  -984.559052773     A.U. after    9 cycles
 SCF Done:  E(RHF) =  -984.559052987     A.U. after    8 cycles
 SCF Done:  E(RHF) =  -984.559053025     A.U. after    8 cycles
 SCF Done:  E(RHF) =  -984.559053033     A.U. after    7 cycles
 Optimization completed.
    -- Stationary point found.

                         Standard orientation:
 ---------------------------------------------------------------------
 Center     Atomic      Atomic             Coordinates (Angstroms)
 Number     Number       Type             X           Y           Z
 ---------------------------------------------------------------------
      1          1           0       -6.837322    1.618638   -1.506227
      2          6           0       -6.554590    0.879075   -0.769155
      3          1           0       -6.599077   -0.109382   -1.210022
      4          1           0       -7.270008    0.930088    0.044655
      5          6           0       -5.185250    1.231071   -0.229703
      6          8           0       -4.883577    2.365432    0.037016
      7          7           0       -4.341391    0.194866   -0.049602
      8          1           0       -4.604731   -0.734491   -0.288890
      9          6           0       -3.008934    0.370254    0.473352
     10          1           0       -2.600401    1.281917    0.055757
     11          6           0       -2.993031    0.472004    2.004827
     12          1           0       -3.392087   -0.434636    2.446071
     13          1           0       -1.986287    0.621887    2.380229
     14          1           0       -3.604089    1.311187    2.310054
     15          6           0       -2.177297   -0.824604    0.018200
     16          8           0       -2.688238   -1.876256   -0.267172
     17          7           0       -0.843359   -0.628708    0.004975
     18          1           0       -0.493644    0.292624    0.143504
     19          6           0        0.091844   -1.683662   -0.360570
     20          1           0       -0.300027   -2.603142    0.044095
     21          6           0        0.240435   -1.825137   -1.875559
     22          1           0        0.524866   -0.890359   -2.348288
     23          1           0        0.981169   -2.578352   -2.124395
     24          1           0       -0.709522   -2.130629   -2.294648
     25          6           0        1.391368   -1.428105    0.410505
     26          8           0        1.547945   -1.872933    1.515947
     27          7           0        2.309198   -0.651413   -0.196622
     28          1           0        2.188894   -0.327150   -1.129721
     29          6           0        3.563656   -0.308101    0.431494
     30          1           0        3.370756   -0.087622    1.473796
     31          6           0        4.588641   -1.446861    0.342638
     32          1           0        4.807538   -1.676027   -0.694593
     33          1           0        5.515999   -1.179881    0.838556
     34          1           0        4.185411   -2.329131    0.821424
     35          6           0        4.092269    0.937514   -0.274619
     36          8           0        3.748472    1.213916   -1.395269
     37          7           0        4.986001    1.665485    0.415307
     38          1           0        5.164751    1.437829    1.365652
     39          6           0        5.589762    2.859226   -0.142091
     40          1           0        5.989328    2.649263   -1.123874
     41          1           0        4.870035    3.664603   -0.228822
     42          1           0        6.395238    3.173843    0.507212
 ---------------------------------------------------------------------

 The electronic state is 1-A.
 Alpha  occ. eigenvalues --  -20.54382 -20.53892 -20.53163 -20.51441 -15.60487
 Alpha  occ. eigenvalues --  -15.60085 -15.59381 -15.57888 -11.36335 -11.35902
 Alpha  occ. eigenvalues --  -11.35532 -11.34317 -11.29213 -11.28539 -11.28133
 Alpha  occ. eigenvalues --  -11.27197 -11.23272 -11.22958 -11.22764 -11.22166
 Alpha  occ. eigenvalues --   -1.41424  -1.40918  -1.39959  -1.38337  -1.25675
 Alpha  occ. eigenvalues --   -1.25252  -1.24523  -1.23498  -1.07800  -1.05379
 Alpha  occ. eigenvalues --   -1.02777  -0.98636  -0.97242  -0.92243  -0.90188
 Alpha  occ. eigenvalues --   -0.87487  -0.81600  -0.80999  -0.79829  -0.78675
 Alpha  occ. eigenvalues --   -0.76039  -0.71851  -0.68805  -0.67998  -0.66973
 Alpha  occ. eigenvalues --   -0.65560  -0.65177  -0.64296  -0.64235  -0.63399
 Alpha  occ. eigenvalues --   -0.62056  -0.61048  -0.60789  -0.60194  -0.59008
 Alpha  occ. eigenvalues --   -0.58435  -0.57129  -0.56962  -0.56607  -0.55995
 Alpha  occ. eigenvalues --   -0.55764  -0.54436  -0.54381  -0.53869  -0.53482
 Alpha  occ. eigenvalues --   -0.52532  -0.51747  -0.51024  -0.49402  -0.43956
 Alpha  occ. eigenvalues --   -0.43593  -0.42806  -0.41245  -0.41189  -0.40032
 Alpha  occ. eigenvalues --   -0.39344  -0.38157
 Alpha virt. eigenvalues --    0.17503   0.18502   0.19478   0.20305   0.21329
 Alpha virt. eigenvalues --    0.22155   0.23660   0.24151   0.25474   0.27257
 Alpha virt. eigenvalues --    0.27767   0.28444   0.28965   0.29423   0.30029

 Mulliken atomic charges:
              1
     1  H    0.207829
     2  C   -0.575985
     3  H    0.173519
     4  H    0.202735
     5  C    0.756277
     6  O   -0.622863
     7  N   -0.822932
     8  H    0.417963
     9  C   -0.031633
    10  H    0.214604
    11  C   -0.486101
    12  H    0.180356
    13  H    0.166182
    14  H    0.208891
    15  C    0.795383
    16  O   -0.633852
    17  N   -0.828321
    18  H    0.395128
    19  C   -0.017547
    20  H    0.250637
    21  C   -0.507179
    22  H    0.160488
    23  H    0.176294
    24  H    0.211585
    25  C    0.751044
    26  O   -0.613885
    27  N   -0.837428
    28  H    0.431459
    29  C   -0.034023
    30  H    0.214142
    31  C   -0.487553
    32  H    0.179931
    33  H    0.162295
    34  H    0.213536
    35  C    0.777728
    36  O   -0.631210
    37  N   -0.799815
    38  H    0.391531
    39  C   -0.273272
    40  H    0.203256
    41  H    0.186803
    42  H    0.174001
 Sum of Mulliken atomic charges =   0.00000

 Dipole moment (field-independent basis, Debye):
    X=              4.3974    Y=              0.7171    Z=              0.2289  Tot=              4.4614
 Quadrupole moment (field-independent basis, Debye-Ang):
   XX=            -95.0118   YY=           -133.7733   ZZ=           -123.6681
   XY=             16.7411   XZ=             11.1914   YZ=              9.7811

 Normal termination of Gaussian 09 at Tue Dec 27 00:03:25 2016.
