 Gaussian 09, Revision A.02,
 Gaussian 09:  EM64L-G09RevA.02 11-Jun-2009

 -------------------------------------------------------------------
 # HF/6-31G* Opt=(ModRedundant, maxcycles=1000, calcfc) geom=nocrowd
 -------------------------------------------------------------------

 ------------------
 Phi Psi fixed scan
 ------------------
 Symbolic Z-matrix:
 Charge =  0 Multiplicity = 1

 SCF Done:  E(RHF) =  -984.542433755     A.U. after   15 cycles

  Exact polarizability:   0.000   0.000   0.000   0.000   0.000   0.000
 Approx polarizability: 138.633   4.546 132.426   7.334  -8.003 118.329

 SCF Done:  E(RHF) =  -984.550602847     A.U. after   13 cycles
 SCF Done:  E(RHF) =  -984.559274108     A.U. after   14 cycles
 SCF Done:  E(RHF) =  -984.561416903     A.U. after   13 cycles
 SCF Done:  E(RHF) =  -984.563839188     A.U. after   13 cycles
 SCF Done:  E(RHF) =  -984.564527682     A.U. after   15 cycles
 SCF Done:  E(RHF) =  -984.442600601     A.U. after   16 cycles
 SCF Done:  E(RHF) =  -984.564272444     A.U. after   16 cycles
 SCF Done:  E(RHF) =  -984.564539291     A.U. after   13 cycles
 SCF Done:  E(RHF) =  -984.564703645     A.U. after   13 cycles
 SCF Done:  E(RHF) =  -984.565048793     A.U. after   11 cycles
 SCF Done:  E(RHF) =  -984.565063354     A.U. after   11 cycles
 SCF Done:  E(RHF) =  -984.565051820     A.U. after   12 cycles
 SCF Done:  E(RHF) =  -984.565066051     A.U. after   11 cycles
 SCF Done:  E(RHF) =  -984.565069653     A.U. after   10 cycles
 SCF Done:  E(RHF) =  -984.565070256     A.U. after    8 cycles
 SCF Done:  E(RHF) =  -984.565069656     A.U. after   10 cycles
 SCF Done:  E(RHF) =  -984.565070399     A.U. after   10 cycles
 SCF Done:  E(RHF) =  -984.565070413     A.U. after    8 cycles
 SCF Done:  E(RHF) =  -984.565070429     A.U. after    7 cycles
 Optimization completed.
    -- Stationary point found.

                         Standard orientation:
 ---------------------------------------------------------------------
 Center     Atomic      Atomic             Coordinates (Angstroms)
 Number     Number       Type             X           Y           Z
 ---------------------------------------------------------------------
      1          1           0       -7.104124   -0.581845    0.435552
      2          6           0       -6.357143   -0.890698   -0.283096
      3          1           0       -6.366462   -0.216345   -1.130827
      4          1           0       -6.617349   -1.885926   -0.627735
      5          6           0       -5.014152   -0.956530    0.410981
      6          8           0       -4.897508   -1.401210    1.523145
      7          7           0       -3.961903   -0.508006   -0.304237
      8          1           0       -4.081573   -0.128884   -1.216420
      9          6           0       -2.616809   -0.525564    0.215565
     10          1           0       -2.660893   -0.276701    1.268410
     11          6           0       -1.948350   -1.898458    0.055844
     12          1           0       -1.887568   -2.167415   -0.993018
     13          1           0       -0.946142   -1.905566    0.470810
     14          1           0       -2.540113   -2.640922    0.574828
     15          6           0       -1.821431    0.538249   -0.533960
     16          8           0       -2.146196    0.913341   -1.628422
     17          7           0       -0.698927    0.970619    0.092404
     18          1           0       -0.624656    0.787829    1.069423
     19          6           0        0.101065    2.063566   -0.439873
     20          1           0        0.049894    1.979563   -1.517621
     21          6           0       -0.427741    3.432908   -0.020762
     22          1           0       -0.410992    3.541079    1.059090
     23          1           0        0.180376    4.219195   -0.444945
     24          1           0       -1.447870    3.546421   -0.367307
     25          6           0        1.576043    1.896419   -0.063137
     26          8           0        2.300034    2.850776    0.049379
     27          7           0        2.006130    0.631097    0.083178
     28          1           0        1.393844   -0.135917   -0.084709
     29          6           0        3.394050    0.311818    0.317446
     30          1           0        4.007251    0.962183   -0.295113
     31          6           0        3.787867    0.497854    1.788865
     32          1           0        3.201765   -0.160550    2.420806
     33          1           0        4.838890    0.279143    1.945738
     34          1           0        3.604056    1.523169    2.080725
     35          6           0        3.599391   -1.140268   -0.107342
     36          8           0        2.676909   -1.911339   -0.174860
     37          7           0        4.870373   -1.500253   -0.354545
     38          1           0        5.574393   -0.799735   -0.378988
     39          6           0        5.215640   -2.849429   -0.754698
     40          1           0        4.870403   -3.067309   -1.758582
     41          1           0        6.291368   -2.955127   -0.720203
     42          1           0        4.769292   -3.562290   -0.076445
 ---------------------------------------------------------------------

 The electronic state is 1-A.
 Alpha  occ. eigenvalues --  -20.54557 -20.54174 -20.52985 -20.51609 -15.60334
 Alpha  occ. eigenvalues --  -15.60239 -15.58715 -15.58069 -11.36370 -11.36117
 Alpha  occ. eigenvalues --  -11.35283 -11.34472 -11.28932 -11.28517 -11.28374
 Alpha  occ. eigenvalues --  -11.27001 -11.23096 -11.22885 -11.22253 -11.21826
 Alpha  occ. eigenvalues --   -1.41505  -1.41161  -1.39787  -1.38521  -1.26282
 Alpha  occ. eigenvalues --   -1.25019  -1.23916  -1.23644  -1.07409  -1.05321
 Alpha  occ. eigenvalues --   -1.02795  -0.98738  -0.97035  -0.92138  -0.89870
 Alpha  occ. eigenvalues --   -0.86803  -0.81418  -0.81005  -0.79158  -0.78874
 Alpha  occ. eigenvalues --   -0.76105  -0.71623  -0.68811  -0.68266  -0.67514
 Alpha  occ. eigenvalues --   -0.65671  -0.65090  -0.64555  -0.63750  -0.63225
 Alpha  occ. eigenvalues --   -0.61837  -0.61321  -0.60623  -0.60335  -0.58611
 Alpha  occ. eigenvalues --   -0.58540  -0.56973  -0.56758  -0.56402  -0.56238
 Alpha  occ. eigenvalues --   -0.55149  -0.54578  -0.53983  -0.53228  -0.52738
 Alpha  occ. eigenvalues --   -0.52622  -0.51904  -0.50554  -0.49536  -0.43828
 Alpha  occ. eigenvalues --   -0.43624  -0.43218  -0.41406  -0.40984  -0.40411
 Alpha  occ. eigenvalues --   -0.39137  -0.38353
 Alpha virt. eigenvalues --    0.17598   0.18049   0.19896   0.20488   0.20804
 Alpha virt. eigenvalues --    0.21900   0.23731   0.25433   0.26111   0.26714
 Alpha virt. eigenvalues --    0.27705   0.28879   0.28967   0.29839   0.30039

 Mulliken atomic charges:
              1
     1  H    0.208697
     2  C   -0.576516
     3  H    0.173809
     4  H    0.202998
     5  C    0.755625
     6  O   -0.621280
     7  N   -0.822278
     8  H    0.417318
     9  C   -0.031762
    10  H    0.214614
    11  C   -0.489573
    12  H    0.179159
    13  H    0.174310
    14  H    0.210022
    15  C    0.788637
    16  O   -0.623063
    17  N   -0.844717
    18  H    0.391292
    19  C   -0.051122
    20  H    0.250058
    21  C   -0.474619
    22  H    0.159294
    23  H    0.202662
    24  H    0.184197
    25  C    0.777281
    26  O   -0.629528
    27  N   -0.838685
    28  H    0.438029
    29  C   -0.025826
    30  H    0.211755
    31  C   -0.486459
    32  H    0.177394
    33  H    0.161077
    34  H    0.212172
    35  C    0.774803
    36  O   -0.630898
    37  N   -0.799381
    38  H    0.390864
    39  C   -0.273158
    40  H    0.186256
    41  H    0.173200
    42  H    0.203340
 Sum of Mulliken atomic charges =   0.00000

 Dipole moment (field-independent basis, Debye):
    X=              3.9988    Y=             -0.8235    Z=             -0.7873  Tot=              4.1579
 Quadrupole moment (field-independent basis, Debye-Ang):
   XX=            -93.8376   YY=           -132.6628   ZZ=           -125.6378
   XY=            -15.5258   XZ=              8.4638   YZ=              7.3394

 Normal termination of Gaussian 09 at Tue Dec 27 00:40:12 2016.
