 Gaussian 09, Revision A.02,
 Gaussian 09:  EM64L-G09RevA.02 11-Jun-2009

 -------------------------------------------------------------------
 # HF/6-31G* Opt=(ModRedundant, maxcycles=1000, calcfc) geom=nocrowd
 -------------------------------------------------------------------

 ------------------
 Phi Psi fixed scan
 ------------------
 Symbolic Z-matrix:
 Charge =  0 Multiplicity = 1

 SCF Done:  E(RHF) =  -984.534885765     A.U. after   15 cycles

  Exact polarizability:   0.000   0.000   0.000   0.000   0.000   0.000
 Approx polarizability: 136.805  -2.844 138.287  -4.741 -10.621 113.133

 SCF Done:  E(RHF) =  -984.544114275     A.U. after   16 cycles
 SCF Done:  E(RHF) =  -984.554562669     A.U. after   14 cycles
 SCF Done:  E(RHF) =  -984.556241053     A.U. after   16 cycles
 SCF Done:  E(RHF) =  -984.557528290     A.U. after   13 cycles
 SCF Done:  E(RHF) =  -984.558787603     A.U. after   14 cycles
 SCF Done:  E(RHF) =  -984.558170206     A.U. after   15 cycles
 SCF Done:  E(RHF) =  -984.559453058     A.U. after   13 cycles
 SCF Done:  E(RHF) =  -984.559487631     A.U. after   13 cycles
 SCF Done:  E(RHF) =  -984.559733156     A.U. after   13 cycles
 SCF Done:  E(RHF) =  -984.559997660     A.U. after    9 cycles
 SCF Done:  E(RHF) =  -984.560008427     A.U. after    9 cycles
 SCF Done:  E(RHF) =  -984.560014373     A.U. after   11 cycles
 SCF Done:  E(RHF) =  -984.560015833     A.U. after   10 cycles
 SCF Done:  E(RHF) =  -984.560015332     A.U. after    9 cycles
 SCF Done:  E(RHF) =  -984.560016509     A.U. after   10 cycles
 SCF Done:  E(RHF) =  -984.560016545     A.U. after    9 cycles
 SCF Done:  E(RHF) =  -984.560016633     A.U. after    7 cycles
 SCF Done:  E(RHF) =  -984.560016640     A.U. after    7 cycles
 SCF Done:  E(RHF) =  -984.560016648     A.U. after    6 cycles
 Optimization completed.
    -- Stationary point found.

                         Standard orientation:
 ---------------------------------------------------------------------
 Center     Atomic      Atomic             Coordinates (Angstroms)
 Number     Number       Type             X           Y           Z
 ---------------------------------------------------------------------
      1          1           0       -6.939069   -1.365887   -0.510827
      2          6           0       -6.503758   -0.634655    0.161965
      3          1           0       -7.053199   -0.671159    1.092929
      4          1           0       -6.604109    0.348390   -0.281919
      5          6           0       -5.066344   -1.023263    0.431400
      6          8           0       -4.783657   -1.926009    1.175248
      7          7           0       -4.132071   -0.311302   -0.232097
      8          1           0       -4.384702    0.454449   -0.815069
      9          6           0       -2.721420   -0.569233   -0.082195
     10          1           0       -2.531889   -0.810300    0.956814
     11          6           0       -2.245767   -1.739172   -0.954855
     12          1           0       -2.410937   -1.517741   -2.003790
     13          1           0       -1.190790   -1.940424   -0.805576
     14          1           0       -2.806710   -2.625670   -0.690439
     15          6           0       -1.977639    0.710146   -0.454817
     16          8           0       -2.491951    1.567082   -1.119726
     17          7           0       -0.682671    0.765579   -0.038024
     18          1           0       -0.473709    0.182917    0.744061
     19          6           0        0.078504    2.002399   -0.151589
     20          1           0       -0.264849    2.494673   -1.046150
     21          6           0       -0.133512    2.933501    1.047297
     22          1           0        0.187850    2.459693    1.970402
     23          1           0        0.433133    3.846662    0.915046
     24          1           0       -1.183800    3.185363    1.133349
     25          6           0        1.574136    1.773457   -0.351212
     26          8           0        2.236924    2.628065   -0.877464
     27          7           0        2.116541    0.661231    0.188423
     28          1           0        1.549785   -0.130309    0.394001
     29          6           0        3.520071    0.357251    0.021843
     30          1           0        3.841471    0.708946   -0.951707
     31          6           0        4.372357    1.035090    1.101295
     32          1           0        4.087685    0.680245    2.085692
     33          1           0        5.429403    0.838783    0.956555
     34          1           0        4.215599    2.104602    1.055500
     35          6           0        3.662288   -1.163306    0.075327
     36          8           0        2.763676   -1.867303    0.461463
     37          7           0        4.852612   -1.651504   -0.310675
     38          1           0        5.521531   -1.034256   -0.708821
     39          6           0        5.123585   -3.075124   -0.325102
     40          1           0        4.857719   -3.512290    0.626504
     41          1           0        4.563077   -3.578900   -1.103819
     42          1           0        6.180687   -3.223041   -0.498442
 ---------------------------------------------------------------------

 The electronic state is 1-A.
 Alpha  occ. eigenvalues --  -20.54787 -20.54478 -20.52958 -20.51611 -15.60376
 Alpha  occ. eigenvalues --  -15.60261 -15.58877 -15.58049 -11.36454 -11.36351
 Alpha  occ. eigenvalues --  -11.35260 -11.34466 -11.28950 -11.28418 -11.28319
 Alpha  occ. eigenvalues --  -11.27119 -11.23209 -11.22885 -11.22884 -11.22283
 Alpha  occ. eigenvalues --   -1.41676  -1.41420  -1.39814  -1.38527  -1.26198
 Alpha  occ. eigenvalues --   -1.25192  -1.24026  -1.23664  -1.07548  -1.05329
 Alpha  occ. eigenvalues --   -1.03016  -0.98762  -0.97108  -0.92033  -0.90011
 Alpha  occ. eigenvalues --   -0.87281  -0.81573  -0.81149  -0.79165  -0.78720
 Alpha  occ. eigenvalues --   -0.76186  -0.71679  -0.69136  -0.68018  -0.67296
 Alpha  occ. eigenvalues --   -0.65857  -0.65432  -0.64230  -0.63594  -0.63083
 Alpha  occ. eigenvalues --   -0.62542  -0.61737  -0.60597  -0.59871  -0.58867
 Alpha  occ. eigenvalues --   -0.58053  -0.57420  -0.56928  -0.56740  -0.56147
 Alpha  occ. eigenvalues --   -0.55921  -0.54697  -0.54071  -0.53549  -0.53249
 Alpha  occ. eigenvalues --   -0.52639  -0.52005  -0.50199  -0.49566  -0.44286
 Alpha  occ. eigenvalues --   -0.43808  -0.43569  -0.41402  -0.41221  -0.40196
 Alpha  occ. eigenvalues --   -0.39433  -0.38323
 Alpha virt. eigenvalues --    0.17641   0.17999   0.19752   0.20199   0.20517
 Alpha virt. eigenvalues --    0.21168   0.23890   0.25452   0.26069   0.27713
 Alpha virt. eigenvalues --    0.27822   0.28369   0.29169   0.29537   0.29950

 Mulliken atomic charges:
              1
     1  H    0.203165
     2  C   -0.576143
     3  H    0.208433
     4  H    0.173664
     5  C    0.754755
     6  O   -0.620756
     7  N   -0.822947
     8  H    0.418229
     9  C   -0.033643
    10  H    0.214698
    11  C   -0.485439
    12  H    0.175362
    13  H    0.173678
    14  H    0.210885
    15  C    0.782700
    16  O   -0.616474
    17  N   -0.828548
    18  H    0.383963
    19  C   -0.051443
    20  H    0.258711
    21  C   -0.497727
    22  H    0.162033
    23  H    0.202367
    24  H    0.192640
    25  C    0.781474
    26  O   -0.622560
    27  N   -0.837912
    28  H    0.425190
    29  C   -0.040530
    30  H    0.219973
    31  C   -0.478937
    32  H    0.178195
    33  H    0.156877
    34  H    0.210788
    35  C    0.775818
    36  O   -0.635294
    37  N   -0.797996
    38  H    0.391961
    39  C   -0.273087
    40  H    0.203612
    41  H    0.186416
    42  H    0.173851
 Sum of Mulliken atomic charges =   0.00000

 Dipole moment (field-independent basis, Debye):
    X=              3.9934    Y=             -0.6955    Z=             -0.1518  Tot=              4.0563
 Quadrupole moment (field-independent basis, Debye-Ang):
   XX=            -90.5492   YY=           -136.0270   ZZ=           -124.2430
   XY=            -18.8105   XZ=              4.3810   YZ=             15.1968

 Normal termination of Gaussian 09 at Mon Dec 26 23:55:32 2016.
