 Gaussian 09, Revision A.02,
 Gaussian 09:  EM64L-G09RevA.02 11-Jun-2009

 -------------------------------------------------------------------
 # HF/6-31G* Opt=(ModRedundant, maxcycles=1000, calcfc) geom=nocrowd
 -------------------------------------------------------------------

 ------------------
 Phi Psi fixed scan
 ------------------
 Symbolic Z-matrix:
 Charge =  0 Multiplicity = 1

 SCF Done:  E(RHF) =  -984.531423292     A.U. after   15 cycles

  Exact polarizability:   0.000   0.000   0.000   0.000   0.000   0.000
 Approx polarizability: 134.296   4.041 132.833   4.077   3.554 121.982

 SCF Done:  E(RHF) =  -984.541746921     A.U. after   13 cycles
 SCF Done:  E(RHF) =  -984.553216979     A.U. after   13 cycles
 SCF Done:  E(RHF) =  -984.556226428     A.U. after   15 cycles
 SCF Done:  E(RHF) =  -984.558724552     A.U. after   16 cycles
 SCF Done:  E(RHF) =  -984.559951913     A.U. after   15 cycles
 SCF Done:  E(RHF) =  -984.450290930     A.U. after   16 cycles
 SCF Done:  E(RHF) =  -984.560377158     A.U. after   16 cycles
 SCF Done:  E(RHF) =  -984.545116734     A.U. after   16 cycles
 SCF Done:  E(RHF) =  -984.560658970     A.U. after   16 cycles
 SCF Done:  E(RHF) =  -984.560723110     A.U. after    9 cycles
 SCF Done:  E(RHF) =  -984.560724034     A.U. after   10 cycles
 SCF Done:  E(RHF) =  -984.560724320     A.U. after    9 cycles
 SCF Done:  E(RHF) =  -984.560724417     A.U. after    8 cycles
 SCF Done:  E(RHF) =  -984.560724511     A.U. after    8 cycles
 SCF Done:  E(RHF) =  -984.560724686     A.U. after    8 cycles
 SCF Done:  E(RHF) =  -984.560724941     A.U. after    9 cycles
 SCF Done:  E(RHF) =  -984.560725221     A.U. after    8 cycles
 SCF Done:  E(RHF) =  -984.560725494     A.U. after    9 cycles
 SCF Done:  E(RHF) =  -984.560725551     A.U. after    9 cycles
 Optimization completed.
    -- Stationary point found.

                         Standard orientation:
 ---------------------------------------------------------------------
 Center     Atomic      Atomic             Coordinates (Angstroms)
 Number     Number       Type             X           Y           Z
 ---------------------------------------------------------------------
      1          1           0       -7.091494    1.682297   -1.352257
      2          6           0       -6.774060    0.782053   -0.843052
      3          1           0       -6.681651   -0.026155   -1.558326
      4          1           0       -7.539421    0.522472   -0.119668
      5          6           0       -5.488203    1.073804   -0.100107
      6          8           0       -5.344174    2.083586    0.538955
      7          7           0       -4.533061    0.126068   -0.185159
      8          1           0       -4.666719   -0.694252   -0.732272
      9          6           0       -3.257368    0.257257    0.474857
     10          1           0       -2.937557    1.288235    0.395635
     11          6           0       -3.328097   -0.134468    1.958074
     12          1           0       -3.648236   -1.165705    2.059306
     13          1           0       -2.365077   -0.025377    2.446559
     14          1           0       -4.041660    0.506216    2.458988
     15          6           0       -2.266735   -0.642359   -0.255662
     16          8           0       -2.631304   -1.594873   -0.894339
     17          7           0       -0.965628   -0.298991   -0.122161
     18          1           0       -0.748594    0.352731    0.598770
     19          6           0        0.092884   -1.233921   -0.486538
     20          1           0       -0.222612   -2.233137   -0.210371
     21          6           0        0.362597   -1.201215   -1.988723
     22          1           0        0.660835   -0.211126   -2.316908
     23          1           0        1.133306   -1.914694   -2.263985
     24          1           0       -0.543093   -1.471505   -2.513235
     25          6           0        1.281521   -0.913829    0.428008
     26          8           0        1.132945   -0.947824    1.624817
     27          7           0        2.433697   -0.545186   -0.147676
     28          1           0        2.536444   -0.498853   -1.136253
     29          6           0        3.606160   -0.209690    0.627087
     30          1           0        3.293116    0.385666    1.475585
     31          6           0        4.342647   -1.456560    1.134691
     32          1           0        4.678357   -2.061268    0.299434
     33          1           0        5.206617   -1.184985    1.731989
     34          1           0        3.672702   -2.043653    1.748581
     35          6           0        4.518417    0.614394   -0.277653
     36          8           0        4.441835    0.540019   -1.476896
     37          7           0        5.426086    1.379976    0.350922
     38          1           0        5.378767    1.472976    1.338895
     39          6           0        6.369225    2.200538   -0.382230
     40          1           0        6.862498    1.609599   -1.140415
     41          1           0        5.877385    3.037291   -0.864147
     42          1           0        7.110085    2.576866    0.309816
 ---------------------------------------------------------------------

 The electronic state is 1-A.
 Alpha  occ. eigenvalues --  -20.54410 -20.53963 -20.53378 -20.51254 -15.60497
 Alpha  occ. eigenvalues --  -15.59624 -15.59450 -15.57725 -11.36377 -11.35914
 Alpha  occ. eigenvalues --  -11.35626 -11.34147 -11.29318 -11.28645 -11.27866
 Alpha  occ. eigenvalues --  -11.27191 -11.23375 -11.22635 -11.22449 -11.22026
 Alpha  occ. eigenvalues --   -1.41508  -1.40933  -1.40150  -1.38158  -1.25336
 Alpha  occ. eigenvalues --   -1.25223  -1.24786  -1.23321  -1.07779  -1.05378
 Alpha  occ. eigenvalues --   -1.02546  -0.98478  -0.97258  -0.92018  -0.90266
 Alpha  occ. eigenvalues --   -0.87365  -0.81666  -0.80201  -0.79743  -0.78356
 Alpha  occ. eigenvalues --   -0.76033  -0.72021  -0.68693  -0.68141  -0.67058
 Alpha  occ. eigenvalues --   -0.65697  -0.65167  -0.64821  -0.64399  -0.62834
 Alpha  occ. eigenvalues --   -0.61870  -0.60858  -0.60420  -0.60155  -0.58905
 Alpha  occ. eigenvalues --   -0.58129  -0.56964  -0.56752  -0.56463  -0.55981
 Alpha  occ. eigenvalues --   -0.55331  -0.55001  -0.54173  -0.53961  -0.53549
 Alpha  occ. eigenvalues --   -0.52352  -0.51956  -0.50684  -0.49161  -0.43958
 Alpha  occ. eigenvalues --   -0.43360  -0.42293  -0.41275  -0.41075  -0.40603
 Alpha  occ. eigenvalues --   -0.39552  -0.38134
 Alpha virt. eigenvalues --    0.17424   0.18733   0.19530   0.20293   0.21141
 Alpha virt. eigenvalues --    0.22828   0.24215   0.24580   0.25605   0.27345
 Alpha virt. eigenvalues --    0.28297   0.28488   0.29114   0.30033   0.30183

 Mulliken atomic charges:
              1
     1  H    0.207373
     2  C   -0.575597
     3  H    0.172697
     4  H    0.202432
     5  C    0.756957
     6  O   -0.622729
     7  N   -0.823257
     8  H    0.417229
     9  C   -0.034295
    10  H    0.222576
    11  C   -0.494598
    12  H    0.178273
    13  H    0.171248
    14  H    0.210918
    15  C    0.782563
    16  O   -0.632519
    17  N   -0.808545
    18  H    0.403968
    19  C   -0.002714
    20  H    0.228979
    21  C   -0.520995
    22  H    0.174738
    23  H    0.168023
    24  H    0.223141
    25  C    0.744618
    26  O   -0.633603
    27  N   -0.841492
    28  H    0.441772
    29  C   -0.030798
    30  H    0.213819
    31  C   -0.488120
    32  H    0.181528
    33  H    0.163053
    34  H    0.212671
    35  C    0.777316
    36  O   -0.628898
    37  N   -0.799912
    38  H    0.391117
    39  C   -0.273725
    40  H    0.203995
    41  H    0.186847
    42  H    0.173946
 Sum of Mulliken atomic charges =   0.00000

 Dipole moment (field-independent basis, Debye):
    X=              4.9001    Y=              0.1493    Z=              0.6020  Tot=              4.9392
 Quadrupole moment (field-independent basis, Debye-Ang):
   XX=            -98.5826   YY=           -126.3323   ZZ=           -125.9223
   XY=             18.6374   XZ=             17.7136   YZ=              1.2785

 Normal termination of Gaussian 09 at Mon Dec 26 21:47:11 2016.
