 Gaussian 09, Revision A.02,
 Gaussian 09:  EM64L-G09RevA.02 11-Jun-2009

 -------------------------------------------------------------------
 # HF/6-31G* Opt=(ModRedundant, maxcycles=1000, calcfc) geom=nocrowd
 -------------------------------------------------------------------

 ------------------
 Phi Psi fixed scan
 ------------------
 Symbolic Z-matrix:
 Charge =  0 Multiplicity = 1

 SCF Done:  E(RHF) =  -984.545990698     A.U. after   15 cycles

  Exact polarizability:   0.000   0.000   0.000   0.000   0.000   0.000
 Approx polarizability: 131.102   0.794 112.556   4.123   5.231 145.053

 SCF Done:  E(RHF) =  -984.553827623     A.U. after   13 cycles
 SCF Done:  E(RHF) =  -984.562008606     A.U. after   13 cycles
 SCF Done:  E(RHF) =  -984.563821062     A.U. after   13 cycles
 SCF Done:  E(RHF) =  -984.565821301     A.U. after   15 cycles
 SCF Done:  E(RHF) =  -984.565898689     A.U. after   15 cycles
 SCF Done:  E(RHF) =  -984.566359594     A.U. after   14 cycles
 SCF Done:  E(RHF) =  -984.443926482     A.U. after   16 cycles
 SCF Done:  E(RHF) =  -984.566542547     A.U. after   16 cycles
 SCF Done:  E(RHF) =  -984.566630204     A.U. after   13 cycles
 SCF Done:  E(RHF) =  -984.566900612     A.U. after   11 cycles
 SCF Done:  E(RHF) =  -984.566901529     A.U. after    9 cycles
 SCF Done:  E(RHF) =  -984.566902012     A.U. after    9 cycles
 SCF Done:  E(RHF) =  -984.566901740     A.U. after   10 cycles
 SCF Done:  E(RHF) =  -984.566902623     A.U. after    9 cycles
 SCF Done:  E(RHF) =  -984.566902950     A.U. after    9 cycles
 SCF Done:  E(RHF) =  -984.566903206     A.U. after    9 cycles
 SCF Done:  E(RHF) =  -984.566903291     A.U. after    9 cycles
 SCF Done:  E(RHF) =  -984.566903359     A.U. after    8 cycles
 SCF Done:  E(RHF) =  -984.566903362     A.U. after    6 cycles
 Optimization completed.
    -- Stationary point found.

                         Standard orientation:
 ---------------------------------------------------------------------
 Center     Atomic      Atomic             Coordinates (Angstroms)
 Number     Number       Type             X           Y           Z
 ---------------------------------------------------------------------
      1          1           0       -7.263694   -0.668351   -1.479592
      2          6           0       -6.807435    0.170020   -0.964577
      3          1           0       -7.553163    0.601523   -0.310067
      4          1           0       -6.499689    0.905050   -1.698279
      5          6           0       -5.663816   -0.348539   -0.119767
      6          8           0       -5.858838   -0.986304    0.882320
      7          7           0       -4.425126   -0.068017   -0.571890
      8          1           0       -4.284944    0.482292   -1.389038
      9          6           0       -3.236553   -0.494871    0.124701
     10          1           0       -3.407738   -0.385398    1.188306
     11          6           0       -2.882799   -1.958315   -0.173555
     12          1           0       -2.690157   -2.090952   -1.232774
     13          1           0       -2.004002   -2.272117    0.379765
     14          1           0       -3.713539   -2.588688    0.114343
     15          6           0       -2.098290    0.424565   -0.308364
     16          8           0       -2.143808    1.038419   -1.344179
     17          7           0       -1.037021    0.455406    0.519152
     18          1           0       -1.096943    0.033677    1.419929
     19          6           0        0.127722    1.284429    0.268950
     20          1           0        0.237599    1.358015   -0.802752
     21          6           0       -0.009402    2.684232    0.867127
     22          1           0       -0.132750    2.625351    1.941520
     23          1           0        0.872781    3.280445    0.654079
     24          1           0       -0.869688    3.180871    0.435285
     25          6           0        1.313808    0.550915    0.885840
     26          8           0        1.315034    0.282750    2.062678
     27          7           0        2.304221    0.207845    0.051671
     28          1           0        2.275000    0.450938   -0.914089
     29          6           0        3.497414   -0.469610    0.503984
     30          1           0        3.771722   -0.063262    1.469481
     31          6           0        3.282170   -1.982655    0.640055
     32          1           0        3.016267   -2.412696   -0.319226
     33          1           0        4.178014   -2.475827    1.002309
     34          1           0        2.480772   -2.167814    1.342970
     35          6           0        4.597367   -0.176520   -0.513196
     36          8           0        4.334875    0.149389   -1.641789
     37          7           0        5.856336   -0.349883   -0.076035
     38          1           0        6.012815   -0.523789    0.889504
     39          6           0        6.999507   -0.123841   -0.937481
     40          1           0        7.137655    0.930410   -1.147181
     41          1           0        7.883686   -0.505031   -0.445097
     42          1           0        6.864861   -0.645008   -1.874228
 ---------------------------------------------------------------------

 The electronic state is 1-A.
 Alpha  occ. eigenvalues --  -20.54303 -20.53710 -20.53409 -20.51275 -15.60397
 Alpha  occ. eigenvalues --  -15.59598 -15.59564 -15.57726 -11.36278 -11.35754
 Alpha  occ. eigenvalues --  -11.35667 -11.34165 -11.29221 -11.28532 -11.27969
 Alpha  occ. eigenvalues --  -11.27118 -11.23317 -11.22651 -11.22411 -11.22148
 Alpha  occ. eigenvalues --   -1.41402  -1.40789  -1.40051  -1.38175  -1.25298
 Alpha  occ. eigenvalues --   -1.25159  -1.24872  -1.23343  -1.07655  -1.05462
 Alpha  occ. eigenvalues --   -1.02764  -0.98513  -0.97188  -0.92244  -0.90113
 Alpha  occ. eigenvalues --   -0.86881  -0.81763  -0.80484  -0.79838  -0.78497
 Alpha  occ. eigenvalues --   -0.76036  -0.71636  -0.68798  -0.67719  -0.67401
 Alpha  occ. eigenvalues --   -0.65288  -0.65205  -0.64856  -0.63868  -0.62748
 Alpha  occ. eigenvalues --   -0.62194  -0.61136  -0.60870  -0.60011  -0.59778
 Alpha  occ. eigenvalues --   -0.58370  -0.56970  -0.56857  -0.56541  -0.55886
 Alpha  occ. eigenvalues --   -0.54945  -0.54514  -0.54168  -0.53547  -0.53149
 Alpha  occ. eigenvalues --   -0.52456  -0.51764  -0.50997  -0.49275  -0.43905
 Alpha  occ. eigenvalues --   -0.43417  -0.42973  -0.41143  -0.41085  -0.39843
 Alpha  occ. eigenvalues --   -0.39611  -0.38018
 Alpha virt. eigenvalues --    0.17400   0.18636   0.20123   0.20401   0.21748
 Alpha virt. eigenvalues --    0.23092   0.23479   0.24349   0.25647   0.27265
 Alpha virt. eigenvalues --    0.27762   0.28460   0.29029   0.29513   0.30565

 Mulliken atomic charges:
              1
     1  H    0.202538
     2  C   -0.575305
     3  H    0.207256
     4  H    0.172730
     5  C    0.756477
     6  O   -0.622648
     7  N   -0.824633
     8  H    0.418604
     9  C   -0.028610
    10  H    0.217718
    11  C   -0.486685
    12  H    0.175415
    13  H    0.163895
    14  H    0.211565
    15  C    0.791081
    16  O   -0.638414
    17  N   -0.830212
    18  H    0.410316
    19  C   -0.033323
    20  H    0.228121
    21  C   -0.490954
    22  H    0.189824
    23  H    0.169053
    24  H    0.194434
    25  C    0.793513
    26  O   -0.646111
    27  N   -0.830627
    28  H    0.428384
    29  C   -0.039905
    30  H    0.215585
    31  C   -0.484370
    32  H    0.182794
    33  H    0.162364
    34  H    0.208903
    35  C    0.777583
    36  O   -0.628008
    37  N   -0.799610
    38  H    0.390743
    39  C   -0.273582
    40  H    0.186000
    41  H    0.173555
    42  H    0.204545
 Sum of Mulliken atomic charges =   0.00000

 Dipole moment (field-independent basis, Debye):
    X=              5.4805    Y=             -0.0073    Z=             -0.0943  Tot=              5.4813
 Quadrupole moment (field-independent basis, Debye-Ang):
   XX=            -98.3851   YY=           -118.9921   ZZ=           -132.7558
   XY=            -11.9787   XZ=             20.3856   YZ=              3.8484

 Normal termination of Gaussian 09 at Tue Dec 27 01:34:56 2016.
