 Gaussian 09, Revision A.02,
 Gaussian 09:  EM64L-G09RevA.02 11-Jun-2009

 -------------------------------------------------------------------
 # HF/6-31G* Opt=(ModRedundant, maxcycles=1000, calcfc) geom=nocrowd
 -------------------------------------------------------------------

 ------------------
 Phi Psi fixed scan
 ------------------
 Symbolic Z-matrix:
 Charge =  0 Multiplicity = 1

 SCF Done:  E(RHF) =  -984.535691779     A.U. after   15 cycles

  Exact polarizability:   0.000   0.000   0.000   0.000   0.000   0.000
 Approx polarizability: 134.833   0.662 136.276   2.215  10.699 117.798

 SCF Done:  E(RHF) =  -984.545697013     A.U. after   12 cycles
 SCF Done:  E(RHF) =  -984.556780882     A.U. after   16 cycles
 SCF Done:  E(RHF) =  -984.559917579     A.U. after   16 cycles
 SCF Done:  E(RHF) =  -984.563067606     A.U. after   13 cycles
 SCF Done:  E(RHF) =  -984.564053946     A.U. after   16 cycles
 SCF Done:  E(RHF) =  -984.548620143     A.U. after   16 cycles
 SCF Done:  E(RHF) =  -984.564673348     A.U. after   16 cycles
 SCF Done:  E(RHF) =  -984.551437204     A.U. after   16 cycles
 SCF Done:  E(RHF) =  -984.564893997     A.U. after   16 cycles
 SCF Done:  E(RHF) =  -984.565051020     A.U. after   10 cycles
 SCF Done:  E(RHF) =  -984.565051213     A.U. after    8 cycles
 SCF Done:  E(RHF) =  -984.565051459     A.U. after    8 cycles
 SCF Done:  E(RHF) =  -984.565051812     A.U. after    8 cycles
 SCF Done:  E(RHF) =  -984.565052225     A.U. after    9 cycles
 SCF Done:  E(RHF) =  -984.565052990     A.U. after    9 cycles
 SCF Done:  E(RHF) =  -984.565054351     A.U. after   10 cycles
 SCF Done:  E(RHF) =  -984.565054551     A.U. after    9 cycles
 SCF Done:  E(RHF) =  -984.565054581     A.U. after    7 cycles
 SCF Done:  E(RHF) =  -984.565054586     A.U. after    6 cycles
 Optimization completed.
    -- Stationary point found.

                         Standard orientation:
 ---------------------------------------------------------------------
 Center     Atomic      Atomic             Coordinates (Angstroms)
 Number     Number       Type             X           Y           Z
 ---------------------------------------------------------------------
      1          1           0       -7.391601    1.188150    1.335269
      2          6           0       -6.968006    0.806835    0.415465
      3          1           0       -6.770486    1.629563   -0.260866
      4          1           0       -7.700600    0.148552   -0.038532
      5          6           0       -5.734522   -0.003887    0.750550
      6          8           0       -5.734148   -0.808712    1.645674
      7          7           0       -4.655468    0.220552   -0.025325
      8          1           0       -4.670808    0.907770   -0.744751
      9          6           0       -3.406237   -0.473262    0.171699
     10          1           0       -3.230641   -0.567055    1.235584
     11          6           0       -3.414031   -1.872962   -0.459952
     12          1           0       -3.584157   -1.802073   -1.528929
     13          1           0       -2.474474   -2.390242   -0.294516
     14          1           0       -4.209447   -2.456459   -0.015802
     15          6           0       -2.304744    0.376910   -0.451928
     16          8           0       -2.542135    1.186182   -1.312022
     17          7           0       -1.061237    0.147018    0.020272
     18          1           0       -0.914568   -0.690573    0.540237
     19          6           0        0.107271    0.644026   -0.683281
     20          1           0       -0.078480    0.586902   -1.751872
     21          6           0        0.391355    2.101538   -0.317156
     22          1           0        0.673637    2.196301    0.725588
     23          1           0        1.175886    2.526538   -0.934878
     24          1           0       -0.504010    2.682371   -0.487967
     25          6           0        1.244222   -0.343221   -0.394620
     26          8           0        1.001513   -1.507367   -0.184087
     27          7           0        2.490559    0.146271   -0.378982
     28          1           0        2.677713    1.114928   -0.507242
     29          6           0        3.643123   -0.693636   -0.145714
     30          1           0        3.397843   -1.396431    0.640558
     31          6           0        4.057458   -1.470863   -1.402087
     32          1           0        4.322376   -0.784614   -2.198862
     33          1           0        4.909362   -2.112344   -1.202955
     34          1           0        3.232511   -2.089480   -1.729654
     35          6           0        4.776350    0.221008    0.312185
     36          8           0        4.774145    1.396771    0.053005
     37          7           0        5.778974   -0.379961    0.974440
     38          1           0        5.678537   -1.331132    1.243179
     39          6           0        6.927389    0.362234    1.454732
     40          1           0        7.333017    0.970727    0.659461
     41          1           0        6.664615    1.009342    2.283340
     42          1           0        7.681206   -0.341211    1.780852
 ---------------------------------------------------------------------

 The electronic state is 1-A.
 Alpha  occ. eigenvalues --  -20.54465 -20.53844 -20.53709 -20.51073 -15.60533
 Alpha  occ. eigenvalues --  -15.59662 -15.58824 -15.57535 -11.36431 -11.36219
 Alpha  occ. eigenvalues --  -11.35365 -11.33979 -11.29380 -11.28763 -11.27629
 Alpha  occ. eigenvalues --  -11.27223 -11.23433 -11.22595 -11.22511 -11.21852
 Alpha  occ. eigenvalues --   -1.41628  -1.40909  -1.40229  -1.37975  -1.25415
 Alpha  occ. eigenvalues --   -1.25270  -1.24602  -1.23133  -1.07831  -1.05326
 Alpha  occ. eigenvalues --   -1.02437  -0.98324  -0.97293  -0.92060  -0.90271
 Alpha  occ. eigenvalues --   -0.87243  -0.81851  -0.80331  -0.79346  -0.78104
 Alpha  occ. eigenvalues --   -0.76070  -0.71868  -0.68577  -0.68147  -0.67137
 Alpha  occ. eigenvalues --   -0.65822  -0.65296  -0.64951  -0.64363  -0.62582
 Alpha  occ. eigenvalues --   -0.61672  -0.60894  -0.60421  -0.59968  -0.59285
 Alpha  occ. eigenvalues --   -0.57919  -0.57000  -0.56703  -0.56473  -0.56121
 Alpha  occ. eigenvalues --   -0.55331  -0.55165  -0.54099  -0.53870  -0.53264
 Alpha  occ. eigenvalues --   -0.52167  -0.52060  -0.50536  -0.48984  -0.44011
 Alpha  occ. eigenvalues --   -0.43187  -0.42735  -0.41322  -0.40898  -0.40315
 Alpha  occ. eigenvalues --   -0.39756  -0.37958
 Alpha virt. eigenvalues --    0.17470   0.18763   0.19721   0.20297   0.21410
 Alpha virt. eigenvalues --    0.23576   0.24412   0.24632   0.25641   0.27245
 Alpha virt. eigenvalues --    0.28297   0.28472   0.29148   0.30052   0.30266

 Mulliken atomic charges:
              1
     1  H    0.206620
     2  C   -0.575100
     3  H    0.172013
     4  H    0.202217
     5  C    0.757031
     6  O   -0.622973
     7  N   -0.824205
     8  H    0.417391
     9  C   -0.032038
    10  H    0.223918
    11  C   -0.496161
    12  H    0.175082
    13  H    0.172833
    14  H    0.211528
    15  C    0.777420
    16  O   -0.636811
    17  N   -0.810762
    18  H    0.418387
    19  C   -0.029749
    20  H    0.229809
    21  C   -0.507390
    22  H    0.177302
    23  H    0.162601
    24  H    0.220600
    25  C    0.781167
    26  O   -0.645488
    27  N   -0.848928
    28  H    0.439950
    29  C   -0.031267
    30  H    0.215390
    31  C   -0.487564
    32  H    0.181959
    33  H    0.163041
    34  H    0.211472
    35  C    0.777645
    36  O   -0.629437
    37  N   -0.799829
    38  H    0.391138
    39  C   -0.273874
    40  H    0.204360
    41  H    0.186623
    42  H    0.174078
 Sum of Mulliken atomic charges =   0.00000

 Dipole moment (field-independent basis, Debye):
    X=              5.5255    Y=             -0.5516    Z=             -0.1781  Tot=              5.5558
 Quadrupole moment (field-independent basis, Debye-Ang):
   XX=           -101.0539   YY=           -126.1465   ZZ=           -123.5953
   XY=            -21.3802   XZ=             19.3965   YZ=              3.4121

 Normal termination of Gaussian 09 at Mon Dec 26 21:35:36 2016.
