 Gaussian 09, Revision A.02,
 Gaussian 09:  EM64L-G09RevA.02 11-Jun-2009

 -------------------------------------------------------------------
 # HF/6-31G* Opt=(ModRedundant, maxcycles=1000, calcfc) geom=nocrowd
 -------------------------------------------------------------------

 ------------------
 Phi Psi fixed scan
 ------------------
 Symbolic Z-matrix:
 Charge =  0 Multiplicity = 1

 SCF Done:  E(RHF) =  -984.537957695     A.U. after   15 cycles

  Exact polarizability:   0.000   0.000   0.000   0.000   0.000   0.000
 Approx polarizability: 134.137  -5.542 136.119   6.729   6.709 118.420

 SCF Done:  E(RHF) =  -984.546333837     A.U. after   13 cycles
 SCF Done:  E(RHF) =  -984.555130560     A.U. after   13 cycles
 SCF Done:  E(RHF) =  -984.557078683     A.U. after   13 cycles
 SCF Done:  E(RHF) =  -984.559216281     A.U. after   16 cycles
 SCF Done:  E(RHF) =  -984.559335317     A.U. after   12 cycles
 SCF Done:  E(RHF) =  -984.559865887     A.U. after   14 cycles
 SCF Done:  E(RHF) =  -984.442504769     A.U. after   16 cycles
 SCF Done:  E(RHF) =  -984.560057125     A.U. after   15 cycles
 SCF Done:  E(RHF) =  -984.560178734     A.U. after   12 cycles
 SCF Done:  E(RHF) =  -984.560423068     A.U. after    9 cycles
 SCF Done:  E(RHF) =  -984.560429601     A.U. after   10 cycles
 SCF Done:  E(RHF) =  -984.560435202     A.U. after   10 cycles
 SCF Done:  E(RHF) =  -984.560438018     A.U. after   10 cycles
 SCF Done:  E(RHF) =  -984.560439778     A.U. after    9 cycles
 SCF Done:  E(RHF) =  -984.560440052     A.U. after    9 cycles
 SCF Done:  E(RHF) =  -984.560440166     A.U. after    8 cycles
 SCF Done:  E(RHF) =  -984.560440199     A.U. after    8 cycles
 SCF Done:  E(RHF) =  -984.560440212     A.U. after    6 cycles
 SCF Done:  E(RHF) =  -984.560440214     A.U. after    5 cycles
 Optimization completed.
    -- Stationary point found.

                         Standard orientation:
 ---------------------------------------------------------------------
 Center     Atomic      Atomic             Coordinates (Angstroms)
 Number     Number       Type             X           Y           Z
 ---------------------------------------------------------------------
      1          1           0       -7.034015    1.183266    0.166706
      2          6           0       -6.391097    0.902255   -0.660442
      3          1           0       -6.690889    1.480571   -1.524207
      4          1           0       -6.526882   -0.152799   -0.864713
      5          6           0       -4.965003    1.264260   -0.306555
      6          8           0       -4.586787    2.406928   -0.299048
      7          7           0       -4.160043    0.232022    0.017184
      8          1           0       -4.486253   -0.707690   -0.011784
      9          6           0       -2.778249    0.420435    0.383890
     10          1           0       -2.358993    1.187935   -0.254695
     11          6           0       -2.620257    0.849498    1.849359
     12          1           0       -3.020470    0.088336    2.510129
     13          1           0       -1.578146    1.013119    2.104241
     14          1           0       -3.160639    1.773227    2.007551
     15          6           0       -2.056640   -0.901574    0.140870
     16          8           0       -2.649940   -1.948667    0.117328
     17          7           0       -0.720130   -0.812936   -0.009901
     18          1           0       -0.294355    0.085984    0.003575
     19          6           0        0.124240   -1.996523   -0.122120
     20          1           0       -0.291780   -2.756040    0.519634
     21          6           0        0.190677   -2.530471   -1.555157
     22          1           0        0.563249   -1.782677   -2.247382
     23          1           0        0.838395   -3.399767   -1.606101
     24          1           0       -0.801594   -2.823298   -1.872869
     25          6           0        1.505881   -1.686780    0.450588
     26          8           0        1.952855   -2.299441    1.381574
     27          7           0        2.177675   -0.681163   -0.151424
     28          1           0        1.842550   -0.257629   -0.988619
     29          6           0        3.496073   -0.268390    0.270103
     30          1           0        3.516602   -0.267766    1.352391
     31          6           0        4.596140   -1.202225   -0.252013
     32          1           0        4.600142   -1.210227   -1.336612
     33          1           0        5.575313   -0.886099    0.092177
     34          1           0        4.413776   -2.206197    0.107358
     35          6           0        3.708050    1.148587   -0.256611
     36          8           0        3.095534    1.556653   -1.210166
     37          7           0        4.640779    1.876523    0.378944
     38          1           0        5.046545    1.520020    1.212791
     39          6           0        4.961880    3.229442   -0.030037
     40          1           0        4.155463    3.915862    0.199610
     41          1           0        5.854293    3.545311    0.492627
     42          1           0        5.146281    3.260562   -1.094190
 ---------------------------------------------------------------------

 The electronic state is 1-A.
 Alpha  occ. eigenvalues --  -20.54469 -20.53939 -20.53595 -20.51438 -15.60574
 Alpha  occ. eigenvalues --  -15.60104 -15.59529 -15.57900 -11.36429 -11.35962
 Alpha  occ. eigenvalues --  -11.35738 -11.34317 -11.29359 -11.28500 -11.28196
 Alpha  occ. eigenvalues --  -11.27236 -11.23382 -11.22871 -11.22762 -11.22383
 Alpha  occ. eigenvalues --   -1.41531  -1.40975  -1.40233  -1.38343  -1.26130
 Alpha  occ. eigenvalues --   -1.25335  -1.24298  -1.23513  -1.07850  -1.05416
 Alpha  occ. eigenvalues --   -1.02963  -0.98675  -0.97325  -0.92256  -0.90200
 Alpha  occ. eigenvalues --   -0.87462  -0.81676  -0.81056  -0.79908  -0.78669
 Alpha  occ. eigenvalues --   -0.76202  -0.71946  -0.69074  -0.67976  -0.66987
 Alpha  occ. eigenvalues --   -0.65588  -0.65378  -0.64277  -0.64005  -0.63455
 Alpha  occ. eigenvalues --   -0.62464  -0.61131  -0.60762  -0.60406  -0.59253
 Alpha  occ. eigenvalues --   -0.58562  -0.57410  -0.57010  -0.56695  -0.56134
 Alpha  occ. eigenvalues --   -0.55726  -0.54595  -0.54002  -0.53944  -0.53456
 Alpha  occ. eigenvalues --   -0.52659  -0.51601  -0.51161  -0.49441  -0.44204
 Alpha  occ. eigenvalues --   -0.43929  -0.42878  -0.41285  -0.41242  -0.39906
 Alpha  occ. eigenvalues --   -0.39649  -0.38192
 Alpha virt. eigenvalues --    0.17347   0.18405   0.19722   0.20248   0.21368
 Alpha virt. eigenvalues --    0.21820   0.23895   0.24099   0.25424   0.27321
 Alpha virt. eigenvalues --    0.27461   0.28454   0.28955   0.29528   0.30238

 Mulliken atomic charges:
              1
     1  H    0.202746
     2  C   -0.575681
     3  H    0.207870
     4  H    0.173416
     5  C    0.756549
     6  O   -0.622462
     7  N   -0.824072
     8  H    0.418779
     9  C   -0.031679
    10  H    0.218607
    11  C   -0.487279
    12  H    0.179775
    13  H    0.159271
    14  H    0.212438
    15  C    0.793946
    16  O   -0.633283
    17  N   -0.842046
    18  H    0.400933
    19  C   -0.033842
    20  H    0.252994
    21  C   -0.492535
    22  H    0.158828
    23  H    0.179351
    24  H    0.209152
    25  C    0.767460
    26  O   -0.612667
    27  N   -0.835003
    28  H    0.421001
    29  C   -0.036682
    30  H    0.215275
    31  C   -0.488099
    32  H    0.179718
    33  H    0.163269
    34  H    0.213081
    35  C    0.780194
    36  O   -0.632988
    37  N   -0.799601
    38  H    0.391589
    39  C   -0.273927
    40  H    0.187124
    41  H    0.174353
    42  H    0.204130
 Sum of Mulliken atomic charges =   0.00000

 Dipole moment (field-independent basis, Debye):
    X=              4.2708    Y=              0.8113    Z=              0.3778  Tot=              4.3636
 Quadrupole moment (field-independent basis, Debye-Ang):
   XX=            -93.5326   YY=           -136.6186   ZZ=           -122.7066
   XY=             18.0423   XZ=              5.2506   YZ=             13.4757

 Normal termination of Gaussian 09 at Tue Dec 27 00:00:14 2016.
