 Gaussian 09, Revision A.02,
 Gaussian 09:  EM64L-G09RevA.02 11-Jun-2009

 -------------------------------------------------------------------
 # HF/6-31G* Opt=(ModRedundant, maxcycles=1000, calcfc) geom=nocrowd
 -------------------------------------------------------------------

 ------------------
 Phi Psi fixed scan
 ------------------
 Symbolic Z-matrix:
 Charge =  0 Multiplicity = 1

 SCF Done:  E(RHF) =  -984.545621331     A.U. after   15 cycles

  Exact polarizability:   0.000   0.000   0.000   0.000   0.000   0.000
 Approx polarizability: 133.977   0.483 138.195  -0.066  15.335 116.159

 SCF Done:  E(RHF) =  -984.553913085     A.U. after   12 cycles
 SCF Done:  E(RHF) =  -984.562673305     A.U. after   13 cycles
 SCF Done:  E(RHF) =  -984.564766544     A.U. after   16 cycles
 SCF Done:  E(RHF) =  -984.567202093     A.U. after   13 cycles
 SCF Done:  E(RHF) =  -984.567850236     A.U. after   13 cycles
 SCF Done:  E(RHF) =  -984.451918767     A.U. after   16 cycles
 SCF Done:  E(RHF) =  -984.567976946     A.U. after   15 cycles
 SCF Done:  E(RHF) =  -984.430770813     A.U. after   15 cycles
 SCF Done:  E(RHF) =  -984.568163747     A.U. after   16 cycles
 SCF Done:  E(RHF) =  -984.568435090     A.U. after   15 cycles
 SCF Done:  E(RHF) =  -984.568433670     A.U. after   10 cycles
 SCF Done:  E(RHF) =  -984.568435589     A.U. after   10 cycles
 SCF Done:  E(RHF) =  -984.568411960     A.U. after   11 cycles
 SCF Done:  E(RHF) =  -984.568431222     A.U. after   10 cycles
 SCF Done:  E(RHF) =  -984.568435936     A.U. after   10 cycles
 SCF Done:  E(RHF) =  -984.568435905     A.U. after    8 cycles
 SCF Done:  E(RHF) =  -984.568435975     A.U. after    8 cycles
 SCF Done:  E(RHF) =  -984.568435978     A.U. after    8 cycles
 SCF Done:  E(RHF) =  -984.568435996     A.U. after    8 cycles
 Optimization completed on the basis of negligible forces.
    -- Stationary point found.

                         Standard orientation:
 ---------------------------------------------------------------------
 Center     Atomic      Atomic             Coordinates (Angstroms)
 Number     Number       Type             X           Y           Z
 ---------------------------------------------------------------------
      1          1           0       -7.540229   -1.172051   -0.840053
      2          6           0       -7.021193   -0.822733    0.043056
      3          1           0       -6.739511   -1.670282    0.655874
      4          1           0       -7.706893   -0.196837    0.603274
      5          6           0       -5.843417    0.022975   -0.391472
      6          8           0       -5.962517    0.888790   -1.219395
      7          7           0       -4.671143   -0.244750    0.216826
      8          1           0       -4.588604   -0.984674    0.877024
      9          6           0       -3.457753    0.468949   -0.098213
     10          1           0       -3.422634    0.630563   -1.168048
     11          6           0       -3.382499    1.826922    0.613935
     12          1           0       -3.401499    1.689708    1.689908
     13          1           0       -2.477105    2.363630    0.349772
     14          1           0       -4.233716    2.427119    0.321549
     15          6           0       -2.285928   -0.412956    0.320900
     16          8           0       -2.415896   -1.289049    1.139590
     17          7           0       -1.112225   -0.131446   -0.271112
     18          1           0       -1.021639    0.688308   -0.831008
     19          6           0        0.129592   -0.720028    0.177121
     20          1           0        0.079862   -0.861421    1.250908
     21          6           0        0.373056   -2.079140   -0.490489
     22          1           0        0.470158   -1.963744   -1.564570
     23          1           0        1.266736   -2.563718   -0.113658
     24          1           0       -0.470601   -2.724308   -0.285236
     25          6           0        1.243523    0.285785   -0.121477
     26          8           0        1.014180    1.340685   -0.660749
     27          7           0        2.480078   -0.094659    0.230916
     28          1           0        2.649886   -0.969741    0.675246
     29          6           0        3.642841    0.729459   -0.005700
     30          1           0        3.542373    1.184244   -0.983120
     31          6           0        3.796402    1.833623    1.048583
     32          1           0        3.912564    1.398381    2.035021
     33          1           0        4.661586    2.454950    0.842605
     34          1           0        2.914833    2.460822    1.042288
     35          6           0        4.857058   -0.195862    0.013318
     36          8           0        4.825413   -1.255640    0.583751
     37          7           0        5.956322    0.271283   -0.601841
     38          1           0        5.892559    1.105999   -1.136824
     39          6           0        7.187066   -0.492679   -0.646629
     40          1           0        7.444479   -0.836833    0.344598
     41          1           0        7.096888   -1.354445   -1.297505
     42          1           0        7.977355    0.147144   -1.014751
 ---------------------------------------------------------------------

 The electronic state is 1-A.
 Alpha  occ. eigenvalues --  -20.54454 -20.54216 -20.53370 -20.50999 -15.60545
 Alpha  occ. eigenvalues --  -15.59600 -15.58688 -15.57454 -11.36431 -11.36284
 Alpha  occ. eigenvalues --  -11.35267 -11.33913 -11.29426 -11.28748 -11.27566
 Alpha  occ. eigenvalues --  -11.27233 -11.23428 -11.22760 -11.22460 -11.21846
 Alpha  occ. eigenvalues --   -1.41680  -1.40956  -1.40082  -1.37895  -1.25452
 Alpha  occ. eigenvalues --   -1.25283  -1.24577  -1.23059  -1.07893  -1.05320
 Alpha  occ. eigenvalues --   -1.02475  -0.98277  -0.97307  -0.92095  -0.90254
 Alpha  occ. eigenvalues --   -0.87084  -0.81981  -0.80362  -0.79428  -0.78115
 Alpha  occ. eigenvalues --   -0.76136  -0.71670  -0.68859  -0.67728  -0.67138
 Alpha  occ. eigenvalues --   -0.65840  -0.65406  -0.64793  -0.64366  -0.62427
 Alpha  occ. eigenvalues --   -0.61488  -0.61261  -0.60644  -0.59967  -0.59762
 Alpha  occ. eigenvalues --   -0.57968  -0.57021  -0.56922  -0.56361  -0.55939
 Alpha  occ. eigenvalues --   -0.55506  -0.54893  -0.54070  -0.53736  -0.53261
 Alpha  occ. eigenvalues --   -0.52146  -0.52020  -0.50559  -0.48936  -0.44021
 Alpha  occ. eigenvalues --   -0.43405  -0.42644  -0.41418  -0.40830  -0.40430
 Alpha  occ. eigenvalues --   -0.39352  -0.37833
 Alpha virt. eigenvalues --    0.17517   0.18846   0.19909   0.20269   0.21588
 Alpha virt. eigenvalues --    0.23288   0.24300   0.24549   0.25545   0.27195
 Alpha virt. eigenvalues --    0.28223   0.28371   0.29184   0.30172   0.30189

 Mulliken atomic charges:
              1
     1  H    0.206058
     2  C   -0.574685
     3  H    0.171789
     4  H    0.202284
     5  C    0.757143
     6  O   -0.623451
     7  N   -0.825110
     8  H    0.418187
     9  C   -0.029896
    10  H    0.222556
    11  C   -0.493098
    12  H    0.173803
    13  H    0.168404
    14  H    0.212104
    15  C    0.784652
    16  O   -0.643296
    17  N   -0.825018
    18  H    0.427016
    19  C   -0.047182
    20  H    0.228618
    21  C   -0.483498
    22  H    0.174342
    23  H    0.165897
    24  H    0.210633
    25  C    0.798181
    26  O   -0.646742
    27  N   -0.841292
    28  H    0.430174
    29  C   -0.033293
    30  H    0.214563
    31  C   -0.486906
    32  H    0.182180
    33  H    0.162985
    34  H    0.210600
    35  C    0.779064
    36  O   -0.630111
    37  N   -0.799842
    38  H    0.391041
    39  C   -0.273888
    40  H    0.204512
    41  H    0.186474
    42  H    0.174047
 Sum of Mulliken atomic charges =   0.00000

 Dipole moment (field-independent basis, Debye):
    X=              5.9330    Y=              0.3440    Z=              0.0424  Tot=              5.9432
 Quadrupole moment (field-independent basis, Debye-Ang):
   XX=           -102.2269   YY=           -125.5398   ZZ=           -123.5291
   XY=             20.9876   XZ=            -20.5182   YZ=              6.7286

 Normal termination of Gaussian 09 at Mon Dec 26 22:59:35 2016.
