 Gaussian 09, Revision A.02,
 Gaussian 09:  EM64L-G09RevA.02 11-Jun-2009

 -------------------
 #SP MP2/aug-cc-pVDZ
 -------------------

 -------------------------------
 Single Point calculation at MP2
 -------------------------------
 Symbolic Z-matrix:
 Charge =  0 Multiplicity = 1

                         Standard orientation:
 ---------------------------------------------------------------------
 Center     Atomic      Atomic             Coordinates (Angstroms)
 Number     Number       Type             X           Y           Z
 ---------------------------------------------------------------------
      1          1           0       -3.667011   -1.231270   -1.159197
      2          6           0       -2.983013   -1.467075   -0.335997
      3          1           0       -2.367518   -2.323678   -0.629697
      4          1           0       -3.592314   -1.740671    0.528603
      5          6           0       -2.180405   -0.216679    0.015903
      6          8           0       -2.676800    0.693624    0.660503
      7          7           0       -0.885105   -0.231687   -0.458797
      8          1           0       -0.674710   -0.979188   -1.107997
      9          6           0        0.101201    0.858907   -0.469697
     10          1           0        0.066904    1.377007   -1.436497
     11          6           0       -0.078293    1.901208    0.646203
     12          1           0       -0.061895    1.429808    1.633603
     13          1           0        0.756512    2.605203    0.576903
     14          1           0       -1.021489    2.435114    0.544203
     15          6           0        1.534198    0.295299   -0.366797
     16          8           0        2.476802    0.906093   -0.854397
     17          7           0        1.658091   -0.876102    0.321003
     18          1           0        0.825989   -1.243697    0.762303
     19          6           0        2.949987   -1.463510    0.628503
     20          1           0        3.692790   -0.968314    0.001503
     21          1           0        3.222288   -1.315211    1.681203
     22          1           0        2.947481   -2.537210    0.412103
 ---------------------------------------------------------------------

 SCF Done:  E(RHF) =  -492.916731250     A.U. after   14 cycles
 E2 =    -0.1602136815D+01 EUMP2 =    -0.49451886806555D+03

 The electronic state is 1-A.
 Alpha  occ. eigenvalues --  -20.53894 -20.53363 -15.60979 -15.60071 -11.37541
 Alpha  occ. eigenvalues --  -11.36309 -11.29850 -11.27311 -11.25634 -11.22934
 Alpha  occ. eigenvalues --   -1.39438  -1.38727  -1.25611  -1.22948  -1.06014
 Alpha  occ. eigenvalues --   -0.99685  -0.96217  -0.88575  -0.80026  -0.77702
 Alpha  occ. eigenvalues --   -0.73311  -0.69329  -0.67480  -0.63372  -0.62974
 Alpha  occ. eigenvalues --   -0.62272  -0.60111  -0.59817  -0.57163  -0.56165
 Alpha  occ. eigenvalues --   -0.55275  -0.53554  -0.53210  -0.51973  -0.50489
 Alpha  occ. eigenvalues --   -0.44152  -0.42344  -0.40302  -0.39488
 Alpha virt. eigenvalues --    0.02336   0.03707   0.04254   0.04548   0.05563
 Alpha virt. eigenvalues --    0.06052   0.06276   0.06720   0.07109   0.08136
 Alpha virt. eigenvalues --    0.08503   0.08912   0.10984   0.11988   0.12652

 Mulliken atomic charges:
              1
     1  H    0.055298
     2  C    0.332595
     3  H   -0.138798
     4  H    0.011382
     5  C    0.705191
     6  O   -0.826816
     7  N   -0.318969
     8  H   -0.068234
     9  C   -0.100791
    10  H   -0.193658
    11  C    0.708799
    12  H   -0.044538
    13  H   -0.063700
    14  H    0.023760
    15  C    1.038317
    16  O   -0.864880
    17  N   -0.618170
    18  H   -0.042633
    19  C    0.739455
    20  H   -0.133616
    21  H   -0.079244
    22  H   -0.120748
 Sum of Mulliken atomic charges =   0.00000

 Dipole moment (field-independent basis, Debye):
    X=             -0.7272    Y=             -4.6618    Z=             -0.1791  Tot=              4.7216
 Quadrupole moment (field-independent basis, Debye-Ang):
   XX=            -72.8139   YY=            -58.4829   ZZ=            -61.2966
   XY=              0.2983   XZ=             10.7860   YZ=              0.2726

 Normal termination of Gaussian 09 at Sun Feb 12 22:19:41 2017.
