 Gaussian 09, Revision A.02,
 Gaussian 09:  EM64L-G09RevA.02 11-Jun-2009

 -------------------
 #SP MP2/aug-cc-pVDZ
 -------------------

 -------------------------------
 Single Point calculation at MP2
 -------------------------------
 Symbolic Z-matrix:
 Charge =  0 Multiplicity = 1

                         Standard orientation:
 ---------------------------------------------------------------------
 Center     Atomic      Atomic             Coordinates (Angstroms)
 Number     Number       Type             X           Y           Z
 ---------------------------------------------------------------------
      1          1           0        3.826994   -1.460710    0.401195
      2          6           0        2.996394   -1.478408   -0.312605
      3          1           0        2.418492   -2.395107   -0.158005
      4          1           0        3.429394   -1.493109   -1.316405
      5          6           0        2.186397   -0.194206   -0.155405
      6          8           0        2.650899    0.890293   -0.481705
      7          7           0        0.933697   -0.383303    0.369395
      8          1           0        0.718494   -1.312703    0.706795
      9          6           0       -0.070901    0.622499    0.750395
     10          1           0       -0.018901    0.784999    1.834595
     11          6           0        0.075102    1.974899    0.044495
     12          1           0        0.134002    1.876398   -1.044305
     13          1           0       -0.788697    2.598901    0.299595
     14          1           0        0.988403    2.479596    0.355995
     15          6           0       -1.438503   -0.067598    0.531595
     16          8           0       -1.925704   -0.759697    1.420495
     17          7           0       -1.995202    0.074403   -0.701605
     18          1           0       -1.512801    0.637602   -1.386205
     19          6           0       -3.233504   -0.580494   -1.085405
     20          1           0       -3.612505   -1.103793   -0.206805
     21          1           0       -3.977702    0.151608   -1.419205
     22          1           0       -3.066106   -1.306294   -1.890505
 ---------------------------------------------------------------------

 SCF Done:  E(RHF) =  -492.914904819     A.U. after   14 cycles
 E2 =    -0.1601634913D+01 EUMP2 =    -0.49451653973178D+03

 The electronic state is 1-A.
 Alpha  occ. eigenvalues --  -20.53817 -20.53092 -15.60421 -15.60224 -11.36883
 Alpha  occ. eigenvalues --  -11.36555 -11.29974 -11.27361 -11.24924 -11.23734
 Alpha  occ. eigenvalues --   -1.39248  -1.38438  -1.24729  -1.23484  -1.06020
 Alpha  occ. eigenvalues --   -0.99339  -0.95924  -0.89633  -0.79975  -0.77682
 Alpha  occ. eigenvalues --   -0.72799  -0.69111  -0.66769  -0.64891  -0.62397
 Alpha  occ. eigenvalues --   -0.61972  -0.59415  -0.59059  -0.56857  -0.55965
 Alpha  occ. eigenvalues --   -0.55669  -0.54204  -0.53601  -0.52208  -0.50930
 Alpha  occ. eigenvalues --   -0.43915  -0.42066  -0.40052  -0.39111
 Alpha virt. eigenvalues --    0.02875   0.03701   0.04266   0.04819   0.05590
 Alpha virt. eigenvalues --    0.05915   0.06369   0.06843   0.07107   0.07729
 Alpha virt. eigenvalues --    0.09048   0.09830   0.11149   0.11874   0.13012

 Mulliken atomic charges:
              1
     1  H    0.053627
     2  C    0.393075
     3  H   -0.152282
     4  H    0.024956
     5  C    0.609548
     6  O   -0.837801
     7  N   -0.479429
     8  H   -0.083474
     9  C    0.423604
    10  H   -0.156471
    11  C    0.679963
    12  H    0.029012
    13  H   -0.108675
    14  H   -0.016420
    15  C    0.816048
    16  O   -0.898025
    17  N   -0.593802
    18  H   -0.090929
    19  C    0.730782
    20  H   -0.150034
    21  H   -0.098436
    22  H   -0.094838
 Sum of Mulliken atomic charges =   0.00000

 Dipole moment (field-independent basis, Debye):
    X=             -0.9389    Y=             -1.0753    Z=             -2.0400  Tot=              2.4899
 Quadrupole moment (field-independent basis, Debye-Ang):
   XX=            -66.2318   YY=            -59.8623   ZZ=            -62.8774
   XY=            -11.3487   XZ=             10.7611   YZ=              3.5563

 Normal termination of Gaussian 09 at Sun Feb 12 22:15:01 2017.
