 Gaussian 09, Revision A.02,
 Gaussian 09:  EM64L-G09RevA.02 11-Jun-2009

 -------------------
 #SP MP2/aug-cc-pVDZ
 -------------------

 -------------------------------
 Single Point calculation at MP2
 -------------------------------
 Symbolic Z-matrix:
 Charge =  0 Multiplicity = 1

                         Standard orientation:
 ---------------------------------------------------------------------
 Center     Atomic      Atomic             Coordinates (Angstroms)
 Number     Number       Type             X           Y           Z
 ---------------------------------------------------------------------
      1          1           0       -4.207007   -1.089959   -0.235900
      2          6           0       -3.187909   -1.292669    0.099100
      3          1           0       -2.816118   -2.200973   -0.385700
      4          1           0       -3.215411   -1.469269    1.181300
      5          6           0       -2.324997   -0.070078   -0.190400
      6          8           0       -2.792385    1.061527   -0.209200
      7          7           0       -1.007200   -0.360791   -0.459600
      8          1           0       -0.709409   -1.293394   -0.185100
      9          6           0        0.096810    0.591298   -0.341000
     10          1           0        0.253015    1.091996   -1.306500
     11          6           0       -0.087679    1.665400    0.752300
     12          1           0       -0.193384    1.188001    1.732100
     13          1           0        0.790527    2.320291    0.780800
     14          1           0       -0.978973    2.258709    0.552100
     15          6           0        1.342601   -0.240715    0.021500
     16          8           0        1.251591   -1.286214    0.659800
     17          7           0        2.522207    0.267073   -0.424700
     18          1           0        2.504715    1.131674   -0.946900
     19          6           0        3.810101   -0.324040   -0.101100
     20          1           0        3.616891   -1.263338    0.418200
     21          1           0        4.382999   -0.526745   -1.012500
     22          1           0        4.399907    0.331355    0.551000
 ---------------------------------------------------------------------

 SCF Done:  E(RHF) =  -492.921013489     A.U. after   14 cycles
 E2 =    -0.1601877366D+01 EUMP2 =    -0.49452289085537D+03

 The electronic state is 1-A.
 Alpha  occ. eigenvalues --  -20.54517 -20.52799 -15.60966 -15.58763 -11.37301
 Alpha  occ. eigenvalues --  -11.35887 -11.29824 -11.27846 -11.24085 -11.23203
 Alpha  occ. eigenvalues --   -1.40042  -1.37937  -1.24717  -1.23258  -1.05569
 Alpha  occ. eigenvalues --   -0.98872  -0.96357  -0.88531  -0.80570  -0.76823
 Alpha  occ. eigenvalues --   -0.73177  -0.67836  -0.66417  -0.64038  -0.63495
 Alpha  occ. eigenvalues --   -0.61966  -0.60277  -0.58445  -0.56533  -0.55799
 Alpha  occ. eigenvalues --   -0.55682  -0.54826  -0.52377  -0.52149  -0.49757
 Alpha  occ. eigenvalues --   -0.43820  -0.41833  -0.40767  -0.39302
 Alpha virt. eigenvalues --    0.02659   0.04150   0.04206   0.04396   0.05817
 Alpha virt. eigenvalues --    0.05979   0.06481   0.06786   0.07623   0.08022
 Alpha virt. eigenvalues --    0.09033   0.09422   0.11386   0.12001   0.12550

 Mulliken atomic charges:
              1
     1  H   -0.029385
     2  C    0.306998
     3  H   -0.057366
     4  H    0.060077
     5  C    0.615640
     6  O   -0.837823
     7  N   -0.371698
     8  H    0.012625
     9  C   -0.346607
    10  H   -0.228695
    11  C    0.680110
    12  H   -0.004097
    13  H   -0.104588
    14  H    0.043338
    15  C    1.382844
    16  O   -0.895981
    17  N   -0.506401
    18  H   -0.108990
    19  C    0.723497
    20  H   -0.138466
    21  H   -0.107095
    22  H   -0.087937
 Sum of Mulliken atomic charges =   0.00000

 Dipole moment (field-independent basis, Debye):
    X=              3.5815    Y=              0.0286    Z=             -1.0754  Tot=              3.7396
 Quadrupole moment (field-independent basis, Debye-Ang):
   XX=            -57.7429   YY=            -63.2904   ZZ=            -61.8672
   XY=             13.8087   XZ=             -4.9839   YZ=              1.0781

 Normal termination of Gaussian 09 at Sun Feb 12 20:58:04 2017.
