 Gaussian 09, Revision A.02,
 Gaussian 09:  EM64L-G09RevA.02 11-Jun-2009

 -------------------
 #SP MP2/aug-cc-pVDZ
 -------------------

 -------------------------------
 Single Point calculation at MP2
 -------------------------------
 Symbolic Z-matrix:
 Charge =  0 Multiplicity = 1

                         Standard orientation:
 ---------------------------------------------------------------------
 Center     Atomic      Atomic             Coordinates (Angstroms)
 Number     Number       Type             X           Y           Z
 ---------------------------------------------------------------------
      1          1           0       -3.773512   -1.824506    0.085901
      2          6           0       -2.806712   -1.629505    0.555001
      3          1           0       -2.176011   -2.520705    0.468901
      4          1           0       -2.984413   -1.435006    1.619101
      5          6           0       -2.198714   -0.384105   -0.083599
      6          8           0       -2.892615    0.559794   -0.433399
      7          7           0       -0.833414   -0.439203   -0.238099
      8          1           0       -0.382313   -1.255303    0.152601
      9          6           0        0.068885    0.698698   -0.516599
     10          1           0        0.204585    0.778298   -1.606099
     11          6           0       -0.412316    2.045897    0.023701
     12          1           0       -0.502416    2.004497    1.111801
     13          1           0        0.332383    2.809998   -0.221399
     14          1           0       -1.373817    2.313596   -0.410099
     15          6           0        1.425886    0.335999    0.133501
     16          8           0        1.800685    0.803699    1.198101
     17          7           0        2.135287   -0.606200   -0.564299
     18          1           0        1.815187   -0.853501   -1.490699
     19          6           0        3.444487   -1.073999   -0.138499
     20          1           0        3.594487   -0.735199    0.887201
     21          1           0        3.494688   -2.167599   -0.172399
     22          1           0        4.244387   -0.662598   -0.766699
 ---------------------------------------------------------------------

 SCF Done:  E(RHF) =  -492.913246178     A.U. after   14 cycles
 E2 =    -0.1602469846D+01 EUMP2 =    -0.49451571602451D+03

 The electronic state is 1-A.
 Alpha  occ. eigenvalues --  -20.54334 -20.53184 -15.60817 -15.60309 -11.37025
 Alpha  occ. eigenvalues --  -11.36664 -11.29978 -11.27788 -11.24912 -11.21638
 Alpha  occ. eigenvalues --   -1.39778  -1.38501  -1.25107  -1.23297  -1.05509
 Alpha  occ. eigenvalues --   -0.99029  -0.96774  -0.87811  -0.79955  -0.77972
 Alpha  occ. eigenvalues --   -0.73248  -0.68031  -0.66976  -0.65144  -0.62740
 Alpha  occ. eigenvalues --   -0.62213  -0.60600  -0.58956  -0.56769  -0.55727
 Alpha  occ. eigenvalues --   -0.54545  -0.53987  -0.52658  -0.51397  -0.50060
 Alpha  occ. eigenvalues --   -0.44299  -0.41935  -0.40597  -0.39519
 Alpha virt. eigenvalues --    0.02266   0.03586   0.04126   0.04687   0.05533
 Alpha virt. eigenvalues --    0.06028   0.06421   0.06794   0.07425   0.08121
 Alpha virt. eigenvalues --    0.08787   0.09247   0.10882   0.12165   0.12903

 Mulliken atomic charges:
              1
     1  H   -0.001490
     2  C    0.338709
     3  H   -0.124525
     4  H    0.054635
     5  C    0.575576
     6  O   -0.837479
     7  N   -0.379038
     8  H   -0.014840
     9  C   -0.027304
    10  H   -0.212427
    11  C    0.645908
    12  H    0.017729
    13  H   -0.077602
    14  H    0.069743
    15  C    0.976567
    16  O   -0.798907
    17  N   -0.464944
    18  H   -0.115713
    19  C    0.729340
    20  H   -0.142493
    21  H   -0.119726
    22  H   -0.091719
 Sum of Mulliken atomic charges =   0.00000

 Dipole moment (field-independent basis, Debye):
    X=              2.4801    Y=             -4.2538    Z=             -1.9366  Tot=              5.2912
 Quadrupole moment (field-independent basis, Debye-Ang):
   XX=            -67.0956   YY=            -58.4902   ZZ=            -62.3768
   XY=              1.9790   XZ=            -10.2228   YZ=             -2.0996

 Normal termination of Gaussian 09 at Sun Feb 12 22:37:03 2017.
