 Gaussian 09, Revision A.02,
 Gaussian 09:  EM64L-G09RevA.02 11-Jun-2009

 -------------------
 #SP MP2/aug-cc-pVDZ
 -------------------

 -------------------------------
 Single Point calculation at MP2
 -------------------------------
 Symbolic Z-matrix:
 Charge =  0 Multiplicity = 1

                         Standard orientation:
 ---------------------------------------------------------------------
 Center     Atomic      Atomic             Coordinates (Angstroms)
 Number     Number       Type             X           Y           Z
 ---------------------------------------------------------------------
      1          1           0       -4.137597   -1.186983   -0.152200
      2          6           0       -3.178398   -1.265487    0.366300
      3          1           0       -2.715802   -2.227889    0.127000
      4          1           0       -3.383897   -1.233186    1.442000
      5          6           0       -2.323593   -0.057890   -0.006400
      6          8           0       -2.793088    1.075812    0.009200
      7          7           0       -1.043294   -0.370596   -0.367600
      8          1           0       -0.740998   -1.335897   -0.278500
      9          6           0        0.093210    0.526900   -0.547500
     10          1           0        0.186711    0.789899   -1.613800
     11          6           0        0.001215    1.830900    0.263700
     12          1           0        0.072314    1.632700    1.338300
     13          1           0        0.803018    2.522597   -0.021200
     14          1           0       -0.954483    2.315604    0.069600
     15          6           0        1.342706   -0.321506   -0.187200
     16          8           0        1.276301   -1.548205   -0.129000
     17          7           0        2.492709    0.366190    0.028100
     18          1           0        2.469513    1.373790   -0.008700
     19          6           0        3.758307   -0.287416    0.319600
     20          1           0        3.578102   -1.362515    0.334400
     21          1           0        4.505507   -0.057519   -0.448800
     22          1           0        4.145308    0.026383    1.295800
 ---------------------------------------------------------------------

 SCF Done:  E(RHF) =  -492.918897141     A.U. after   14 cycles
 E2 =    -0.1602091057D+01 EUMP2 =    -0.49452098819790D+03

 The electronic state is 1-A.
 Alpha  occ. eigenvalues --  -20.54541 -20.52158 -15.60878 -15.58730 -11.37444
 Alpha  occ. eigenvalues --  -11.35839 -11.30249 -11.27813 -11.23912 -11.23661
 Alpha  occ. eigenvalues --   -1.40131  -1.37449  -1.24742  -1.23298  -1.05747
 Alpha  occ. eigenvalues --   -0.98744  -0.96111  -0.89486  -0.80944  -0.76578
 Alpha  occ. eigenvalues --   -0.73241  -0.68028  -0.66396  -0.65451  -0.62850
 Alpha  occ. eigenvalues --   -0.61829  -0.59596  -0.58602  -0.56684  -0.56057
 Alpha  occ. eigenvalues --   -0.55428  -0.54783  -0.52891  -0.52330  -0.49810
 Alpha  occ. eigenvalues --   -0.43986  -0.41291  -0.40830  -0.38713
 Alpha virt. eigenvalues --    0.02674   0.04092   0.04184   0.04451   0.05792
 Alpha virt. eigenvalues --    0.06112   0.06465   0.06524   0.07545   0.07929
 Alpha virt. eigenvalues --    0.09621   0.10403   0.10964   0.11722   0.13270

 Mulliken atomic charges:
              1
     1  H    0.022104
     2  C    0.393893
     3  H   -0.149959
     4  H    0.041691
     5  C    0.588542
     6  O   -0.860427
     7  N   -0.356042
     8  H   -0.022403
     9  C   -0.100347
    10  H   -0.032590
    11  C    0.723975
    12  H   -0.037088
    13  H   -0.081835
    14  H   -0.022041
    15  C    1.047823
    16  O   -0.883745
    17  N   -0.507764
    18  H   -0.117730
    19  C    0.712008
    20  H   -0.156500
    21  H   -0.103768
    22  H   -0.097798
 Sum of Mulliken atomic charges =   0.00000

 Dipole moment (field-independent basis, Debye):
    X=              3.6284    Y=              0.4967    Z=              0.2265  Tot=              3.6693
 Quadrupole moment (field-independent basis, Debye-Ang):
   XX=            -59.0832   YY=            -64.5698   ZZ=            -60.6326
   XY=             14.7912   XZ=             -0.1111   YZ=             -1.0914

 Normal termination of Gaussian 09 at Sun Feb 12 21:55:35 2017.
