 Gaussian 09, Revision A.02,
 Gaussian 09:  EM64L-G09RevA.02 11-Jun-2009

 -------------------
 #SP MP2/aug-cc-pVDZ
 -------------------

 -------------------------------
 Single Point calculation at MP2
 -------------------------------
 Symbolic Z-matrix:
 Charge =  0 Multiplicity = 1

                         Standard orientation:
 ---------------------------------------------------------------------
 Center     Atomic      Atomic             Coordinates (Angstroms)
 Number     Number       Type             X           Y           Z
 ---------------------------------------------------------------------
      1          1           0        3.778997   -1.345063    0.823290
      2          6           0        2.992598   -1.515168    0.079690
      3          1           0        2.401203   -2.383372    0.387490
      4          1           0        3.484499   -1.735065   -0.871210
      5          6           0        2.181890   -0.231673   -0.082110
      6          8           0        2.652384    0.746730   -0.645710
      7          7           0        0.919390   -0.294681    0.454690
      8          1           0        0.707896   -1.123383    0.994990
      9          6           0       -0.078416    0.778312    0.597290
     10          1           0       -0.029719    1.177513    1.617890
     11          6           0        0.074076    1.940813   -0.391110
     12          1           0        0.094978    1.606113   -1.432610
     13          1           0       -0.777128    2.618208   -0.260410
     14          1           0        1.000373    2.485419   -0.214410
     15          6           0       -1.472512    0.111804    0.517990
     16          8           0       -2.151611   -0.055501    1.524690
     17          7           0       -1.864910   -0.272499   -0.729310
     18          1           0       -1.210711   -0.161195   -1.490510
     19          6           0       -3.116305   -0.964407   -0.981710
     20          1           0       -3.693906   -0.942910   -0.056810
     21          1           0       -3.683209   -0.464610   -1.775010
     22          1           0       -2.948799   -2.009306   -1.272410
 ---------------------------------------------------------------------

 SCF Done:  E(RHF) =  -492.914638643     A.U. after   14 cycles
 E2 =    -0.1601374103D+01 EUMP2 =    -0.49451601274579D+03

 The electronic state is 1-A.
 Alpha  occ. eigenvalues --  -20.53878 -20.53390 -15.60710 -15.60004 -11.37146
 Alpha  occ. eigenvalues --  -11.36445 -11.29907 -11.27299 -11.25205 -11.23577
 Alpha  occ. eigenvalues --   -1.39259  -1.38697  -1.25019  -1.23266  -1.06063
 Alpha  occ. eigenvalues --   -0.99511  -0.95902  -0.89377  -0.79839  -0.77886
 Alpha  occ. eigenvalues --   -0.72871  -0.69141  -0.67038  -0.64513  -0.62532
 Alpha  occ. eigenvalues --   -0.62060  -0.59622  -0.59152  -0.57027  -0.56116
 Alpha  occ. eigenvalues --   -0.55413  -0.54084  -0.53667  -0.52103  -0.51083
 Alpha  occ. eigenvalues --   -0.44067  -0.42124  -0.40197  -0.39134
 Alpha virt. eigenvalues --    0.02723   0.03693   0.04323   0.04732   0.05549
 Alpha virt. eigenvalues --    0.05970   0.06187   0.06808   0.07202   0.07772
 Alpha virt. eigenvalues --    0.08765   0.09289   0.11264   0.11961   0.12632

 Mulliken atomic charges:
              1
     1  H    0.055150
     2  C    0.378939
     3  H   -0.147359
     4  H    0.020851
     5  C    0.646031
     6  O   -0.832177
     7  N   -0.425487
     8  H   -0.087374
     9  C    0.368478
    10  H   -0.215193
    11  C    0.738779
    12  H   -0.058340
    13  H   -0.082453
    14  H    0.011149
    15  C    0.750511
    16  O   -0.841923
    17  N   -0.601979
    18  H   -0.059104
    19  C    0.722577
    20  H   -0.147286
    21  H   -0.104692
    22  H   -0.089098
 Sum of Mulliken atomic charges =   0.00000

 Dipole moment (field-independent basis, Debye):
    X=             -0.2077    Y=             -2.5461    Z=             -1.6544  Tot=              3.0435
 Quadrupole moment (field-independent basis, Debye-Ang):
   XX=            -68.9094   YY=            -57.9151   ZZ=            -63.9482
   XY=             -6.6436   XZ=             13.3179   YZ=              1.6811

 Normal termination of Gaussian 09 at Sun Feb 12 22:14:19 2017.
