 Gaussian 09, Revision A.02,
 Gaussian 09:  EM64L-G09RevA.02 11-Jun-2009

 -------------------
 #SP MP2/aug-cc-pVDZ
 -------------------

 -------------------------------
 Single Point calculation at MP2
 -------------------------------
 Symbolic Z-matrix:
 Charge =  0 Multiplicity = 1

                         Standard orientation:
 ---------------------------------------------------------------------
 Center     Atomic      Atomic             Coordinates (Angstroms)
 Number     Number       Type             X           Y           Z
 ---------------------------------------------------------------------
      1          1           0       -3.572777   -1.766732    0.500788
      2          6           0       -2.989379   -1.454929   -0.368812
      3          1           0       -3.697480   -1.187233   -1.161312
      4          1           0       -2.380674   -2.296325   -0.715812
      5          6           0       -2.180286   -0.217024    0.010888
      6          8           0       -2.664791    0.671073    0.695688
      7          7           0       -0.897286   -0.211117   -0.490312
      8          1           0       -0.683682   -0.949115   -1.148612
      9          6           0        0.097508    0.871489   -0.457512
     10          1           0        0.055705    1.436989   -1.396512
     11          6           0       -0.054598    1.854388    0.713988
     12          1           0       -0.030695    1.335288    1.676788
     13          1           0        0.785398    2.555593    0.672988
     14          1           0       -0.992801    2.402983    0.651788
     15          6           0        1.519011    0.271297   -0.419512
     16          8           0        2.424509    0.750002   -1.090712
     17          7           0        1.682617   -0.761502    0.456188
     18          1           0        0.868319   -1.079207    0.963388
     19          6           0        2.967921   -1.389395    0.702088
     20          1           0        3.690918   -0.924190    0.030488
     21          1           0        3.293220   -1.236993    1.738288
     22          1           0        2.928427   -2.466295    0.499988
 ---------------------------------------------------------------------

 SCF Done:  E(RHF) =  -492.916314880     A.U. after   14 cycles
 E2 =    -0.1601932128D+01 EUMP2 =    -0.49451824700895D+03

 The electronic state is 1-A.
 Alpha  occ. eigenvalues --  -20.53780 -20.53537 -15.60957 -15.59981 -11.37462
 Alpha  occ. eigenvalues --  -11.36329 -11.29831 -11.27304 -11.25558 -11.23161
 Alpha  occ. eigenvalues --   -1.39360  -1.38761  -1.25490  -1.22999  -1.06077
 Alpha  occ. eigenvalues --   -0.99689  -0.96107  -0.88817  -0.79908  -0.77922
 Alpha  occ. eigenvalues --   -0.73181  -0.69214  -0.67411  -0.63643  -0.62935
 Alpha  occ. eigenvalues --   -0.62191  -0.59880  -0.59669  -0.57173  -0.56289
 Alpha  occ. eigenvalues --   -0.55193  -0.53851  -0.53427  -0.51958  -0.50775
 Alpha  occ. eigenvalues --   -0.44159  -0.42132  -0.40382  -0.39303
 Alpha virt. eigenvalues --    0.02414   0.03716   0.04362   0.04489   0.05540
 Alpha virt. eigenvalues --    0.06058   0.06149   0.06776   0.07145   0.08046
 Alpha virt. eigenvalues --    0.08479   0.08937   0.11090   0.11875   0.12702

 Mulliken atomic charges:
              1
     1  H    0.012762
     2  C    0.341235
     3  H    0.054966
     4  H   -0.142608
     5  C    0.699028
     6  O   -0.831965
     7  N   -0.309375
     8  H   -0.078074
     9  C    0.055120
    10  H   -0.244533
    11  C    0.744749
    12  H   -0.058383
    13  H   -0.067423
    14  H    0.010243
    15  C    0.903898
    16  O   -0.839322
    17  N   -0.600505
    18  H   -0.045760
    19  C    0.728800
    20  H   -0.146973
    21  H   -0.085408
    22  H   -0.100469
 Sum of Mulliken atomic charges =   0.00000

 Dipole moment (field-independent basis, Debye):
    X=             -0.5903    Y=             -4.2680    Z=              0.2479  Tot=              4.3157
 Quadrupole moment (field-independent basis, Debye-Ang):
   XX=            -72.1562   YY=            -58.0451   ZZ=            -62.2985
   XY=              1.1684   XZ=             12.2396   YZ=              0.4365

 Normal termination of Gaussian 09 at Sun Feb 12 22:19:41 2017.
