 Gaussian 09, Revision A.02,
 Gaussian 09:  EM64L-G09RevA.02 11-Jun-2009

 -------------------
 #SP MP2/aug-cc-pVDZ
 -------------------

 -------------------------------
 Single Point calculation at MP2
 -------------------------------
 Symbolic Z-matrix:
 Charge =  0 Multiplicity = 1

                         Standard orientation:
 ---------------------------------------------------------------------
 Center     Atomic      Atomic             Coordinates (Angstroms)
 Number     Number       Type             X           Y           Z
 ---------------------------------------------------------------------
      1          1           0       -4.215996   -1.070388   -0.174682
      2          6           0       -3.202996   -1.262188    0.185118
      3          1           0       -2.827697   -2.191188   -0.255382
      4          1           0       -3.251496   -1.392688    1.272918
      5          6           0       -2.332996   -0.052188   -0.136482
      6          8           0       -2.790396    1.084612   -0.144482
      7          7           0       -1.030496   -0.361688   -0.439882
      8          1           0       -0.728396   -1.305988   -0.212482
      9          6           0        0.096204    0.564612   -0.406082
     10          1           0        0.239204    1.012411   -1.400182
     11          6           0       -0.038696    1.698412    0.632918
     12          1           0       -0.109896    1.279412    1.642518
     13          1           0        0.837604    2.355011    0.595418
     14          1           0       -0.937196    2.281312    0.434818
     15          6           0        1.338004   -0.287189   -0.057282
     16          8           0        1.235204   -1.426189    0.392018
     17          7           0        2.531804    0.320011   -0.286982
     18          1           0        2.529404    1.258611   -0.660482
     19          6           0        3.808704   -0.296089    0.033618
     20          1           0        3.604104   -1.305489    0.391618
     21          1           0        4.448604   -0.351389   -0.853982
     22          1           0        4.334804    0.262511    0.816818
 ---------------------------------------------------------------------

 SCF Done:  E(RHF) =  -492.921112945     A.U. after   14 cycles
 E2 =    -0.1601812125D+01 EUMP2 =    -0.49452292506996D+03

 The electronic state is 1-A.
 Alpha  occ. eigenvalues --  -20.54685 -20.52546 -15.60886 -15.58589 -11.37410
 Alpha  occ. eigenvalues --  -11.35798 -11.29942 -11.27862 -11.23969 -11.23413
 Alpha  occ. eigenvalues --   -1.40185  -1.37728  -1.24746  -1.23220  -1.05611
 Alpha  occ. eigenvalues --   -0.98813  -0.96232  -0.88819  -0.80716  -0.76689
 Alpha  occ. eigenvalues --   -0.73193  -0.67924  -0.66362  -0.64549  -0.63265
 Alpha  occ. eigenvalues --   -0.61929  -0.60061  -0.58498  -0.56580  -0.55780
 Alpha  occ. eigenvalues --   -0.55719  -0.54831  -0.52579  -0.52170  -0.49722
 Alpha  occ. eigenvalues --   -0.43885  -0.41650  -0.40969  -0.38961
 Alpha virt. eigenvalues --    0.02652   0.04145   0.04192   0.04396   0.05807
 Alpha virt. eigenvalues --    0.05976   0.06557   0.06749   0.07497   0.08033
 Alpha virt. eigenvalues --    0.09210   0.09574   0.11220   0.12074   0.12676

 Mulliken atomic charges:
              1
     1  H   -0.017183
     2  C    0.328490
     3  H   -0.075356
     4  H    0.056836
     5  C    0.610836
     6  O   -0.844239
     7  N   -0.370399
     8  H   -0.003826
     9  C   -0.289105
    10  H   -0.152978
    11  C    0.671558
    12  H   -0.018743
    13  H   -0.124056
    14  H    0.037058
    15  C    1.325009
    16  O   -0.885841
    17  N   -0.516830
    18  H   -0.115821
    19  C    0.716479
    20  H   -0.138504
    21  H   -0.097946
    22  H   -0.095438
 Sum of Mulliken atomic charges =   0.00000

 Dipole moment (field-independent basis, Debye):
    X=              3.6869    Y=              0.2662    Z=             -0.5920  Tot=              3.7436
 Quadrupole moment (field-independent basis, Debye-Ang):
   XX=            -57.8984   YY=            -64.0507   ZZ=            -61.3162
   XY=             14.3447   XZ=             -3.5033   YZ=              0.4167

 Normal termination of Gaussian 09 at Sun Feb 12 21:16:41 2017.
