 Gaussian 09, Revision A.02,
 Gaussian 09:  EM64L-G09RevA.02 11-Jun-2009

 -------------------
 #SP MP2/aug-cc-pVDZ
 -------------------

 -------------------------------
 Single Point calculation at MP2
 -------------------------------
 Symbolic Z-matrix:
 Charge =  0 Multiplicity = 1

                         Standard orientation:
 ---------------------------------------------------------------------
 Center     Atomic      Atomic             Coordinates (Angstroms)
 Number     Number       Type             X           Y           Z
 ---------------------------------------------------------------------
      1          1           0       -3.638703   -1.707475    0.559200
      2          6           0       -2.978801   -1.493180   -0.284300
      3          1           0       -3.611500   -1.306475   -1.159900
      4          1           0       -2.355107   -2.369984   -0.487800
      5          6           0       -2.183593   -0.228885    0.034100
      6          8           0       -2.693286    0.707018    0.627800
      7          7           0       -0.874193   -0.269294   -0.406300
      8          1           0       -0.669598   -1.032095   -1.040500
      9          6           0        0.099115    0.831199   -0.488500
     10          1           0        0.079218    1.261399   -1.498900
     11          6           0       -0.128078    1.967701    0.521300
     12          1           0       -0.136580    1.587001    1.547200
     13          1           0        0.701727    2.671195    0.411400
     14          1           0       -1.073874    2.476707    0.344400
     15          6           0        1.542911    0.314089   -0.302300
     16          8           0        2.490716    1.016883   -0.629000
     17          7           0        1.672803   -0.945011    0.209200
     18          1           0        0.844400   -1.355506    0.619400
     19          6           0        2.973699   -1.494920    0.553000
     20          1           0        3.720702   -0.997425   -0.066900
     21          1           0        3.227500   -1.323322    1.607300
     22          1           0        2.990591   -2.571120    0.354600
 ---------------------------------------------------------------------

 SCF Done:  E(RHF) =  -492.916135071     A.U. after   14 cycles
 E2 =    -0.1602122163D+01 EUMP2 =    -0.49451825723408D+03

 The electronic state is 1-A.
 Alpha  occ. eigenvalues --  -20.53989 -20.53339 -15.60964 -15.60130 -11.37575
 Alpha  occ. eigenvalues --  -11.36312 -11.29905 -11.27312 -11.25669 -11.22647
 Alpha  occ. eigenvalues --   -1.39513  -1.38769  -1.25643  -1.22919  -1.05907
 Alpha  occ. eigenvalues --   -0.99628  -0.96255  -0.88346  -0.80124  -0.77355
 Alpha  occ. eigenvalues --   -0.73332  -0.69470  -0.67479  -0.63457  -0.62801
 Alpha  occ. eigenvalues --   -0.62318  -0.60364  -0.59783  -0.57156  -0.55843
 Alpha  occ. eigenvalues --   -0.55334  -0.53157  -0.53054  -0.52007  -0.50288
 Alpha  occ. eigenvalues --   -0.44182  -0.42687  -0.40165  -0.39683
 Alpha virt. eigenvalues --    0.02281   0.03691   0.04186   0.04598   0.05575
 Alpha virt. eigenvalues --    0.06056   0.06410   0.06629   0.07115   0.08182
 Alpha virt. eigenvalues --    0.08528   0.08902   0.10873   0.12094   0.12601

 Mulliken atomic charges:
              1
     1  H    0.006262
     2  C    0.332678
     3  H    0.057373
     4  H   -0.128900
     5  C    0.696044
     6  O   -0.812209
     7  N   -0.358687
     8  H   -0.061596
     9  C   -0.195662
    10  H   -0.116379
    11  C    0.707134
    12  H   -0.036523
    13  H   -0.063574
    14  H    0.024859
    15  C    1.044660
    16  O   -0.874994
    17  N   -0.589272
    18  H   -0.044452
    19  C    0.752568
    20  H   -0.120412
    21  H   -0.073599
    22  H   -0.145319
 Sum of Mulliken atomic charges =   0.00000

 Dipole moment (field-independent basis, Debye):
    X=             -0.7358    Y=             -4.9431    Z=             -0.5657  Tot=              5.0294
 Quadrupole moment (field-independent basis, Debye-Ang):
   XX=            -72.9305   YY=            -58.8528   ZZ=            -60.5848
   XY=             -0.2203   XZ=              9.2512   YZ=             -0.1751

 Normal termination of Gaussian 09 at Sun Feb 12 22:38:09 2017.
