 Gaussian 09, Revision A.02,
 Gaussian 09:  EM64L-G09RevA.02 11-Jun-2009

 -------------------
 #SP MP2/aug-cc-pVDZ
 -------------------

 -------------------------------
 Single Point calculation at MP2
 -------------------------------
 Symbolic Z-matrix:
 Charge =  0 Multiplicity = 1

                         Standard orientation:
 ---------------------------------------------------------------------
 Center     Atomic      Atomic             Coordinates (Angstroms)
 Number     Number       Type             X           Y           Z
 ---------------------------------------------------------------------
      1          1           0       -3.974387   -1.345702   -0.080218
      2          6           0       -3.068887   -1.334799    0.534582
      3          1           0       -2.544884   -2.287898    0.413882
      4          1           0       -3.385287   -1.232700    1.577082
      5          6           0       -2.239591   -0.109797    0.158382
      6          8           0       -2.696094    1.021202    0.280182
      7          7           0       -0.990090   -0.405093   -0.311118
      8          1           0       -0.746287   -1.378592   -0.444218
      9          6           0        0.073307    0.503410   -0.756518
     10          1           0        0.052307    0.565510   -1.854918
     11          6           0       -0.026097    1.923110   -0.192218
     12          1           0       -0.032797    1.927310    0.903082
     13          1           0        0.823401    2.515013   -0.554218
     14          1           0       -0.950298    2.400207   -0.512618
     15          6           0        1.379210   -0.260086   -0.423218
     16          8           0        1.544913   -1.383585   -0.894718
     17          7           0        2.251808    0.326517    0.434982
     18          1           0        2.039705    1.246016    0.791082
     19          6           0        3.494110   -0.308379    0.843182
     20          1           0        3.531213   -1.290179    0.370082
     21          1           0        4.362408    0.279524    0.523382
     22          1           0        3.530010   -0.430179    1.931682
 ---------------------------------------------------------------------

 SCF Done:  E(RHF) =  -492.916701178     A.U. after   14 cycles
 E2 =    -0.1601956366D+01 EUMP2 =    -0.49451865754371D+03

 The electronic state is 1-A.
 Alpha  occ. eigenvalues --  -20.53795 -20.52480 -15.60777 -15.59694 -11.36947
 Alpha  occ. eigenvalues --  -11.36334 -11.30137 -11.27608 -11.24372 -11.23733
 Alpha  occ. eigenvalues --   -1.39462  -1.37853  -1.24510  -1.23667  -1.05936
 Alpha  occ. eigenvalues --   -0.99004  -0.96043  -0.89808  -0.80498  -0.77138
 Alpha  occ. eigenvalues --   -0.72925  -0.68746  -0.66410  -0.65423  -0.62574
 Alpha  occ. eigenvalues --   -0.61707  -0.59149  -0.58882  -0.56556  -0.55949
 Alpha  occ. eigenvalues --   -0.55797  -0.54453  -0.53400  -0.52367  -0.50378
 Alpha  occ. eigenvalues --   -0.43861  -0.41667  -0.40168  -0.38911
 Alpha virt. eigenvalues --    0.02860   0.03871   0.04217   0.04709   0.05570
 Alpha virt. eigenvalues --    0.06182   0.06473   0.06687   0.07147   0.07910
 Alpha virt. eigenvalues --    0.09494   0.09753   0.10708   0.11627   0.13049

 Mulliken atomic charges:
              1
     1  H    0.045453
     2  C    0.399817
     3  H   -0.183628
     4  H    0.031931
     5  C    0.572011
     6  O   -0.849075
     7  N   -0.462420
     8  H   -0.056477
     9  C    0.159963
    10  H   -0.047312
    11  C    0.784034
    12  H    0.067723
    13  H   -0.075915
    14  H   -0.093480
    15  C    0.945000
    16  O   -0.928465
    17  N   -0.589432
    18  H   -0.113284
    19  C    0.735408
    20  H   -0.148219
    21  H   -0.094558
    22  H   -0.099076
 Sum of Mulliken atomic charges =   0.00000

 Dipole moment (field-independent basis, Debye):
    X=              2.3922    Y=              0.2485    Z=              1.3399  Tot=              2.7531
 Quadrupole moment (field-independent basis, Debye-Ang):
   XX=            -61.8218   YY=            -63.3093   ZZ=            -60.9442
   XY=             14.5116   XZ=              5.7693   YZ=             -3.6733

 Normal termination of Gaussian 09 at Sun Feb 12 21:48:18 2017.
