 Gaussian 09, Revision A.02,
 Gaussian 09:  EM64L-G09RevA.02 11-Jun-2009

 -------------------
 #SP MP2/aug-cc-pVDZ
 -------------------

 -------------------------------
 Single Point calculation at MP2
 -------------------------------
 Symbolic Z-matrix:
 Charge =  0 Multiplicity = 1

                         Standard orientation:
 ---------------------------------------------------------------------
 Center     Atomic      Atomic             Coordinates (Angstroms)
 Number     Number       Type             X           Y           Z
 ---------------------------------------------------------------------
      1          1           0       -4.006005   -1.507418   -0.088609
      2          6           0       -2.988105   -1.512614    0.305391
      3          1           0       -2.494101   -2.450112    0.028991
      4          1           0       -3.045405   -1.466314    1.399791
      5          6           0       -2.256710   -0.280611   -0.215509
      6          8           0       -2.848515    0.744787   -0.520009
      7          7           0       -0.892510   -0.445105   -0.345009
      8          1           0       -0.538206   -1.271404    0.122091
      9          6           0        0.083286    0.663799   -0.381409
     10          1           0        0.240684    0.950000   -1.430409
     11          6           0       -0.317920    1.909397    0.421191
     12          1           0       -0.413619    1.649497    1.478791
     13          1           0        0.468777    2.666701    0.325191
     14          1           0       -1.259721    2.317193    0.057591
     15          6           0        1.386088    0.099905    0.221591
     16          8           0        1.482889   -0.139395    1.419891
     17          7           0        2.368989   -0.174391   -0.682509
     18          1           0        2.210788    0.066108   -1.650409
     19          6           0        3.667091   -0.703186   -0.298709
     20          1           0        3.631092   -0.908386    0.771991
     21          1           0        3.885295   -1.631685   -0.838109
     22          1           0        4.467688    0.019018   -0.498609
 ---------------------------------------------------------------------

 SCF Done:  E(RHF) =  -492.915339963     A.U. after   14 cycles
 E2 =    -0.1602565391D+01 EUMP2 =    -0.49451790535327D+03

 The electronic state is 1-A.
 Alpha  occ. eigenvalues --  -20.54091 -20.53296 -15.60983 -15.59773 -11.37006
 Alpha  occ. eigenvalues --  -11.36388 -11.29799 -11.27749 -11.24617 -11.22136
 Alpha  occ. eigenvalues --   -1.39648  -1.38453  -1.24659  -1.23456  -1.05429
 Alpha  occ. eigenvalues --   -0.99017  -0.96633  -0.87922  -0.80116  -0.77487
 Alpha  occ. eigenvalues --   -0.73197  -0.67643  -0.66792  -0.64471  -0.62941
 Alpha  occ. eigenvalues --   -0.62060  -0.60576  -0.58602  -0.56631  -0.55766
 Alpha  occ. eigenvalues --   -0.55280  -0.54494  -0.52477  -0.51299  -0.49948
 Alpha  occ. eigenvalues --   -0.43856  -0.41760  -0.40816  -0.39619
 Alpha virt. eigenvalues --    0.02565   0.03791   0.04261   0.04597   0.05632
 Alpha virt. eigenvalues --    0.06082   0.06217   0.06772   0.07796   0.08079
 Alpha virt. eigenvalues --    0.08899   0.09205   0.11480   0.12257   0.12428

 Mulliken atomic charges:
              1
     1  H   -0.035689
     2  C    0.318461
     3  H   -0.060380
     4  H    0.062622
     5  C    0.672961
     6  O   -0.825599
     7  N   -0.361848
     8  H    0.008021
     9  C   -0.151424
    10  H   -0.281281
    11  C    0.661253
    12  H    0.020732
    13  H   -0.072360
    14  H    0.037927
    15  C    1.019062
    16  O   -0.825713
    17  N   -0.454145
    18  H   -0.113184
    19  C    0.726073
    20  H   -0.147683
    21  H   -0.112140
    22  H   -0.085666
 Sum of Mulliken atomic charges =   0.00000

 Dipole moment (field-independent basis, Debye):
    X=              3.0187    Y=             -2.2381    Z=             -2.2095  Tot=              4.3593
 Quadrupole moment (field-independent basis, Debye-Ang):
   XX=            -61.5351   YY=            -58.8085   ZZ=            -64.2163
   XY=              7.5314   XZ=            -10.9060   YZ=              0.1873

 Normal termination of Gaussian 09 at Sun Feb 12 20:48:10 2017.
