 Gaussian 09, Revision A.02,
 Gaussian 09:  EM64L-G09RevA.02 11-Jun-2009

 -------------------------------------------
 # HF/6-31G* Opt=(ModRedundant) geom=nocrowd
 -------------------------------------------

 ------------------
 Phi Psi fixed scan
 ------------------
 Symbolic Z-matrix:
 Charge =  0 Multiplicity = 1

 SCF Done:  E(RHF) =  -492.828297101     A.U. after   15 cycles
 SCF Done:  E(RHF) =  -492.839919086     A.U. after   14 cycles
 SCF Done:  E(RHF) =  -492.842570790     A.U. after   14 cycles
 SCF Done:  E(RHF) =  -492.843045347     A.U. after   13 cycles
 SCF Done:  E(RHF) =  -492.843471529     A.U. after   13 cycles
 SCF Done:  E(RHF) =  -492.843786019     A.U. after   16 cycles
 SCF Done:  E(RHF) =  -492.844068543     A.U. after   14 cycles
 SCF Done:  E(RHF) =  -492.844289876     A.U. after   12 cycles
 SCF Done:  E(RHF) =  -492.844350871     A.U. after   11 cycles
 SCF Done:  E(RHF) =  -492.844378790     A.U. after   11 cycles
 SCF Done:  E(RHF) =  -492.844655067     A.U. after   16 cycles
 SCF Done:  E(RHF) =  -492.844725124     A.U. after   16 cycles
 SCF Done:  E(RHF) =  -492.844674801     A.U. after   13 cycles
 SCF Done:  E(RHF) =  -492.844882964     A.U. after   16 cycles
 SCF Done:  E(RHF) =  -492.844974004     A.U. after   12 cycles
 SCF Done:  E(RHF) =  -492.844984364     A.U. after   12 cycles
 SCF Done:  E(RHF) =  -492.844985588     A.U. after   10 cycles
 SCF Done:  E(RHF) =  -492.844985871     A.U. after    9 cycles
 SCF Done:  E(RHF) =  -492.844985946     A.U. after    8 cycles
 SCF Done:  E(RHF) =  -492.844985984     A.U. after    8 cycles
 Optimization completed.
    -- Stationary point found.

                         Standard orientation:
 ---------------------------------------------------------------------
 Center     Atomic      Atomic             Coordinates (Angstroms)
 Number     Number       Type             X           Y           Z
 ---------------------------------------------------------------------
      1          1           0        3.786844   -1.272491   -0.658296
      2          6           0        2.892478   -0.849059   -1.090715
      3          1           0        2.335804   -1.639671   -1.585551
      4          1           0        3.161549   -0.106990   -1.834775
      5          6           0        2.047054   -0.254013    0.015415
      6          8           0        2.224829   -0.507718    1.167575
      7          7           0        1.089320    0.631252   -0.416675
      8          1           0        0.926021    0.638600   -1.400464
      9          6           0       -0.058376    0.991529    0.402249
     10          1           0        0.300180    1.053102    1.417831
     11          6           0       -0.593595    2.353988   -0.029120
     12          1           0       -0.848330    2.383241   -1.085886
     13          1           0       -1.475940    2.625949    0.540521
     14          1           0        0.166655    3.106561    0.138721
     15          6           0       -1.084649   -0.153167    0.423865
     16          8           0       -1.006994   -1.042235    1.221945
     17          7           0       -2.038563   -0.135122   -0.541700
     18          1           0       -2.193138    0.700820   -1.053116
     19          6           0       -3.075787   -1.145645   -0.574089
     20          1           0       -2.629485   -2.128745   -0.544034
     21          1           0       -3.755624   -1.055413    0.266316
     22          1           0       -3.635272   -1.040053   -1.494429
 ---------------------------------------------------------------------

 The electronic state is 1-A.
 Alpha  occ. eigenvalues --  -20.52262 -20.52252 -15.58799 -15.58735 -11.34599
 Alpha  occ. eigenvalues --  -11.34207 -11.27959 -11.25957 -11.24066 -11.23137
 Alpha  occ. eigenvalues --   -1.39576  -1.38758  -1.24316  -1.22908  -1.05919
 Alpha  occ. eigenvalues --   -0.99382  -0.95820  -0.88804  -0.79536  -0.79057
 Alpha  occ. eigenvalues --   -0.72635  -0.67260  -0.66232  -0.64419  -0.62690
 Alpha  occ. eigenvalues --   -0.61545  -0.59364  -0.58727  -0.57816  -0.56618
 Alpha  occ. eigenvalues --   -0.55802  -0.54858  -0.52295  -0.51309  -0.51178
 Alpha  occ. eigenvalues --   -0.44085  -0.41585  -0.39341  -0.37612
 Alpha virt. eigenvalues --    0.18705   0.19940   0.21644   0.23474   0.25574
 Alpha virt. eigenvalues --    0.27383   0.28164   0.29650   0.30316   0.31228
 Alpha virt. eigenvalues --    0.33060   0.33197   0.33288   0.33831   0.37539

 Mulliken atomic charges:
              1
     1  H    0.217830
     2  C   -0.594213
     3  H    0.194597
     4  H    0.178806
     5  C    0.748544
     6  O   -0.567676
     7  N   -0.790585
     8  H    0.369142
     9  C   -0.052516
    10  H    0.254047
    11  C   -0.507156
    12  H    0.144933
    13  H    0.183397
    14  H    0.202180
    15  C    0.747386
    16  O   -0.586655
    17  N   -0.803726
    18  H    0.386722
    19  C   -0.272786
    20  H    0.203578
    21  H    0.179672
    22  H    0.164478
 Sum of Mulliken atomic charges =   0.00000

 Dipole moment (field-independent basis, Debye):
    X=             -2.3782    Y=              3.0440    Z=             -5.7808  Tot=              6.9527
 Quadrupole moment (field-independent basis, Debye-Ang):
   XX=            -55.9457   YY=            -59.8440   ZZ=            -63.4275
   XY=             -1.7194   XZ=             -3.4905   YZ=              5.0598

 Normal termination of Gaussian 09 at Fri Feb 10 17:37:22 2017.
