 Gaussian 09, Revision A.02,
 Gaussian 09:  EM64L-G09RevA.02 11-Jun-2009

 -------------------------------------------
 # HF/6-31G* Opt=(ModRedundant) geom=nocrowd
 -------------------------------------------

 ------------------
 Phi Psi fixed scan
 ------------------
 Symbolic Z-matrix:
 Charge =  0 Multiplicity = 1

 SCF Done:  E(RHF) =  -492.846133472     A.U. after   15 cycles
 SCF Done:  E(RHF) =  -492.853766544     A.U. after   14 cycles
 SCF Done:  E(RHF) =  -492.854697116     A.U. after   13 cycles
 SCF Done:  E(RHF) =  -492.854954871     A.U. after   13 cycles
 SCF Done:  E(RHF) =  -492.855245567     A.U. after   13 cycles
 SCF Done:  E(RHF) =  -492.855491390     A.U. after   13 cycles
 SCF Done:  E(RHF) =  -492.855602629     A.U. after   12 cycles
 SCF Done:  E(RHF) =  -492.855659222     A.U. after   11 cycles
 SCF Done:  E(RHF) =  -492.855693972     A.U. after   11 cycles
 SCF Done:  E(RHF) =  -492.855732661     A.U. after   11 cycles
 SCF Done:  E(RHF) =  -492.855984480     A.U. after   11 cycles
 SCF Done:  E(RHF) =  -492.856089790     A.U. after   12 cycles
 SCF Done:  E(RHF) =  -492.856129604     A.U. after   11 cycles
 SCF Done:  E(RHF) =  -492.856140892     A.U. after   12 cycles
 SCF Done:  E(RHF) =  -492.856170523     A.U. after   11 cycles
 SCF Done:  E(RHF) =  -492.856173309     A.U. after    9 cycles
 SCF Done:  E(RHF) =  -492.856178909     A.U. after   11 cycles
 SCF Done:  E(RHF) =  -492.856182793     A.U. after   10 cycles
 SCF Done:  E(RHF) =  -492.856185881     A.U. after   10 cycles
 SCF Done:  E(RHF) =  -492.856186103     A.U. after    9 cycles
 Optimization completed.
    -- Stationary point found.

                         Standard orientation:
 ---------------------------------------------------------------------
 Center     Atomic      Atomic             Coordinates (Angstroms)
 Number     Number       Type             X           Y           Z
 ---------------------------------------------------------------------
      1          1           0        3.555965   -1.648416   -0.122306
      2          6           0        3.210372   -0.676693   -0.443580
      3          1           0        3.148304   -0.649308   -1.525840
      4          1           0        3.934191    0.067917   -0.126072
      5          6           0        1.878855   -0.386392    0.214305
      6          8           0        1.530703   -0.917562    1.229188
      7          7           0        1.094465    0.527034   -0.426122
      8          1           0        1.501915    1.042865   -1.173521
      9          6           0       -0.069310    1.105560    0.226668
     10          1           0        0.175756    1.341677    1.253059
     11          6           0       -0.493885    2.379321   -0.503974
     12          1           0       -0.750251    2.169673   -1.537962
     13          1           0       -1.360604    2.806060   -0.017228
     14          1           0        0.305576    3.113477   -0.485221
     15          6           0       -1.266837    0.159003    0.318238
     16          8           0       -2.092500    0.334646    1.171503
     17          7           0       -1.393807   -0.759997   -0.661134
     18          1           0       -0.583852   -0.965625   -1.197661
     19          6           0       -2.451703   -1.746720   -0.615720
     20          1           0       -3.395708   -1.255348   -0.433387
     21          1           0       -2.496931   -2.253173   -1.571301
     22          1           0       -2.289541   -2.480202    0.167084
 ---------------------------------------------------------------------

 The electronic state is 1-A.
 Alpha  occ. eigenvalues --  -20.53577 -20.51311 -15.59745 -15.57580 -11.35850
 Alpha  occ. eigenvalues --  -11.33490 -11.27913 -11.24966 -11.24361 -11.23555
 Alpha  occ. eigenvalues --   -1.40520  -1.38221  -1.25209  -1.22050  -1.06138
 Alpha  occ. eigenvalues --   -1.00211  -0.95442  -0.88090  -0.80864  -0.77930
 Alpha  occ. eigenvalues --   -0.71624  -0.69096  -0.67888  -0.62758  -0.62389
 Alpha  occ. eigenvalues --   -0.62279  -0.59571  -0.59107  -0.58374  -0.55681
 Alpha  occ. eigenvalues --   -0.54829  -0.54609  -0.54214  -0.51962  -0.49415
 Alpha  occ. eigenvalues --   -0.43236  -0.42884  -0.39051  -0.38155
 Alpha virt. eigenvalues --    0.19108   0.20360   0.20460   0.24972   0.25442
 Alpha virt. eigenvalues --    0.27720   0.28731   0.29534   0.29918   0.31536
 Alpha virt. eigenvalues --    0.31949   0.32699   0.34286   0.34719   0.37824

 Mulliken atomic charges:
              1
     1  H    0.219473
     2  C   -0.588875
     3  H    0.175931
     4  H    0.201557
     5  C    0.733314
     6  O   -0.582084
     7  N   -0.832408
     8  H    0.385402
     9  C   -0.015718
    10  H    0.232484
    11  C   -0.521979
    12  H    0.173044
    13  H    0.216687
    14  H    0.173084
    15  C    0.773303
    16  O   -0.620856
    17  N   -0.784442
    18  H    0.391711
    19  C   -0.277226
    20  H    0.202636
    21  H    0.163226
    22  H    0.181739
 Sum of Mulliken atomic charges =   0.00000

 Dipole moment (field-independent basis, Debye):
    X=              3.2949    Y=              1.0883    Z=             -5.4977  Tot=              6.5012
 Quadrupole moment (field-independent basis, Debye-Ang):
   XX=            -59.1188   YY=            -55.9196   ZZ=            -65.2298
   XY=              5.4003   XZ=              0.4752   YZ=              2.6841

 Normal termination of Gaussian 09 at Fri Feb 10 17:47:44 2017.
