 Gaussian 09, Revision A.02,
 Gaussian 09:  EM64L-G09RevA.02 11-Jun-2009

 -------------------------------------------
 # HF/6-31G* Opt=(ModRedundant) geom=nocrowd
 -------------------------------------------

 ------------------
 Phi Psi fixed scan
 ------------------
 Symbolic Z-matrix:
 Charge =  0 Multiplicity = 1

 SCF Done:  E(RHF) =  -492.846986233     A.U. after   15 cycles
 SCF Done:  E(RHF) =  -492.854439789     A.U. after   14 cycles
 SCF Done:  E(RHF) =  -492.855419698     A.U. after   13 cycles
 SCF Done:  E(RHF) =  -492.855648219     A.U. after   12 cycles
 SCF Done:  E(RHF) =  -492.855710662     A.U. after   13 cycles
 SCF Done:  E(RHF) =  -492.855831964     A.U. after   13 cycles
 SCF Done:  E(RHF) =  -492.855892489     A.U. after   11 cycles
 SCF Done:  E(RHF) =  -492.855943720     A.U. after   13 cycles
 SCF Done:  E(RHF) =  -492.855987166     A.U. after   12 cycles
 SCF Done:  E(RHF) =  -492.856031113     A.U. after   11 cycles
 SCF Done:  E(RHF) =  -492.856370123     A.U. after   11 cycles
 SCF Done:  E(RHF) =  -492.856387332     A.U. after   12 cycles
 SCF Done:  E(RHF) =  -492.856420780     A.U. after   11 cycles
 SCF Done:  E(RHF) =  -492.856430783     A.U. after   10 cycles
 SCF Done:  E(RHF) =  -492.856444415     A.U. after   12 cycles
 SCF Done:  E(RHF) =  -492.856448746     A.U. after   10 cycles
 SCF Done:  E(RHF) =  -492.856457107     A.U. after   11 cycles
 SCF Done:  E(RHF) =  -492.856459577     A.U. after   10 cycles
 SCF Done:  E(RHF) =  -492.856459883     A.U. after    9 cycles
 SCF Done:  E(RHF) =  -492.856459904     A.U. after    7 cycles
 Optimization completed.
    -- Stationary point found.

                         Standard orientation:
 ---------------------------------------------------------------------
 Center     Atomic      Atomic             Coordinates (Angstroms)
 Number     Number       Type             X           Y           Z
 ---------------------------------------------------------------------
      1          1           0        3.530600   -1.640085   -0.155358
      2          6           0        3.207912   -0.645552   -0.427309
      3          1           0        3.166996   -0.556551   -1.507228
      4          1           0        3.939229    0.065451   -0.055309
      5          6           0        1.872076   -0.366174    0.227284
      6          8           0        1.517722   -0.921500    1.228545
      7          7           0        1.100133    0.567736   -0.390606
      8          1           0        1.480918    1.055113   -1.169494
      9          6           0       -0.097441    1.111704    0.227137
     10          1           0        0.105674    1.302475    1.272421
     11          6           0       -0.479012    2.422654   -0.460415
     12          1           0       -0.688153    2.262816   -1.514506
     13          1           0       -1.364699    2.831959    0.004092
     14          1           0        0.325909    3.145217   -0.372243
     15          6           0       -1.311620    0.179474    0.235531
     16          8           0       -2.262650    0.479600    0.906626
     17          7           0       -1.286293   -0.898241   -0.569329
     18          1           0       -0.410852   -1.172015   -0.946655
     19          6           0       -2.350027   -1.878735   -0.526276
     20          1           0       -3.305412   -1.380101   -0.593607
     21          1           0       -2.240825   -2.547638   -1.370102
     22          1           0       -2.328162   -2.458135    0.390459
 ---------------------------------------------------------------------

 The electronic state is 1-A.
 Alpha  occ. eigenvalues --  -20.53512 -20.51261 -15.59812 -15.57697 -11.35935
 Alpha  occ. eigenvalues --  -11.33604 -11.28030 -11.25002 -11.24423 -11.23297
 Alpha  occ. eigenvalues --   -1.40497  -1.38244  -1.25251  -1.22171  -1.06104
 Alpha  occ. eigenvalues --   -1.00179  -0.95578  -0.88031  -0.81020  -0.78183
 Alpha  occ. eigenvalues --   -0.72092  -0.68986  -0.67818  -0.62959  -0.62372
 Alpha  occ. eigenvalues --   -0.62173  -0.59582  -0.59230  -0.58376  -0.55555
 Alpha  occ. eigenvalues --   -0.54800  -0.54601  -0.53985  -0.52128  -0.49244
 Alpha  occ. eigenvalues --   -0.43548  -0.42919  -0.39107  -0.37936
 Alpha virt. eigenvalues --    0.19012   0.20199   0.20565   0.24998   0.25615
 Alpha virt. eigenvalues --    0.27770   0.28986   0.29508   0.29863   0.31382
 Alpha virt. eigenvalues --    0.32258   0.32788   0.34317   0.34902   0.37907

 Mulliken atomic charges:
              1
     1  H    0.217940
     2  C   -0.587112
     3  H    0.174063
     4  H    0.204430
     5  C    0.729121
     6  O   -0.589260
     7  N   -0.834841
     8  H    0.388031
     9  C   -0.004876
    10  H    0.233184
    11  C   -0.522652
    12  H    0.168799
    13  H    0.223105
    14  H    0.173090
    15  C    0.773513
    16  O   -0.627416
    17  N   -0.786466
    18  H    0.395018
    19  C   -0.276400
    20  H    0.202038
    21  H    0.163586
    22  H    0.183106
 Sum of Mulliken atomic charges =   0.00000

 Dipole moment (field-independent basis, Debye):
    X=              3.5958    Y=              0.6924    Z=             -4.9191  Tot=              6.1324
 Quadrupole moment (field-independent basis, Debye-Ang):
   XX=            -61.0278   YY=            -55.8183   ZZ=            -64.2247
   XY=              6.1565   XZ=             -0.4159   YZ=              2.4255

 Normal termination of Gaussian 09 at Fri Feb 10 17:50:39 2017.
