 Gaussian 09, Revision A.02,
 Gaussian 09:  EM64L-G09RevA.02 11-Jun-2009

 -------------------------------------------
 # HF/6-31G* Opt=(ModRedundant) geom=nocrowd
 -------------------------------------------

 ------------------
 Phi Psi fixed scan
 ------------------
 Symbolic Z-matrix:
 Charge =  0 Multiplicity = 1

 SCF Done:  E(RHF) =  -492.845312912     A.U. after   15 cycles
 SCF Done:  E(RHF) =  -492.852835733     A.U. after   14 cycles
 SCF Done:  E(RHF) =  -492.854751149     A.U. after   13 cycles
 SCF Done:  E(RHF) =  -492.855041347     A.U. after   12 cycles
 SCF Done:  E(RHF) =  -492.855089709     A.U. after   12 cycles
 SCF Done:  E(RHF) =  -492.855182578     A.U. after   13 cycles
 SCF Done:  E(RHF) =  -492.855259714     A.U. after   11 cycles
 SCF Done:  E(RHF) =  -492.855286830     A.U. after   13 cycles
 SCF Done:  E(RHF) =  -492.855405542     A.U. after   12 cycles
 SCF Done:  E(RHF) =  -492.855476648     A.U. after   11 cycles
 SCF Done:  E(RHF) =  -492.856023144     A.U. after   11 cycles
 SCF Done:  E(RHF) =  -492.855932185     A.U. after   13 cycles
 SCF Done:  E(RHF) =  -492.856040163     A.U. after   11 cycles
 SCF Done:  E(RHF) =  -492.856052917     A.U. after   11 cycles
 SCF Done:  E(RHF) =  -492.856056634     A.U. after   10 cycles
 SCF Done:  E(RHF) =  -492.856064052     A.U. after   11 cycles
 SCF Done:  E(RHF) =  -492.856066571     A.U. after   10 cycles
 SCF Done:  E(RHF) =  -492.856067019     A.U. after    9 cycles
 SCF Done:  E(RHF) =  -492.856067066     A.U. after    8 cycles
 SCF Done:  E(RHF) =  -492.856067086     A.U. after    7 cycles
 Optimization completed.
    -- Stationary point found.

                         Standard orientation:
 ---------------------------------------------------------------------
 Center     Atomic      Atomic             Coordinates (Angstroms)
 Number     Number       Type             X           Y           Z
 ---------------------------------------------------------------------
      1          1           0        3.546310   -1.603036   -0.246079
      2          6           0        3.221203   -0.593314   -0.450903
      3          1           0        3.189565   -0.429521   -1.522228
      4          1           0        3.945227    0.093406   -0.023607
      5          6           0        1.878988   -0.365313    0.210537
      6          8           0        1.522794   -0.992432    1.171092
      7          7           0        1.111059    0.603980   -0.342857
      8          1           0        1.453603    1.078450   -1.146551
      9          6           0       -0.115686    1.101764    0.256741
     10          1           0        0.052846    1.213344    1.320722
     11          6           0       -0.447936    2.468723   -0.340618
     12          1           0       -0.611018    2.394640   -1.412496
     13          1           0       -1.348097    2.856348    0.111745
     14          1           0        0.365435    3.163972   -0.161542
     15          6           0       -1.345389    0.190047    0.158477
     16          8           0       -2.385844    0.586301    0.612987
     17          7           0       -1.223637   -0.997458   -0.465207
     18          1           0       -0.309180   -1.369799   -0.561085
     19          6           0       -2.321605   -1.942171   -0.440879
     20          1           0       -3.224718   -1.456064   -0.778136
     21          1           0       -2.089379   -2.759300   -1.111319
     22          1           0       -2.495612   -2.337465    0.554259
 ---------------------------------------------------------------------

 The electronic state is 1-A.
 Alpha  occ. eigenvalues --  -20.53575 -20.51540 -15.59861 -15.57638 -11.36094
 Alpha  occ. eigenvalues --  -11.33803 -11.28254 -11.24914 -11.24471 -11.22995
 Alpha  occ. eigenvalues --   -1.40554  -1.38498  -1.25277  -1.22215  -1.06110
 Alpha  occ. eigenvalues --   -1.00146  -0.95525  -0.87953  -0.81181  -0.78140
 Alpha  occ. eigenvalues --   -0.72445  -0.68967  -0.67664  -0.63344  -0.62357
 Alpha  occ. eigenvalues --   -0.62206  -0.59386  -0.59270  -0.58398  -0.55294
 Alpha  occ. eigenvalues --   -0.54800  -0.54454  -0.53718  -0.52322  -0.49311
 Alpha  occ. eigenvalues --   -0.43946  -0.43079  -0.39399  -0.37749
 Alpha virt. eigenvalues --    0.18793   0.19953   0.20917   0.25249   0.25790
 Alpha virt. eigenvalues --    0.27788   0.29320   0.29527   0.30110   0.31092
 Alpha virt. eigenvalues --    0.32615   0.32880   0.34194   0.35000   0.37740

 Mulliken atomic charges:
              1
     1  H    0.216443
     2  C   -0.584901
     3  H    0.174757
     4  H    0.206138
     5  C    0.728440
     6  O   -0.604050
     7  N   -0.824472
     8  H    0.389458
     9  C   -0.008192
    10  H    0.232622
    11  C   -0.519456
    12  H    0.166102
    13  H    0.227416
    14  H    0.172562
    15  C    0.769855
    16  O   -0.624457
    17  N   -0.787752
    18  H    0.401828
    19  C   -0.278904
    20  H    0.200431
    21  H    0.165203
    22  H    0.180930
 Sum of Mulliken atomic charges =   0.00000

 Dipole moment (field-independent basis, Debye):
    X=              3.7227    Y=              0.5323    Z=             -3.9591  Tot=              5.4605
 Quadrupole moment (field-independent basis, Debye-Ang):
   XX=            -62.3515   YY=            -56.2192   ZZ=            -63.1899
   XY=              6.9156   XZ=             -1.8338   YZ=              2.2526

 Normal termination of Gaussian 09 at Fri Feb 10 16:44:04 2017.
