 Gaussian 09, Revision A.02,
 Gaussian 09:  EM64L-G09RevA.02 11-Jun-2009

 -------------------------------------------
 # HF/6-31G* Opt=(ModRedundant) geom=nocrowd
 -------------------------------------------

 ------------------
 Phi Psi fixed scan
 ------------------
 Symbolic Z-matrix:
 Charge =  0 Multiplicity = 1

 SCF Done:  E(RHF) =  -492.850398387     A.U. after   15 cycles
 SCF Done:  E(RHF) =  -492.856073831     A.U. after   13 cycles
 SCF Done:  E(RHF) =  -492.856739605     A.U. after   13 cycles
 SCF Done:  E(RHF) =  -492.857513793     A.U. after   13 cycles
 SCF Done:  E(RHF) =  -492.858169167     A.U. after   13 cycles
 SCF Done:  E(RHF) =  -492.858437438     A.U. after   14 cycles
 SCF Done:  E(RHF) =  -492.858803420     A.U. after   13 cycles
 SCF Done:  E(RHF) =  -492.858883816     A.U. after   11 cycles
 SCF Done:  E(RHF) =  -492.858987581     A.U. after   12 cycles
 SCF Done:  E(RHF) =  -492.859070061     A.U. after   12 cycles
 SCF Done:  E(RHF) =  -492.859203735     A.U. after   12 cycles
 SCF Done:  E(RHF) =  -492.859320234     A.U. after   12 cycles
 SCF Done:  E(RHF) =  -492.859395441     A.U. after   12 cycles
 SCF Done:  E(RHF) =  -492.859404252     A.U. after   11 cycles
 SCF Done:  E(RHF) =  -492.859406177     A.U. after   10 cycles
 SCF Done:  E(RHF) =  -492.859407241     A.U. after    9 cycles
 SCF Done:  E(RHF) =  -492.859409299     A.U. after   10 cycles
 SCF Done:  E(RHF) =  -492.859411018     A.U. after   11 cycles
 SCF Done:  E(RHF) =  -492.859411099     A.U. after    8 cycles
 Optimization completed.
    -- Stationary point found.

                         Standard orientation:
 ---------------------------------------------------------------------
 Center     Atomic      Atomic             Coordinates (Angstroms)
 Number     Number       Type             X           Y           Z
 ---------------------------------------------------------------------
      1          1           0       -3.738395   -1.516990    0.097951
      2          6           0       -3.123109   -0.802625    0.625249
      3          1           0       -2.800417   -1.246740    1.562317
      4          1           0       -3.700739    0.086199    0.851210
      5          6           0       -1.906866   -0.484858   -0.213984
      6          8           0       -1.520676   -1.208206   -1.091145
      7          7           0       -1.277558    0.684597    0.091541
      8          1           0       -1.455240    1.068801    0.993811
      9          6           0        0.031930    0.958556   -0.458760
     10          1           0       -0.002151    0.697990   -1.506058
     11          6           0        0.364189    2.442371   -0.309252
     12          1           0        0.392459    2.723470    0.737660
     13          1           0        1.335152    2.659865   -0.740527
     14          1           0       -0.382323    3.043175   -0.815433
     15          6           0        1.092982    0.126605    0.265252
     16          8           0        1.124410    0.091043    1.466841
     17          7           0        2.003732   -0.482288   -0.521138
     18          1           0        1.756546   -0.627915   -1.473479
     19          6           0        3.014314   -1.351050    0.046119
     20          1           0        3.492903   -0.851338    0.874885
     21          1           0        2.592806   -2.284449    0.404000
     22          1           0        3.755670   -1.564913   -0.712472
 ---------------------------------------------------------------------

 The electronic state is 1-A.
 Alpha  occ. eigenvalues --  -20.52799 -20.52294 -15.58483 -15.58326 -11.34961
 Alpha  occ. eigenvalues --  -11.34088 -11.27743 -11.25484 -11.23169 -11.22913
 Alpha  occ. eigenvalues --   -1.39817  -1.38818  -1.23940  -1.23167  -1.05652
 Alpha  occ. eigenvalues --   -0.99359  -0.95922  -0.87412  -0.79848  -0.78253
 Alpha  occ. eigenvalues --   -0.72864  -0.67630  -0.66760  -0.63877  -0.62355
 Alpha  occ. eigenvalues --   -0.61836  -0.59772  -0.58441  -0.57534  -0.56225
 Alpha  occ. eigenvalues --   -0.55053  -0.53930  -0.52661  -0.51555  -0.50429
 Alpha  occ. eigenvalues --   -0.43124  -0.42179  -0.39602  -0.38335
 Alpha virt. eigenvalues --    0.19489   0.20144   0.22488   0.23336   0.26494
 Alpha virt. eigenvalues --    0.27142   0.29123   0.30250   0.30984   0.31569
 Alpha virt. eigenvalues --    0.32168   0.33185   0.34106   0.34947   0.37955

 Mulliken atomic charges:
              1
     1  H    0.213531
     2  C   -0.590419
     3  H    0.204050
     4  H    0.183680
     5  C    0.746857
     6  O   -0.610986
     7  N   -0.770574
     8  H    0.388861
     9  C   -0.059720
    10  H    0.213651
    11  C   -0.496507
    12  H    0.186073
    13  H    0.180613
    14  H    0.185169
    15  C    0.773892
    16  O   -0.630236
    17  N   -0.784075
    18  H    0.392357
    19  C   -0.279706
    20  H    0.203229
    21  H    0.180258
    22  H    0.169999
 Sum of Mulliken atomic charges =   0.00000

 Dipole moment (field-independent basis, Debye):
    X=              0.0304    Y=              1.4513    Z=             -0.6668  Tot=              1.5974
 Quadrupole moment (field-independent basis, Debye-Ang):
   XX=            -52.3287   YY=            -59.6859   ZZ=            -64.3292
   XY=             -4.6015   XZ=            -10.0129   YZ=             -2.1767

 Normal termination of Gaussian 09 at Fri Feb 10 17:08:29 2017.
