 Gaussian 09, Revision A.02,
 Gaussian 09:  EM64L-G09RevA.02 11-Jun-2009

 -------------------------------------------
 # HF/6-31G* Opt=(ModRedundant) geom=nocrowd
 -------------------------------------------

 ------------------
 Phi Psi fixed scan
 ------------------
 Symbolic Z-matrix:
 Charge =  0 Multiplicity = 1

 SCF Done:  E(RHF) =  -492.842633029     A.U. after   15 cycles
 SCF Done:  E(RHF) =  -492.851176486     A.U. after   15 cycles
 SCF Done:  E(RHF) =  -492.854122705     A.U. after   13 cycles
 SCF Done:  E(RHF) =  -492.854616760     A.U. after   13 cycles
 SCF Done:  E(RHF) =  -492.854869749     A.U. after   13 cycles
 SCF Done:  E(RHF) =  -492.855282417     A.U. after   12 cycles
 SCF Done:  E(RHF) =  -492.855406649     A.U. after   13 cycles
 SCF Done:  E(RHF) =  -492.855668800     A.U. after   13 cycles
 SCF Done:  E(RHF) =  -492.855762129     A.U. after   11 cycles
 SCF Done:  E(RHF) =  -492.856044257     A.U. after   13 cycles
 SCF Done:  E(RHF) =  -492.856591987     A.U. after   12 cycles
 SCF Done:  E(RHF) =  -492.856628970     A.U. after   11 cycles
 SCF Done:  E(RHF) =  -492.856638709     A.U. after   11 cycles
 SCF Done:  E(RHF) =  -492.856642307     A.U. after   10 cycles
 SCF Done:  E(RHF) =  -492.856651091     A.U. after   11 cycles
 SCF Done:  E(RHF) =  -492.856655875     A.U. after   10 cycles
 SCF Done:  E(RHF) =  -492.856658093     A.U. after   10 cycles
 SCF Done:  E(RHF) =  -492.856659003     A.U. after   10 cycles
 SCF Done:  E(RHF) =  -492.856660062     A.U. after   10 cycles
 SCF Done:  E(RHF) =  -492.856660246     A.U. after    8 cycles
 Optimization completed.
    -- Stationary point found.

                         Standard orientation:
 ---------------------------------------------------------------------
 Center     Atomic      Atomic             Coordinates (Angstroms)
 Number     Number       Type             X           Y           Z
 ---------------------------------------------------------------------
      1          1           0        3.513052   -1.583629   -0.423608
      2          6           0        3.221635   -0.545714   -0.497011
      3          1           0        3.213667   -0.241278   -1.537164
      4          1           0        3.958568    0.052952    0.028812
      5          6           0        1.878937   -0.364866    0.176614
      6          8           0        1.528989   -1.061499    1.095013
      7          7           0        1.111487    0.636290   -0.302631
      8          1           0        1.430851    1.129187   -1.104723
      9          6           0       -0.132480    1.093869    0.298177
     10          1           0        0.017605    1.124035    1.371927
     11          6           0       -0.431751    2.506515   -0.198316
     12          1           0       -0.570197    2.517758   -1.275915
     13          1           0       -1.337981    2.873766    0.257245
     14          1           0        0.388281    3.170513    0.053340
     15          6           0       -1.363350    0.193977    0.101058
     16          8           0       -2.454276    0.651161    0.316794
     17          7           0       -1.171409   -1.071456   -0.325565
     18          1           0       -0.282694   -1.474521   -0.133325
     19          6           0       -2.298354   -1.981691   -0.372037
     20          1           0       -3.090008   -1.549802   -0.966048
     21          1           0       -1.975183   -2.905175   -0.834348
     22          1           0       -2.692022   -2.197467    0.615817
 ---------------------------------------------------------------------

 The electronic state is 1-A.
 Alpha  occ. eigenvalues --  -20.53696 -20.51816 -15.60001 -15.57207 -11.36319
 Alpha  occ. eigenvalues --  -11.33868 -11.28451 -11.24699 -11.24503 -11.22785
 Alpha  occ. eigenvalues --   -1.40655  -1.38656  -1.25351  -1.22041  -1.06154
 Alpha  occ. eigenvalues --   -1.00146  -0.95382  -0.87830  -0.81336  -0.77783
 Alpha  occ. eigenvalues --   -0.72558  -0.69099  -0.67585  -0.63582  -0.62359
 Alpha  occ. eigenvalues --   -0.62184  -0.59410  -0.59111  -0.58413  -0.54977
 Alpha  occ. eigenvalues --   -0.54601  -0.54385  -0.53441  -0.52432  -0.49556
 Alpha  occ. eigenvalues --   -0.44199  -0.43269  -0.39512  -0.37628
 Alpha virt. eigenvalues --    0.18282   0.20227   0.21266   0.25686   0.25811
 Alpha virt. eigenvalues --    0.27761   0.29485   0.29949   0.30637   0.30941
 Alpha virt. eigenvalues --    0.32984   0.33170   0.34157   0.34928   0.38009

 Mulliken atomic charges:
              1
     1  H    0.215157
     2  C   -0.580246
     3  H    0.174932
     4  H    0.207863
     5  C    0.739780
     6  O   -0.622680
     7  N   -0.810177
     8  H    0.390416
     9  C   -0.026202
    10  H    0.230671
    11  C   -0.512080
    12  H    0.165892
    13  H    0.227286
    14  H    0.171006
    15  C    0.766792
    16  O   -0.618881
    17  N   -0.798517
    18  H    0.418017
    19  C   -0.279338
    20  H    0.196773
    21  H    0.166575
    22  H    0.176960
 Sum of Mulliken atomic charges =   0.00000

 Dipole moment (field-independent basis, Debye):
    X=              3.7556    Y=              0.6137    Z=             -2.9517  Tot=              4.8160
 Quadrupole moment (field-independent basis, Debye-Ang):
   XX=            -63.1316   YY=            -56.8305   ZZ=            -62.0770
   XY=              7.4929   XZ=             -3.3751   YZ=              2.0324

 Normal termination of Gaussian 09 at Fri Feb 10 16:46:48 2017.
