 Gaussian 09, Revision A.02,
 Gaussian 09:  EM64L-G09RevA.02 11-Jun-2009

 -------------------------------------------
 # HF/6-31G* Opt=(ModRedundant) geom=nocrowd
 -------------------------------------------

 ------------------
 Phi Psi fixed scan
 ------------------
 Symbolic Z-matrix:
 Charge =  0 Multiplicity = 1

 SCF Done:  E(RHF) =  -492.846935678     A.U. after   15 cycles
 SCF Done:  E(RHF) =  -492.855846709     A.U. after   14 cycles
 SCF Done:  E(RHF) =  -492.856478739     A.U. after   13 cycles
 SCF Done:  E(RHF) =  -492.857454232     A.U. after   13 cycles
 SCF Done:  E(RHF) =  -492.857978244     A.U. after   12 cycles
 SCF Done:  E(RHF) =  -492.858142357     A.U. after   13 cycles
 SCF Done:  E(RHF) =  -492.858274755     A.U. after   13 cycles
 SCF Done:  E(RHF) =  -492.858339086     A.U. after   11 cycles
 SCF Done:  E(RHF) =  -492.858434281     A.U. after   12 cycles
 SCF Done:  E(RHF) =  -492.858518163     A.U. after   13 cycles
 SCF Done:  E(RHF) =  -492.859040878     A.U. after   14 cycles
 SCF Done:  E(RHF) =  -492.859149523     A.U. after   11 cycles
 SCF Done:  E(RHF) =  -492.859176198     A.U. after   11 cycles
 SCF Done:  E(RHF) =  -492.859189717     A.U. after   11 cycles
 SCF Done:  E(RHF) =  -492.859206107     A.U. after   11 cycles
 SCF Done:  E(RHF) =  -492.859220184     A.U. after   11 cycles
 SCF Done:  E(RHF) =  -492.859229117     A.U. after   10 cycles
 SCF Done:  E(RHF) =  -492.859235101     A.U. after   11 cycles
 SCF Done:  E(RHF) =  -492.859236222     A.U. after   10 cycles
 SCF Done:  E(RHF) =  -492.859236293     A.U. after    8 cycles
 Optimization completed.
    -- Stationary point found.

                         Standard orientation:
 ---------------------------------------------------------------------
 Center     Atomic      Atomic             Coordinates (Angstroms)
 Number     Number       Type             X           Y           Z
 ---------------------------------------------------------------------
      1          1           0        3.911993   -0.883050   -0.030704
      2          6           0        3.122006   -0.547681   -0.688180
      3          1           0        2.929284   -1.335388   -1.409199
      4          1           0        3.443161    0.339563   -1.220097
      5          6           0        1.871000   -0.329762    0.133311
      6          8           0        1.584690   -1.066183    1.045827
      7          7           0        1.106402    0.720088   -0.225004
      8          1           0        1.358250    1.215624   -1.050102
      9          6           0       -0.164578    1.088401    0.388050
     10          1           0       -0.036786    0.967061    1.458647
     11          6           0       -0.459976    2.551328    0.083509
     12          1           0       -0.587738    2.709687   -0.982305
     13          1           0       -1.375274    2.858212    0.566944
     14          1           0        0.355527    3.172143    0.438043
     15          6           0       -1.354067    0.190096   -0.002947
     16          8           0       -2.415137    0.676822   -0.293092
     17          7           0       -1.138209   -1.137442    0.008738
     18          1           0       -0.317562   -1.474071    0.463413
     19          6           0       -2.230130   -2.057662   -0.225115
     20          1           0       -2.723156   -1.820273   -1.157154
     21          1           0       -1.827335   -3.060059   -0.285267
     22          1           0       -2.969658   -2.021397    0.567986
 ---------------------------------------------------------------------

 The electronic state is 1-A.
 Alpha  occ. eigenvalues --  -20.53696 -20.51821 -15.60207 -15.56840 -11.36470
 Alpha  occ. eigenvalues --  -11.33735 -11.28430 -11.24740 -11.24430 -11.22424
 Alpha  occ. eigenvalues --   -1.40632  -1.38525  -1.25377  -1.21934  -1.06106
 Alpha  occ. eigenvalues --   -1.00062  -0.95554  -0.87519  -0.81332  -0.77770
 Alpha  occ. eigenvalues --   -0.72761  -0.69079  -0.67456  -0.63811  -0.62306
 Alpha  occ. eigenvalues --   -0.61669  -0.59814  -0.59252  -0.58282  -0.54891
 Alpha  occ. eigenvalues --   -0.54556  -0.53459  -0.53190  -0.52404  -0.50335
 Alpha  occ. eigenvalues --   -0.44497  -0.43118  -0.38953  -0.37637
 Alpha virt. eigenvalues --    0.17955   0.20221   0.22105   0.25243   0.26143
 Alpha virt. eigenvalues --    0.27642   0.29163   0.30386   0.30815   0.31457
 Alpha virt. eigenvalues --    0.32722   0.33689   0.34370   0.35315   0.39356

 Mulliken atomic charges:
              1
     1  H    0.217439
     2  C   -0.580797
     3  H    0.207081
     4  H    0.175518
     5  C    0.763987
     6  O   -0.639590
     7  N   -0.801156
     8  H    0.390274
     9  C   -0.058028
    10  H    0.226273
    11  C   -0.489529
    12  H    0.171030
    13  H    0.211189
    14  H    0.169875
    15  C    0.768062
    16  O   -0.618946
    17  N   -0.821968
    18  H    0.444911
    19  C   -0.270568
    20  H    0.192070
    21  H    0.167975
    22  H    0.174899
 Sum of Mulliken atomic charges =   0.00000

 Dipole moment (field-independent basis, Debye):
    X=              3.3395    Y=              0.4309    Z=             -1.7523  Tot=              3.7959
 Quadrupole moment (field-independent basis, Debye-Ang):
   XX=            -64.3898   YY=            -57.3208   ZZ=            -60.8060
   XY=              7.5247   XZ=             -7.4499   YZ=              2.5046

 Normal termination of Gaussian 09 at Fri Feb 10 16:51:48 2017.
