 Gaussian 09, Revision A.02,
 Gaussian 09:  EM64L-G09RevA.02 11-Jun-2009

 -------------------------------------------
 # HF/6-31G* Opt=(ModRedundant) geom=nocrowd
 -------------------------------------------

 ------------------
 Phi Psi fixed scan
 ------------------
 Symbolic Z-matrix:
 Charge =  0 Multiplicity = 1

 SCF Done:  E(RHF) =  -492.853048328     A.U. after   15 cycles
 SCF Done:  E(RHF) =  -492.859000380     A.U. after   13 cycles
 SCF Done:  E(RHF) =  -492.859269728     A.U. after   13 cycles
 SCF Done:  E(RHF) =  -492.859679091     A.U. after   13 cycles
 SCF Done:  E(RHF) =  -492.859976343     A.U. after   12 cycles
 SCF Done:  E(RHF) =  -492.860071550     A.U. after   12 cycles
 SCF Done:  E(RHF) =  -492.860102559     A.U. after   11 cycles
 SCF Done:  E(RHF) =  -492.860148159     A.U. after   11 cycles
 SCF Done:  E(RHF) =  -492.860193394     A.U. after   11 cycles
 SCF Done:  E(RHF) =  -492.860236012     A.U. after   12 cycles
 SCF Done:  E(RHF) =  -492.860765172     A.U. after   11 cycles
 SCF Done:  E(RHF) =  -492.860773150     A.U. after   10 cycles
 SCF Done:  E(RHF) =  -492.860775199     A.U. after    9 cycles
 SCF Done:  E(RHF) =  -492.860776856     A.U. after    9 cycles
 SCF Done:  E(RHF) =  -492.860780259     A.U. after   10 cycles
 SCF Done:  E(RHF) =  -492.860783812     A.U. after   10 cycles
 SCF Done:  E(RHF) =  -492.860785387     A.U. after   10 cycles
 SCF Done:  E(RHF) =  -492.860785477     A.U. after    8 cycles
 SCF Done:  E(RHF) =  -492.860785500     A.U. after    6 cycles
 SCF Done:  E(RHF) =  -492.860785510     A.U. after    6 cycles
 Optimization completed.
    -- Stationary point found.

                         Standard orientation:
 ---------------------------------------------------------------------
 Center     Atomic      Atomic             Coordinates (Angstroms)
 Number     Number       Type             X           Y           Z
 ---------------------------------------------------------------------
      1          1           0       -3.808535   -1.122307    0.186424
      2          6           0       -3.042461   -0.643753    0.780080
      3          1           0       -2.761192   -1.323299    1.578291
      4          1           0       -3.436168    0.264036    1.220994
      5          6           0       -1.834003   -0.398564   -0.095332
      6          8           0       -1.525796   -1.168196   -0.971231
      7          7           0       -1.135305    0.726464    0.168428
      8          1           0       -1.375955    1.244120    0.983818
      9          6           0        0.127576    1.073894   -0.475291
     10          1           0        0.011253    0.841823   -1.526151
     11          6           0        0.392795    2.562277   -0.305783
     12          1           0        0.516416    2.817829    0.739593
     13          1           0        1.305257    2.841920   -0.815990
     14          1           0       -0.429695    3.133680   -0.721758
     15          6           0        1.294399    0.233903    0.073716
     16          8           0        2.106136    0.706579    0.826120
     17          7           0        1.337395   -1.039831   -0.349914
     18          1           0        0.555709   -1.392399   -0.857974
     19          6           0        2.329202   -1.962165    0.156726
     20          1           0        3.321217   -1.550863    0.031536
     21          1           0        2.181776   -2.176123    1.210097
     22          1           0        2.257521   -2.885457   -0.402284
 ---------------------------------------------------------------------

 The electronic state is 1-A.
 Alpha  occ. eigenvalues --  -20.53713 -20.51725 -15.60111 -15.57018 -11.36376
 Alpha  occ. eigenvalues --  -11.33594 -11.28177 -11.24847 -11.24320 -11.22361
 Alpha  occ. eigenvalues --   -1.40575  -1.38379  -1.25192  -1.22103  -1.06023
 Alpha  occ. eigenvalues --   -1.00005  -0.95715  -0.87333  -0.81151  -0.77732
 Alpha  occ. eigenvalues --   -0.72669  -0.69008  -0.67348  -0.63907  -0.62337
 Alpha  occ. eigenvalues --   -0.61412  -0.60091  -0.59335  -0.58076  -0.55079
 Alpha  occ. eigenvalues --   -0.54624  -0.53545  -0.52510  -0.52073  -0.51076
 Alpha  occ. eigenvalues --   -0.44366  -0.43031  -0.38680  -0.37741
 Alpha virt. eigenvalues --    0.18266   0.20325   0.22215   0.25009   0.26288
 Alpha virt. eigenvalues --    0.27413   0.28815   0.30157   0.30914   0.31824
 Alpha virt. eigenvalues --    0.32716   0.33549   0.34506   0.35413   0.39100

 Mulliken atomic charges:
              1
     1  H    0.217285
     2  C   -0.582728
     3  H    0.206270
     4  H    0.177734
     5  C    0.763519
     6  O   -0.635529
     7  N   -0.799352
     8  H    0.390636
     9  C   -0.056172
    10  H    0.219868
    11  C   -0.487926
    12  H    0.185687
    13  H    0.192623
    14  H    0.171114
    15  C    0.764053
    16  O   -0.623096
    17  N   -0.813393
    18  H    0.443746
    19  C   -0.270154
    20  H    0.193494
    21  H    0.172100
    22  H    0.170221
 Sum of Mulliken atomic charges =   0.00000

 Dipole moment (field-independent basis, Debye):
    X=             -2.8489    Y=              0.3666    Z=              0.7750  Tot=              2.9751
 Quadrupole moment (field-independent basis, Debye-Ang):
   XX=            -61.6209   YY=            -57.9138   ZZ=            -61.9168
   XY=             -7.2998   XZ=             -9.5344   YZ=             -3.4882

 Normal termination of Gaussian 09 at Fri Feb 10 16:59:21 2017.
