 Gaussian 09, Revision A.02,
 Gaussian 09:  EM64L-G09RevA.02 11-Jun-2009

 -------------------------------------------
 # HF/6-31G* Opt=(ModRedundant) geom=nocrowd
 -------------------------------------------

 ------------------
 Phi Psi fixed scan
 ------------------
 Symbolic Z-matrix:
 Charge =  0 Multiplicity = 1

 SCF Done:  E(RHF) =  -492.829114301     A.U. after   15 cycles
 SCF Done:  E(RHF) =  -492.841252438     A.U. after   14 cycles
 SCF Done:  E(RHF) =  -492.845190706     A.U. after   14 cycles
 SCF Done:  E(RHF) =  -492.846367674     A.U. after   13 cycles
 SCF Done:  E(RHF) =  -492.848191229     A.U. after   14 cycles
 SCF Done:  E(RHF) =  -492.849373065     A.U. after   13 cycles
 SCF Done:  E(RHF) =  -492.849936165     A.U. after   13 cycles
 SCF Done:  E(RHF) =  -492.850195795     A.U. after   12 cycles
 SCF Done:  E(RHF) =  -492.850239778     A.U. after   11 cycles
 SCF Done:  E(RHF) =  -492.850268876     A.U. after   11 cycles
 SCF Done:  E(RHF) =  -492.850629597     A.U. after   13 cycles
 SCF Done:  E(RHF) =  -492.850451265     A.U. after   15 cycles
 SCF Done:  E(RHF) =  -492.820303291     A.U. after   15 cycles
 SCF Done:  E(RHF) =  -492.850713768     A.U. after   14 cycles
 SCF Done:  E(RHF) =  -492.850754589     A.U. after   11 cycles
 SCF Done:  E(RHF) =  -492.850792538     A.U. after   11 cycles
 SCF Done:  E(RHF) =  -492.850801990     A.U. after   11 cycles
 SCF Done:  E(RHF) =  -492.850810104     A.U. after   11 cycles
 SCF Done:  E(RHF) =  -492.850813769     A.U. after   10 cycles
 SCF Done:  E(RHF) =  -492.850813959     A.U. after    8 cycles
 Optimization completed.
    -- Stationary point found.

                         Standard orientation:
 ---------------------------------------------------------------------
 Center     Atomic      Atomic             Coordinates (Angstroms)
 Number     Number       Type             X           Y           Z
 ---------------------------------------------------------------------
      1          1           0        3.872696   -1.224210   -0.227112
      2          6           0        3.031945   -0.827984   -0.777284
      3          1           0        2.517353   -1.645271   -1.273055
      4          1           0        3.381909   -0.133468   -1.533600
      5          6           0        2.072577   -0.171100    0.186523
      6          8           0        2.104544   -0.365935    1.365060
      7          7           0        1.183860    0.709798   -0.391751
      8          1           0        1.110613    0.619316   -1.383116
      9          6           0       -0.081802    0.956519    0.263972
     10          1           0        0.126188    0.998194    1.324914
     11          6           0       -0.639922    2.306192   -0.191935
     12          1           0       -0.928637    2.289461   -1.238449
     13          1           0       -1.502632    2.611748    0.390685
     14          1           0        0.123330    3.062308   -0.061134
     15          6           0       -1.015230   -0.251542    0.051154
     16          8           0       -0.567024   -1.350069   -0.133516
     17          7           0       -2.344082   -0.008391    0.014039
     18          1           0       -2.682845    0.880229    0.295640
     19          6           0       -3.295409   -1.098431   -0.067850
     20          1           0       -3.039079   -1.744962   -0.894062
     21          1           0       -3.309514   -1.692428    0.839283
     22          1           0       -4.280947   -0.684656   -0.235843
 ---------------------------------------------------------------------

 The electronic state is 1-A.
 Alpha  occ. eigenvalues --  -20.52633 -20.51718 -15.59092 -15.57626 -11.34644
 Alpha  occ. eigenvalues --  -11.33946 -11.27970 -11.26074 -11.23744 -11.22209
 Alpha  occ. eigenvalues --   -1.39865  -1.38281  -1.23730  -1.23223  -1.05464
 Alpha  occ. eigenvalues --   -0.98789  -0.95854  -0.88430  -0.79496  -0.78330
 Alpha  occ. eigenvalues --   -0.72933  -0.66806  -0.65953  -0.64144  -0.62772
 Alpha  occ. eigenvalues --   -0.61589  -0.59363  -0.58324  -0.57094  -0.56202
 Alpha  occ. eigenvalues --   -0.55664  -0.54670  -0.53342  -0.50453  -0.50164
 Alpha  occ. eigenvalues --   -0.43344  -0.41188  -0.39495  -0.38420
 Alpha virt. eigenvalues --    0.18918   0.20543   0.22071   0.23522   0.26042
 Alpha virt. eigenvalues --    0.27511   0.29084   0.29622   0.31212   0.31522
 Alpha virt. eigenvalues --    0.31992   0.33491   0.33926   0.34914   0.38336

 Mulliken atomic charges:
              1
     1  H    0.211109
     2  C   -0.599802
     3  H    0.210424
     4  H    0.175426
     5  C    0.767341
     6  O   -0.592030
     7  N   -0.760462
     8  H    0.368869
     9  C   -0.087966
    10  H    0.250586
    11  C   -0.496166
    12  H    0.170762
    13  H    0.156770
    14  H    0.202432
    15  C    0.765289
    16  O   -0.610228
    17  N   -0.801228
    18  H    0.389075
    19  C   -0.272967
    20  H    0.203123
    21  H    0.182355
    22  H    0.167290
 Sum of Mulliken atomic charges =   0.00000

 Dipole moment (field-independent basis, Debye):
    X=             -3.2943    Y=              3.0390    Z=             -2.7323  Tot=              5.2492
 Quadrupole moment (field-independent basis, Debye-Ang):
   XX=            -51.5795   YY=            -62.0471   ZZ=            -62.1802
   XY=             -1.9784   XZ=             -8.9493   YZ=              1.9585

 Normal termination of Gaussian 09 at Fri Feb 10 17:21:32 2017.
