 Gaussian 09, Revision A.02,
 Gaussian 09:  EM64L-G09RevA.02 11-Jun-2009

 -------------------------------------------
 # HF/6-31G* Opt=(ModRedundant) geom=nocrowd
 -------------------------------------------

 ------------------
 Phi Psi fixed scan
 ------------------
 Symbolic Z-matrix:
 Charge =  0 Multiplicity = 1

 SCF Done:  E(RHF) =  -492.839310608     A.U. after   15 cycles
 SCF Done:  E(RHF) =  -492.847777810     A.U. after   14 cycles
 SCF Done:  E(RHF) =  -492.848757009     A.U. after   13 cycles
 SCF Done:  E(RHF) =  -492.848820267     A.U. after   13 cycles
 SCF Done:  E(RHF) =  -492.849086487     A.U. after   13 cycles
 SCF Done:  E(RHF) =  -492.849323679     A.U. after   13 cycles
 SCF Done:  E(RHF) =  -492.849307962     A.U. after   14 cycles
 SCF Done:  E(RHF) =  -492.849735760     A.U. after   13 cycles
 SCF Done:  E(RHF) =  -492.849902003     A.U. after   13 cycles
 SCF Done:  E(RHF) =  -492.849997272     A.U. after   13 cycles
 SCF Done:  E(RHF) =  -492.850397497     A.U. after   13 cycles
 SCF Done:  E(RHF) =  -492.850443192     A.U. after   13 cycles
 SCF Done:  E(RHF) =  -492.850488166     A.U. after   11 cycles
 SCF Done:  E(RHF) =  -492.850537019     A.U. after   11 cycles
 SCF Done:  E(RHF) =  -492.850547396     A.U. after   12 cycles
 SCF Done:  E(RHF) =  -492.850552186     A.U. after   11 cycles
 SCF Done:  E(RHF) =  -492.850552591     A.U. after    8 cycles
 SCF Done:  E(RHF) =  -492.850554003     A.U. after   10 cycles
 SCF Done:  E(RHF) =  -492.850555176     A.U. after   10 cycles
 SCF Done:  E(RHF) =  -492.850555224     A.U. after    8 cycles
 Optimization completed.
    -- Stationary point found.

                         Standard orientation:
 ---------------------------------------------------------------------
 Center     Atomic      Atomic             Coordinates (Angstroms)
 Number     Number       Type             X           Y           Z
 ---------------------------------------------------------------------
      1          1           0        3.627573   -1.602665   -0.432573
      2          6           0        3.217083   -0.636150   -0.685389
      3          1           0        3.050182   -0.578226   -1.755365
      4          1           0        3.938891    0.128050   -0.412490
      5          6           0        1.941078   -0.425139    0.101722
      6          8           0        1.688673   -1.036312    1.097825
      7          7           0        1.096240    0.518547   -0.406774
      8          1           0        1.449766    1.100635   -1.132987
      9          6           0       -0.033505    1.028428    0.358048
     10          1           0        0.270264    1.163053    1.386910
     11          6           0       -0.495667    2.363859   -0.220631
     12          1           0       -0.783921    2.272841   -1.262393
     13          1           0       -1.351276    2.731498    0.332470
     14          1           0        0.297842    3.100403   -0.142769
     15          6           0       -1.191120    0.027105    0.431124
     16          8           0       -1.674707   -0.280190    1.481237
     17          7           0       -1.725302   -0.341260   -0.763867
     18          1           0       -1.122046   -0.281355   -1.553149
     19          6           0       -2.765261   -1.348955   -0.813996
     20          1           0       -3.557025   -1.078549   -0.131922
     21          1           0       -3.164909   -1.386312   -1.819322
     22          1           0       -2.399280   -2.333257   -0.539695
 ---------------------------------------------------------------------

 The electronic state is 1-A.
 Alpha  occ. eigenvalues --  -20.53108 -20.51868 -15.59490 -15.57717 -11.35406
 Alpha  occ. eigenvalues --  -11.33561 -11.27933 -11.25080 -11.23989 -11.23904
 Alpha  occ. eigenvalues --   -1.40096  -1.38575  -1.24878  -1.22125  -1.06140
 Alpha  occ. eigenvalues --   -0.99990  -0.95237  -0.88398  -0.80620  -0.77743
 Alpha  occ. eigenvalues --   -0.71164  -0.68811  -0.67586  -0.63135  -0.62522
 Alpha  occ. eigenvalues --   -0.62024  -0.59357  -0.58763  -0.58236  -0.55961
 Alpha  occ. eigenvalues --   -0.55174  -0.54521  -0.54077  -0.51587  -0.50132
 Alpha  occ. eigenvalues --   -0.43176  -0.42296  -0.38856  -0.38499
 Alpha virt. eigenvalues --    0.19239   0.20006   0.20586   0.24249   0.25887
 Alpha virt. eigenvalues --    0.27517   0.28085   0.29673   0.30365   0.30735
 Alpha virt. eigenvalues --    0.32001   0.32902   0.33959   0.34861   0.37480

 Mulliken atomic charges:
              1
     1  H    0.220029
     2  C   -0.590328
     3  H    0.176238
     4  H    0.197237
     5  C    0.738381
     6  O   -0.574059
     7  N   -0.822475
     8  H    0.381303
     9  C   -0.045801
    10  H    0.236831
    11  C   -0.511662
    12  H    0.168886
    13  H    0.204315
    14  H    0.175476
    15  C    0.774464
    16  O   -0.594320
    17  N   -0.776835
    18  H    0.376855
    19  C   -0.280313
    20  H    0.204816
    21  H    0.164130
    22  H    0.176832
 Sum of Mulliken atomic charges =   0.00000

 Dipole moment (field-independent basis, Debye):
    X=              1.8922    Y=              2.7324    Z=             -6.0468  Tot=              6.9000
 Quadrupole moment (field-independent basis, Debye-Ang):
   XX=            -56.2174   YY=            -58.0206   ZZ=            -64.9136
   XY=              3.9148   XZ=              0.3302   YZ=              4.7780

 Normal termination of Gaussian 09 at Fri Feb 10 17:42:35 2017.
