 Gaussian 09, Revision A.02,
 Gaussian 09:  EM64L-G09RevA.02 11-Jun-2009

 -------------------------------------------
 # HF/6-31G* Opt=(ModRedundant) geom=nocrowd
 -------------------------------------------

 ------------------
 Phi Psi fixed scan
 ------------------
 Symbolic Z-matrix:
 Charge =  0 Multiplicity = 1

 SCF Done:  E(RHF) =  -492.852663223     A.U. after   15 cycles
 SCF Done:  E(RHF) =  -492.858421937     A.U. after   13 cycles
 SCF Done:  E(RHF) =  -492.858918922     A.U. after   13 cycles
 SCF Done:  E(RHF) =  -492.859507124     A.U. after   13 cycles
 SCF Done:  E(RHF) =  -492.860015959     A.U. after   12 cycles
 SCF Done:  E(RHF) =  -492.860187467     A.U. after   12 cycles
 SCF Done:  E(RHF) =  -492.860195475     A.U. after   12 cycles
 SCF Done:  E(RHF) =  -492.860286484     A.U. after   12 cycles
 SCF Done:  E(RHF) =  -492.860378654     A.U. after   12 cycles
 SCF Done:  E(RHF) =  -492.860527863     A.U. after   13 cycles
 SCF Done:  E(RHF) =  -492.860637541     A.U. after   11 cycles
 SCF Done:  E(RHF) =  -492.860838360     A.U. after   12 cycles
 SCF Done:  E(RHF) =  -492.860875238     A.U. after   13 cycles
 SCF Done:  E(RHF) =  -492.860915060     A.U. after   11 cycles
 SCF Done:  E(RHF) =  -492.860924431     A.U. after   11 cycles
 SCF Done:  E(RHF) =  -492.860925562     A.U. after    9 cycles
 SCF Done:  E(RHF) =  -492.860927147     A.U. after   10 cycles
 SCF Done:  E(RHF) =  -492.860929504     A.U. after   10 cycles
 SCF Done:  E(RHF) =  -492.860931929     A.U. after   10 cycles
 SCF Done:  E(RHF) =  -492.860932043     A.U. after    8 cycles
 Optimization completed.
    -- Stationary point found.

                         Standard orientation:
 ---------------------------------------------------------------------
 Center     Atomic      Atomic             Coordinates (Angstroms)
 Number     Number       Type             X           Y           Z
 ---------------------------------------------------------------------
      1          1           0       -3.733850   -1.317708    0.201618
      2          6           0       -3.020437   -0.738803    0.770699
      3          1           0       -2.704900   -1.332650    1.622889
      4          1           0       -3.491522    0.165689    1.136316
      5          6           0       -1.816319   -0.458896   -0.099824
      6          8           0       -1.455964   -1.232759   -0.950321
      7          7           0       -1.175463    0.708222    0.139272
      8          1           0       -1.422960    1.222936    0.954684
      9          6           0        0.086328    1.055923   -0.501480
     10          1           0       -0.007097    0.778742   -1.542187
     11          6           0        0.327741    2.554087   -0.387113
     12          1           0        0.437074    2.848794    0.649148
     13          1           0        1.240544    2.828196   -0.902111
     14          1           0       -0.497947    3.097894   -0.832425
     15          6           0        1.240490    0.261734    0.128151
     16          8           0        1.856783    0.693555    1.066768
     17          7           0        1.502275   -0.924737   -0.451940
     18          1           0        0.790440   -1.304101   -1.037858
     19          6           0        2.469477   -1.833363    0.124876
     20          1           0        3.396451   -1.310063    0.308241
     21          1           0        2.124928   -2.255850    1.063547
     22          1           0        2.650920   -2.636730   -0.576619
 ---------------------------------------------------------------------

 The electronic state is 1-A.
 Alpha  occ. eigenvalues --  -20.53572 -20.51916 -15.59816 -15.57324 -11.36129
 Alpha  occ. eigenvalues --  -11.33688 -11.28021 -11.24889 -11.24136 -11.22420
 Alpha  occ. eigenvalues --   -1.40426  -1.38534  -1.24953  -1.22330  -1.05935
 Alpha  occ. eigenvalues --   -0.99908  -0.95726  -0.87296  -0.80899  -0.77673
 Alpha  occ. eigenvalues --   -0.72619  -0.68781  -0.67236  -0.63999  -0.62299
 Alpha  occ. eigenvalues --   -0.61645  -0.59944  -0.59180  -0.57942  -0.55367
 Alpha  occ. eigenvalues --   -0.54496  -0.53694  -0.52477  -0.51637  -0.51345
 Alpha  occ. eigenvalues --   -0.44143  -0.42955  -0.39009  -0.37795
 Alpha virt. eigenvalues --    0.18598   0.20322   0.22129   0.25036   0.26295
 Alpha virt. eigenvalues --    0.27473   0.28641   0.30003   0.30945   0.32003
 Alpha virt. eigenvalues --    0.32792   0.33235   0.34409   0.35367   0.38636

 Mulliken atomic charges:
              1
     1  H    0.216702
     2  C   -0.584555
     3  H    0.205585
     4  H    0.179210
     5  C    0.758336
     6  O   -0.629467
     7  N   -0.793558
     8  H    0.391019
     9  C   -0.055116
    10  H    0.218853
    11  C   -0.493837
    12  H    0.191561
    13  H    0.186362
    14  H    0.173659
    15  C    0.761312
    16  O   -0.623488
    17  N   -0.794852
    18  H    0.428879
    19  C   -0.276928
    20  H    0.198579
    21  H    0.170541
    22  H    0.171202
 Sum of Mulliken atomic charges =   0.00000

 Dipole moment (field-independent basis, Debye):
    X=             -2.3868    Y=              0.4178    Z=              0.2782  Tot=              2.4390
 Quadrupole moment (field-independent basis, Debye-Ang):
   XX=            -59.0477   YY=            -58.4081   ZZ=            -62.8766
   XY=             -6.8370   XZ=             -9.6221   YZ=             -3.7560

 Normal termination of Gaussian 09 at Fri Feb 10 17:01:39 2017.
