 Gaussian 09, Revision A.02,
 Gaussian 09:  EM64L-G09RevA.02 11-Jun-2009

 -------------------------------------------
 # HF/6-31G* Opt=(ModRedundant) geom=nocrowd
 -------------------------------------------

 ------------------
 Phi Psi fixed scan
 ------------------
 Symbolic Z-matrix:
 Charge =  0 Multiplicity = 1

 SCF Done:  E(RHF) =  -492.842769413     A.U. after   15 cycles
 SCF Done:  E(RHF) =  -492.850772662     A.U. after   13 cycles
 SCF Done:  E(RHF) =  -492.852330548     A.U. after   13 cycles
 SCF Done:  E(RHF) =  -492.853044015     A.U. after   14 cycles
 SCF Done:  E(RHF) =  -492.854540010     A.U. after   13 cycles
 SCF Done:  E(RHF) =  -492.855479223     A.U. after   14 cycles
 SCF Done:  E(RHF) =  -492.855715345     A.U. after   13 cycles
 SCF Done:  E(RHF) =  -492.855852209     A.U. after   13 cycles
 SCF Done:  E(RHF) =  -492.855899529     A.U. after   11 cycles
 SCF Done:  E(RHF) =  -492.855971063     A.U. after   11 cycles
 SCF Done:  E(RHF) =  -492.856103545     A.U. after   11 cycles
 SCF Done:  E(RHF) =  -492.856233666     A.U. after   12 cycles
 SCF Done:  E(RHF) =  -492.856338449     A.U. after   12 cycles
 SCF Done:  E(RHF) =  -492.856381281     A.U. after   11 cycles
 SCF Done:  E(RHF) =  -492.856395482     A.U. after   12 cycles
 SCF Done:  E(RHF) =  -492.856409601     A.U. after   11 cycles
 SCF Done:  E(RHF) =  -492.856412330     A.U. after   10 cycles
 SCF Done:  E(RHF) =  -492.856414037     A.U. after    9 cycles
 SCF Done:  E(RHF) =  -492.856415149     A.U. after    9 cycles
 SCF Done:  E(RHF) =  -492.856415207     A.U. after    8 cycles
 Optimization completed.
    -- Stationary point found.

                         Standard orientation:
 ---------------------------------------------------------------------
 Center     Atomic      Atomic             Coordinates (Angstroms)
 Number     Number       Type             X           Y           Z
 ---------------------------------------------------------------------
      1          1           0        3.884444   -1.263369    0.033259
      2          6           0        3.150430   -0.766341   -0.583888
      3          1           0        2.741166   -1.481934   -1.290524
      4          1           0        3.620348    0.035264   -1.142899
      5          6           0        2.030244   -0.255175    0.290793
      6          8           0        1.850261   -0.647551    1.407727
      7          7           0        1.245119    0.713744   -0.281780
      8          1           0        1.283358    0.741374   -1.278180
      9          6           0       -0.069353    0.950836    0.262318
     10          1           0        0.022134    0.936349    1.339408
     11          6           0       -0.572665    2.324180   -0.194214
     12          1           0       -0.687645    2.356924   -1.273608
     13          1           0       -1.531567    2.570623    0.245067
     14          1           0        0.142500    3.083804    0.095887
     15          6           0       -1.025315   -0.177012   -0.157312
     16          8           0       -0.676054   -1.056174   -0.896533
     17          7           0       -2.296081   -0.067371    0.293724
     18          1           0       -2.472076    0.555457    1.048544
     19          6           0       -3.262142   -1.121998    0.060165
     20          1           0       -3.264851   -1.381788   -0.987669
     21          1           0       -3.037969   -2.014379    0.634733
     22          1           0       -4.243946   -0.760064    0.335652
 ---------------------------------------------------------------------

 The electronic state is 1-A.
 Alpha  occ. eigenvalues --  -20.52866 -20.52140 -15.58835 -15.57601 -11.34525
 Alpha  occ. eigenvalues --  -11.34202 -11.27829 -11.25895 -11.23477 -11.22401
 Alpha  occ. eigenvalues --   -1.39935  -1.38600  -1.23643  -1.23352  -1.05517
 Alpha  occ. eigenvalues --   -0.98918  -0.95817  -0.87956  -0.79456  -0.78260
 Alpha  occ. eigenvalues --   -0.72950  -0.67055  -0.66430  -0.63423  -0.62934
 Alpha  occ. eigenvalues --   -0.61785  -0.59568  -0.58172  -0.57236  -0.56325
 Alpha  occ. eigenvalues --   -0.55543  -0.54165  -0.53510  -0.50684  -0.50303
 Alpha  occ. eigenvalues --   -0.42972  -0.41616  -0.39413  -0.38947
 Alpha virt. eigenvalues --    0.19244   0.20761   0.21413   0.23317   0.26380
 Alpha virt. eigenvalues --    0.27387   0.29437   0.30716   0.31208   0.31375
 Alpha virt. eigenvalues --    0.32174   0.32738   0.33808   0.34582   0.37633

 Mulliken atomic charges:
              1
     1  H    0.210867
     2  C   -0.596964
     3  H    0.209835
     4  H    0.179866
     5  C    0.755308
     6  O   -0.600699
     7  N   -0.757682
     8  H    0.377973
     9  C   -0.088005
    10  H    0.234743
    11  C   -0.478183
    12  H    0.170660
    13  H    0.166594
    14  H    0.193132
    15  C    0.771101
    16  O   -0.618575
    17  N   -0.789380
    18  H    0.381556
    19  C   -0.276192
    20  H    0.204534
    21  H    0.180888
    22  H    0.168625
 Sum of Mulliken atomic charges =   0.00000

 Dipole moment (field-independent basis, Debye):
    X=             -2.2316    Y=              2.8715    Z=             -1.0164  Tot=              3.7760
 Quadrupole moment (field-independent basis, Debye-Ang):
   XX=            -50.4983   YY=            -61.6303   ZZ=            -63.1003
   XY=             -0.0167   XZ=            -10.3625   YZ=              0.7727

 Normal termination of Gaussian 09 at Fri Feb 10 17:15:45 2017.
