 Gaussian 09, Revision A.02,
 Gaussian 09:  EM64L-G09RevA.02 11-Jun-2009

 -------------------------------------------
 # HF/6-31G* Opt=(ModRedundant) geom=nocrowd
 -------------------------------------------

 ------------------
 Phi Psi fixed scan
 ------------------
 Symbolic Z-matrix:
 Charge =  0 Multiplicity = 1

 SCF Done:  E(RHF) =  -492.823577682     A.U. after   15 cycles
 SCF Done:  E(RHF) =  -492.837190745     A.U. after   14 cycles
 SCF Done:  E(RHF) =  -492.841360761     A.U. after   14 cycles
 SCF Done:  E(RHF) =  -492.842269090     A.U. after   13 cycles
 SCF Done:  E(RHF) =  -492.843784100     A.U. after   14 cycles
 SCF Done:  E(RHF) =  -492.844831152     A.U. after   14 cycles
 SCF Done:  E(RHF) =  -492.844956871     A.U. after   13 cycles
 SCF Done:  E(RHF) =  -492.845310042     A.U. after   13 cycles
 SCF Done:  E(RHF) =  -492.845354000     A.U. after   11 cycles
 SCF Done:  E(RHF) =  -492.845391087     A.U. after   12 cycles
 SCF Done:  E(RHF) =  -492.845437330     A.U. after   11 cycles
 SCF Done:  E(RHF) =  -492.845548561     A.U. after   14 cycles
 SCF Done:  E(RHF) =  -492.845391850     A.U. after   15 cycles
 SCF Done:  E(RHF) =  -492.845805711     A.U. after   13 cycles
 SCF Done:  E(RHF) =  -492.845874037     A.U. after   12 cycles
 SCF Done:  E(RHF) =  -492.845887515     A.U. after   11 cycles
 SCF Done:  E(RHF) =  -492.845894335     A.U. after   11 cycles
 SCF Done:  E(RHF) =  -492.845903307     A.U. after   11 cycles
 SCF Done:  E(RHF) =  -492.845905739     A.U. after   10 cycles
 SCF Done:  E(RHF) =  -492.845905910     A.U. after    9 cycles
 Optimization completed.
    -- Stationary point found.

                         Standard orientation:
 ---------------------------------------------------------------------
 Center     Atomic      Atomic             Coordinates (Angstroms)
 Number     Number       Type             X           Y           Z
 ---------------------------------------------------------------------
      1          1           0       -3.816011   -1.244583    0.552445
      2          6           0       -2.908870   -0.867197    1.000722
      3          1           0       -2.341906   -1.702177    1.401659
      4          1           0       -3.154764   -0.197553    1.818185
      5          6           0       -2.081529   -0.179136   -0.061397
      6          8           0       -2.274749   -0.332668   -1.228418
      7          7           0       -1.122098    0.683751    0.427008
      8          1           0       -0.962862    0.609283    1.409741
      9          6           0        0.076147    0.967145   -0.343505
     10          1           0       -0.237405    1.015200   -1.376571
     11          6           0        0.642655    2.323347    0.068201
     12          1           0        0.939843    2.341208    1.113448
     13          1           0        1.500144    2.597886   -0.538303
     14          1           0       -0.118286    3.080320   -0.071505
     15          6           0        1.035220   -0.237160   -0.270950
     16          8           0        0.667681   -1.328838   -0.605801
     17          7           0        2.263416   -0.029793    0.254836
     18          1           0        2.579778    0.896175    0.413967
     19          6           0        3.238025   -1.100330    0.306149
     20          1           0        2.809962   -1.965330    0.791662
     21          1           0        3.565291   -1.393880   -0.684887
     22          1           0        4.093648   -0.762228    0.875683
 ---------------------------------------------------------------------

 The electronic state is 1-A.
 Alpha  occ. eigenvalues --  -20.52195 -20.51841 -15.59126 -15.58135 -11.34489
 Alpha  occ. eigenvalues --  -11.34152 -11.28003 -11.26116 -11.23871 -11.22604
 Alpha  occ. eigenvalues --   -1.39610  -1.38399  -1.23890  -1.23191  -1.05644
 Alpha  occ. eigenvalues --   -0.99037  -0.95893  -0.88698  -0.79498  -0.78672
 Alpha  occ. eigenvalues --   -0.72788  -0.66907  -0.65852  -0.64593  -0.62693
 Alpha  occ. eigenvalues --   -0.61424  -0.59171  -0.58615  -0.57382  -0.56359
 Alpha  occ. eigenvalues --   -0.55777  -0.54921  -0.53045  -0.50732  -0.50339
 Alpha  occ. eigenvalues --   -0.43841  -0.41239  -0.39318  -0.37828
 Alpha virt. eigenvalues --    0.18278   0.20572   0.22481   0.23581   0.25585
 Alpha virt. eigenvalues --    0.27794   0.28294   0.29518   0.30617   0.31380
 Alpha virt. eigenvalues --    0.32290   0.33289   0.33604   0.34316   0.37963

 Mulliken atomic charges:
              1
     1  H    0.214583
     2  C   -0.596885
     3  H    0.202594
     4  H    0.175402
     5  C    0.764359
     6  O   -0.577510
     7  N   -0.776360
     8  H    0.366545
     9  C   -0.063402
    10  H    0.250803
    11  C   -0.513502
    12  H    0.159451
    13  H    0.170033
    14  H    0.206311
    15  C    0.750659
    16  O   -0.600004
    17  N   -0.806541
    18  H    0.394244
    19  C   -0.271531
    20  H    0.201293
    21  H    0.183619
    22  H    0.165837
 Sum of Mulliken atomic charges =   0.00000

 Dipole moment (field-independent basis, Debye):
    X=              3.4336    Y=              3.0884    Z=              4.3376  Tot=              6.3358
 Quadrupole moment (field-independent basis, Debye-Ang):
   XX=            -53.7727   YY=            -61.5016   ZZ=            -62.0409
   XY=              2.4519   XZ=             -6.5265   YZ=             -3.8418

 Normal termination of Gaussian 09 at Fri Feb 10 17:28:40 2017.
