 Gaussian 09, Revision A.02,
 Gaussian 09:  EM64L-G09RevA.02 11-Jun-2009

 -------------------------------------------
 # HF/6-31G* Opt=(ModRedundant) geom=nocrowd
 -------------------------------------------

 ------------------
 Phi Psi fixed scan
 ------------------
 Symbolic Z-matrix:
 Charge =  0 Multiplicity = 1

 SCF Done:  E(RHF) =  -492.836337022     A.U. after   15 cycles
 SCF Done:  E(RHF) =  -492.846234335     A.U. after   14 cycles
 SCF Done:  E(RHF) =  -492.849081055     A.U. after   14 cycles
 SCF Done:  E(RHF) =  -492.850260866     A.U. after   13 cycles
 SCF Done:  E(RHF) =  -492.852109442     A.U. after   14 cycles
 SCF Done:  E(RHF) =  -492.852646162     A.U. after   13 cycles
 SCF Done:  E(RHF) =  -492.852964537     A.U. after   12 cycles
 SCF Done:  E(RHF) =  -492.853141375     A.U. after   13 cycles
 SCF Done:  E(RHF) =  -492.853214074     A.U. after   12 cycles
 SCF Done:  E(RHF) =  -492.853263894     A.U. after   11 cycles
 SCF Done:  E(RHF) =  -492.853383493     A.U. after   11 cycles
 SCF Done:  E(RHF) =  -492.853508107     A.U. after   12 cycles
 SCF Done:  E(RHF) =  -492.853620528     A.U. after   11 cycles
 SCF Done:  E(RHF) =  -492.853683057     A.U. after   11 cycles
 SCF Done:  E(RHF) =  -492.853776293     A.U. after   12 cycles
 SCF Done:  E(RHF) =  -492.853781450     A.U. after   11 cycles
 SCF Done:  E(RHF) =  -492.853788928     A.U. after   10 cycles
 SCF Done:  E(RHF) =  -492.853790648     A.U. after    9 cycles
 SCF Done:  E(RHF) =  -492.853792638     A.U. after   10 cycles
 SCF Done:  E(RHF) =  -492.853793259     A.U. after    9 cycles
 Optimization completed.
    -- Stationary point found.

                         Standard orientation:
 ---------------------------------------------------------------------
 Center     Atomic      Atomic             Coordinates (Angstroms)
 Number     Number       Type             X           Y           Z
 ---------------------------------------------------------------------
      1          1           0        3.890303   -1.225970   -0.072502
      2          6           0        3.101154   -0.789994   -0.667300
      3          1           0        2.638122   -1.568780   -1.265383
      4          1           0        3.514228   -0.043496   -1.336984
      5          6           0        2.054836   -0.201940    0.249211
      6          8           0        1.976658   -0.485391    1.408774
      7          7           0        1.216620    0.714398   -0.342044
      8          1           0        1.200226    0.668038   -1.338658
      9          6           0       -0.078060    0.952683    0.251180
     10          1           0        0.066354    0.976822    1.322898
     11          6           0       -0.612154    2.307509   -0.223436
     12          1           0       -0.814225    2.300530   -1.290175
     13          1           0       -1.526924    2.591890    0.283231
     14          1           0        0.129610    3.069663   -0.021337
     15          6           0       -1.017414   -0.226993   -0.060056
     16          8           0       -0.599413   -1.251385   -0.526032
     17          7           0       -2.337542   -0.019086    0.151093
     18          1           0       -2.613341    0.764430    0.695533
     19          6           0       -3.288864   -1.103988    0.014362
     20          1           0       -3.152756   -1.585139   -0.942478
     21          1           0       -3.170810   -1.849925    0.792952
     22          1           0       -4.289280   -0.694703    0.063860
 ---------------------------------------------------------------------

 The electronic state is 1-A.
 Alpha  occ. eigenvalues --  -20.52856 -20.51893 -15.58967 -15.57557 -11.34626
 Alpha  occ. eigenvalues --  -11.34030 -11.27917 -11.25982 -11.23625 -11.22245
 Alpha  occ. eigenvalues --   -1.39966  -1.38420  -1.23679  -1.23286  -1.05464
 Alpha  occ. eigenvalues --   -0.98810  -0.95804  -0.88212  -0.79422  -0.78302
 Alpha  occ. eigenvalues --   -0.72954  -0.66909  -0.66209  -0.63724  -0.62894
 Alpha  occ. eigenvalues --   -0.61705  -0.59446  -0.58219  -0.57118  -0.56247
 Alpha  occ. eigenvalues --   -0.55620  -0.54419  -0.53432  -0.50439  -0.50321
 Alpha  occ. eigenvalues --   -0.43152  -0.41386  -0.39500  -0.38744
 Alpha virt. eigenvalues --    0.19128   0.20741   0.21484   0.23437   0.26236
 Alpha virt. eigenvalues --    0.27511   0.29252   0.30340   0.31190   0.31467
 Alpha virt. eigenvalues --    0.32020   0.33453   0.33630   0.34831   0.38039

 Mulliken atomic charges:
              1
     1  H    0.210581
     2  C   -0.598804
     3  H    0.211115
     4  H    0.177377
     5  C    0.761617
     6  O   -0.597065
     7  N   -0.757395
     8  H    0.372925
     9  C   -0.092257
    10  H    0.244641
    11  C   -0.480975
    12  H    0.170606
    13  H    0.157347
    14  H    0.196955
    15  C    0.768084
    16  O   -0.613452
    17  N   -0.793511
    18  H    0.384145
    19  C   -0.275460
    20  H    0.204429
    21  H    0.180915
    22  H    0.168182
 Sum of Mulliken atomic charges =   0.00000

 Dipole moment (field-independent basis, Debye):
    X=             -2.8163    Y=              2.9906    Z=             -1.8483  Tot=              4.5046
 Quadrupole moment (field-independent basis, Debye-Ang):
   XX=            -50.8902   YY=            -62.0032   ZZ=            -62.5465
   XY=             -1.1007   XZ=             -9.9019   YZ=              1.2573

 Normal termination of Gaussian 09 at Fri Feb 10 17:18:15 2017.
