 Gaussian 09, Revision A.02,
 Gaussian 09:  EM64L-G09RevA.02 11-Jun-2009

 -------------------------------------------
 # HF/6-31G* Opt=(ModRedundant) geom=nocrowd
 -------------------------------------------

 ------------------
 Phi Psi fixed scan
 ------------------
 Symbolic Z-matrix:
 Charge =  0 Multiplicity = 1

 SCF Done:  E(RHF) =  -492.824619258     A.U. after   15 cycles
 SCF Done:  E(RHF) =  -492.837647068     A.U. after   14 cycles
 SCF Done:  E(RHF) =  -492.841312857     A.U. after   14 cycles
 SCF Done:  E(RHF) =  -492.842011489     A.U. after   13 cycles
 SCF Done:  E(RHF) =  -492.843039727     A.U. after   14 cycles
 SCF Done:  E(RHF) =  -492.843841434     A.U. after   13 cycles
 SCF Done:  E(RHF) =  -492.844200761     A.U. after   13 cycles
 SCF Done:  E(RHF) =  -492.844231613     A.U. after   12 cycles
 SCF Done:  E(RHF) =  -492.844290750     A.U. after   12 cycles
 SCF Done:  E(RHF) =  -492.844329492     A.U. after   12 cycles
 SCF Done:  E(RHF) =  -492.844637563     A.U. after   11 cycles
 SCF Done:  E(RHF) =  -492.844681255     A.U. after   12 cycles
 SCF Done:  E(RHF) =  -492.844834663     A.U. after   12 cycles
 SCF Done:  E(RHF) =  -492.844849700     A.U. after   11 cycles
 SCF Done:  E(RHF) =  -492.844870358     A.U. after   12 cycles
 SCF Done:  E(RHF) =  -492.844875955     A.U. after   10 cycles
 SCF Done:  E(RHF) =  -492.844876461     A.U. after   10 cycles
 SCF Done:  E(RHF) =  -492.844876714     A.U. after    8 cycles
 SCF Done:  E(RHF) =  -492.844876788     A.U. after    8 cycles
 SCF Done:  E(RHF) =  -492.844876803     A.U. after    8 cycles
 Optimization completed.
    -- Stationary point found.

                         Standard orientation:
 ---------------------------------------------------------------------
 Center     Atomic      Atomic             Coordinates (Angstroms)
 Number     Number       Type             X           Y           Z
 ---------------------------------------------------------------------
      1          1           0       -3.796624   -1.249097    0.653175
      2          6           0       -2.886632   -0.851389    1.077382
      3          1           0       -2.319482   -1.667244    1.516008
      4          1           0       -3.127692   -0.143721    1.863547
      5          6           0       -2.068778   -0.211698   -0.023403
      6          8           0       -2.277590   -0.414015   -1.179990
      7          7           0       -1.100387    0.661778    0.419992
      8          1           0       -0.925835    0.630580    1.402087
      9          6           0        0.068655    0.975046   -0.386975
     10          1           0       -0.275721    1.021247   -1.409150
     11          6           0        0.622093    2.337878    0.018450
     12          1           0        0.893417    2.374418    1.070634
     13          1           0        1.495152    2.600586   -0.570319
     14          1           0       -0.136144    3.092598   -0.147327
     15          6           0        1.056387   -0.205541   -0.358878
     16          8           0        0.806854   -1.228111   -0.931705
     17          7           0        2.169579   -0.064312    0.399972
     18          1           0        2.424497    0.835693    0.729322
     19          6           0        3.169984   -1.110911    0.447143
     20          1           0        2.704561   -2.052659    0.698883
     21          1           0        3.677919   -1.226605   -0.503962
     22          1           0        3.897239   -0.861371    1.208597
 ---------------------------------------------------------------------

 The electronic state is 1-A.
 Alpha  occ. eigenvalues --  -20.52161 -20.52057 -15.58980 -15.58462 -11.34371
 Alpha  occ. eigenvalues --  -11.34345 -11.27987 -11.26044 -11.23962 -11.22890
 Alpha  occ. eigenvalues --   -1.39560  -1.38582  -1.24076  -1.23077  -1.05783
 Alpha  occ. eigenvalues --   -0.99216  -0.95855  -0.88776  -0.79413  -0.78955
 Alpha  occ. eigenvalues --   -0.72687  -0.67073  -0.66021  -0.64553  -0.62691
 Alpha  occ. eigenvalues --   -0.61462  -0.59191  -0.58700  -0.57608  -0.56500
 Alpha  occ. eigenvalues --   -0.55809  -0.54918  -0.52698  -0.50960  -0.50756
 Alpha  occ. eigenvalues --   -0.44017  -0.41417  -0.39284  -0.37666
 Alpha virt. eigenvalues --    0.18373   0.20363   0.22169   0.23513   0.25516
 Alpha virt. eigenvalues --    0.27780   0.28028   0.29827   0.30180   0.31298
 Alpha virt. eigenvalues --    0.32611   0.33261   0.33457   0.33870   0.37796

 Mulliken atomic charges:
              1
     1  H    0.216488
     2  C   -0.594962
     3  H    0.197685
     4  H    0.177166
     5  C    0.755591
     6  O   -0.570337
     7  N   -0.785095
     8  H    0.367783
     9  C   -0.051968
    10  H    0.251332
    11  C   -0.512784
    12  H    0.152005
    13  H    0.177048
    14  H    0.204808
    15  C    0.744411
    16  O   -0.592423
    17  N   -0.805560
    18  H    0.391924
    19  C   -0.272329
    20  H    0.202162
    21  H    0.181885
    22  H    0.165171
 Sum of Mulliken atomic charges =   0.00000

 Dipole moment (field-independent basis, Debye):
    X=              3.0383    Y=              3.1466    Z=              5.0582  Tot=              6.6872
 Quadrupole moment (field-independent basis, Debye-Ang):
   XX=            -54.8463   YY=            -60.8384   ZZ=            -62.5546
   XY=              2.1793   XZ=             -5.1330   YZ=             -4.6905

 Normal termination of Gaussian 09 at Fri Feb 10 17:33:37 2017.
