 Gaussian 09, Revision A.02,
 Gaussian 09:  EM64L-G09RevA.02 11-Jun-2009

 -------------------------------------------
 # HF/6-31G* Opt=(ModRedundant) geom=nocrowd
 -------------------------------------------

 ------------------
 Phi Psi fixed scan
 ------------------
 Symbolic Z-matrix:
 Charge =  0 Multiplicity = 1

 SCF Done:  E(RHF) =  -492.851111976     A.U. after   15 cycles
 SCF Done:  E(RHF) =  -492.856670829     A.U. after   13 cycles
 SCF Done:  E(RHF) =  -492.857407295     A.U. after   13 cycles
 SCF Done:  E(RHF) =  -492.858127779     A.U. after   13 cycles
 SCF Done:  E(RHF) =  -492.858678025     A.U. after   13 cycles
 SCF Done:  E(RHF) =  -492.858752039     A.U. after   12 cycles
 SCF Done:  E(RHF) =  -492.859136880     A.U. after   12 cycles
 SCF Done:  E(RHF) =  -492.859223761     A.U. after   11 cycles
 SCF Done:  E(RHF) =  -492.859409115     A.U. after   13 cycles
 SCF Done:  E(RHF) =  -492.859514198     A.U. after   12 cycles
 SCF Done:  E(RHF) =  -492.859685280     A.U. after   12 cycles
 SCF Done:  E(RHF) =  -492.859757796     A.U. after   12 cycles
 SCF Done:  E(RHF) =  -492.859790171     A.U. after   12 cycles
 SCF Done:  E(RHF) =  -492.859793774     A.U. after   11 cycles
 SCF Done:  E(RHF) =  -492.859794718     A.U. after    9 cycles
 SCF Done:  E(RHF) =  -492.859794853     A.U. after    8 cycles
 SCF Done:  E(RHF) =  -492.859795159     A.U. after    9 cycles
 SCF Done:  E(RHF) =  -492.859795443     A.U. after    9 cycles
 SCF Done:  E(RHF) =  -492.859795518     A.U. after    8 cycles
 Optimization completed.
    -- Stationary point found.

                         Standard orientation:
 ---------------------------------------------------------------------
 Center     Atomic      Atomic             Coordinates (Angstroms)
 Number     Number       Type             X           Y           Z
 ---------------------------------------------------------------------
      1          1           0       -3.690744   -1.542538    0.153245
      2          6           0       -3.073776   -0.827898    0.678444
      3          1           0       -2.752081   -1.273139    1.615227
      4          1           0       -3.650496    0.061519    0.903547
      5          6           0       -1.856205   -0.518527   -0.162265
      6          8           0       -1.439680   -1.278516   -0.995462
      7          7           0       -1.260067    0.677129    0.087511
      8          1           0       -1.479643    1.135141    0.944453
      9          6           0        0.029667    0.986202   -0.498328
     10          1           0       -0.013827    0.686539   -1.534668
     11          6           0        0.300338    2.484891   -0.408802
     12          1           0        0.348763    2.802756    0.625975
     13          1           0        1.248522    2.726376   -0.876490
     14          1           0       -0.484198    3.035549   -0.915042
     15          6           0        1.131683    0.215517    0.233863
     16          8           0        1.338113    0.408662    1.402874
     17          7           0        1.857444   -0.632785   -0.522608
     18          1           0        1.433492   -0.948460   -1.366118
     19          6           0        2.854583   -1.492317    0.081068
     20          1           0        3.500741   -0.902640    0.713889
     21          1           0        2.406283   -2.276184    0.682745
     22          1           0        3.446351   -1.943706   -0.704272
 ---------------------------------------------------------------------

 The electronic state is 1-A.
 Alpha  occ. eigenvalues --  -20.53035 -20.52182 -15.58800 -15.58184 -11.35326
 Alpha  occ. eigenvalues --  -11.33948 -11.27780 -11.25261 -11.23501 -11.22693
 Alpha  occ. eigenvalues --   -1.39962  -1.38778  -1.24234  -1.22929  -1.05705
 Alpha  occ. eigenvalues --   -0.99541  -0.95857  -0.87331  -0.80113  -0.78096
 Alpha  occ. eigenvalues --   -0.72764  -0.67967  -0.66888  -0.64008  -0.62277
 Alpha  occ. eigenvalues --   -0.61845  -0.59767  -0.58680  -0.57626  -0.56001
 Alpha  occ. eigenvalues --   -0.54803  -0.53890  -0.52234  -0.51847  -0.50681
 Alpha  occ. eigenvalues --   -0.43447  -0.42444  -0.39521  -0.38093
 Alpha virt. eigenvalues --    0.19285   0.20202   0.22418   0.23835   0.26420
 Alpha virt. eigenvalues --    0.27292   0.28763   0.30028   0.30941   0.31775
 Alpha virt. eigenvalues --    0.32330   0.33146   0.34208   0.35225   0.38017

 Mulliken atomic charges:
              1
     1  H    0.214615
     2  C   -0.588468
     3  H    0.203966
     4  H    0.182582
     5  C    0.748675
     6  O   -0.616789
     7  N   -0.778069
     8  H    0.390183
     9  C   -0.055249
    10  H    0.214341
    11  C   -0.499891
    12  H    0.190980
    13  H    0.181339
    14  H    0.181044
    15  C    0.770013
    16  O   -0.628842
    17  N   -0.779808
    18  H    0.400205
    19  C   -0.281287
    20  H    0.202178
    21  H    0.177496
    22  H    0.170784
 Sum of Mulliken atomic charges =   0.00000

 Dipole moment (field-independent basis, Debye):
    X=             -0.8723    Y=              0.9093    Z=             -0.5593  Tot=              1.3786
 Quadrupole moment (field-independent basis, Debye-Ang):
   XX=            -54.1172   YY=            -59.2775   ZZ=            -64.1152
   XY=             -5.6173   XZ=             -9.6242   YZ=             -3.0205

 Normal termination of Gaussian 09 at Fri Feb 10 17:06:13 2017.
