 Gaussian 09, Revision A.02,
 Gaussian 09:  EM64L-G09RevA.02 11-Jun-2009

 -------------------------------------------
 # HF/6-31G* Opt=(ModRedundant) geom=nocrowd
 -------------------------------------------

 ------------------
 Phi Psi fixed scan
 ------------------
 Symbolic Z-matrix:
 Charge =  0 Multiplicity = 1

 SCF Done:  E(RHF) =  -492.843377023     A.U. after   15 cycles
 SCF Done:  E(RHF) =  -492.851203843     A.U. after   13 cycles
 SCF Done:  E(RHF) =  -492.852253500     A.U. after   13 cycles
 SCF Done:  E(RHF) =  -492.852490768     A.U. after   13 cycles
 SCF Done:  E(RHF) =  -492.852890403     A.U. after   13 cycles
 SCF Done:  E(RHF) =  -492.853156343     A.U. after   13 cycles
 SCF Done:  E(RHF) =  -492.853443255     A.U. after   13 cycles
 SCF Done:  E(RHF) =  -492.853562409     A.U. after   12 cycles
 SCF Done:  E(RHF) =  -492.853634168     A.U. after   11 cycles
 SCF Done:  E(RHF) =  -492.853737586     A.U. after   12 cycles
 SCF Done:  E(RHF) =  -492.853871079     A.U. after   12 cycles
 SCF Done:  E(RHF) =  -492.854114067     A.U. after   14 cycles
 SCF Done:  E(RHF) =  -492.854156681     A.U. after   12 cycles
 SCF Done:  E(RHF) =  -492.854183802     A.U. after   11 cycles
 SCF Done:  E(RHF) =  -492.854193642     A.U. after   11 cycles
 SCF Done:  E(RHF) =  -492.854195773     A.U. after    9 cycles
 SCF Done:  E(RHF) =  -492.854195988     A.U. after    8 cycles
 SCF Done:  E(RHF) =  -492.854196252     A.U. after    8 cycles
 SCF Done:  E(RHF) =  -492.854196686     A.U. after   10 cycles
 SCF Done:  E(RHF) =  -492.854196815     A.U. after    8 cycles
 Optimization completed.
    -- Stationary point found.

                         Standard orientation:
 ---------------------------------------------------------------------
 Center     Atomic      Atomic             Coordinates (Angstroms)
 Number     Number       Type             X           Y           Z
 ---------------------------------------------------------------------
      1          1           0        3.593609   -1.642060   -0.208030
      2          6           0        3.216560   -0.682120   -0.529010
      3          1           0        3.112138   -0.671880   -1.608336
      4          1           0        3.936224    0.081980   -0.250364
      5          6           0        1.903361   -0.411073    0.172649
      6          8           0        1.588444   -0.958322    1.188823
      7          7           0        1.093658    0.504643   -0.435392
      8          1           0        1.492621    1.047759   -1.168507
      9          6           0       -0.045321    1.079560    0.265585
     10          1           0        0.235556    1.302216    1.285670
     11          6           0       -0.497038    2.359839   -0.435492
     12          1           0       -0.780623    2.167547   -1.464932
     13          1           0       -1.352743    2.777421    0.079885
     14          1           0        0.298258    3.098770   -0.424292
     15          6           0       -1.224217    0.112458    0.387817
     16          8           0       -1.892667    0.096989    1.382026
     17          7           0       -1.545356   -0.574742   -0.734579
     18          1           0       -0.820306   -0.693931   -1.404586
     19          6           0       -2.600782   -1.565973   -0.709101
     20          1           0       -3.488961   -1.132883   -0.274198
     21          1           0       -2.818485   -1.868697   -1.725340
     22          1           0       -2.326997   -2.441034   -0.128643
 ---------------------------------------------------------------------

 The electronic state is 1-A.
 Alpha  occ. eigenvalues --  -20.53473 -20.51565 -15.59648 -15.57571 -11.35691
 Alpha  occ. eigenvalues --  -11.33486 -11.27887 -11.24983 -11.24226 -11.23739
 Alpha  occ. eigenvalues --   -1.40406  -1.38368  -1.25092  -1.22027  -1.06153
 Alpha  occ. eigenvalues --   -1.00156  -0.95305  -0.88204  -0.80739  -0.77735
 Alpha  occ. eigenvalues --   -0.71286  -0.69046  -0.67812  -0.62838  -0.62506
 Alpha  occ. eigenvalues --   -0.62194  -0.59497  -0.58905  -0.58337  -0.55800
 Alpha  occ. eigenvalues --   -0.54981  -0.54430  -0.54379  -0.51777  -0.49747
 Alpha  occ. eigenvalues --   -0.43134  -0.42693  -0.39027  -0.38346
 Alpha virt. eigenvalues --    0.19166   0.20133   0.20605   0.24720   0.25588
 Alpha virt. eigenvalues --    0.27667   0.28469   0.29546   0.30180   0.31083
 Alpha virt. eigenvalues --    0.31979   0.32764   0.34075   0.34715   0.37580

 Mulliken atomic charges:
              1
     1  H    0.220144
     2  C   -0.589988
     3  H    0.177022
     4  H    0.199095
     5  C    0.735825
     6  O   -0.577415
     7  N   -0.826180
     8  H    0.382976
     9  C   -0.032496
    10  H    0.233709
    11  C   -0.517975
    12  H    0.174280
    13  H    0.209815
    14  H    0.173646
    15  C    0.773480
    16  O   -0.608240
    17  N   -0.780592
    18  H    0.385661
    19  C   -0.279051
    20  H    0.203427
    21  H    0.163577
    22  H    0.179280
 Sum of Mulliken atomic charges =   0.00000

 Dipole moment (field-independent basis, Debye):
    X=              2.7256    Y=              1.7175    Z=             -5.8940  Tot=              6.7170
 Quadrupole moment (field-independent basis, Debye-Ang):
   XX=            -57.4036   YY=            -56.5398   ZZ=            -65.6974
   XY=              4.6265   XZ=              0.6519   YZ=              3.4973

 Normal termination of Gaussian 09 at Fri Feb 10 17:45:10 2017.
