 Gaussian 09, Revision A.02,
 Gaussian 09:  EM64L-G09RevA.02 11-Jun-2009

 -------------------------------------------
 # HF/6-31G* Opt=(ModRedundant) geom=nocrowd
 -------------------------------------------

 ------------------
 Phi Psi fixed scan
 ------------------
 Symbolic Z-matrix:
 Charge =  0 Multiplicity = 1

 SCF Done:  E(RHF) =  -492.849152775     A.U. after   15 cycles
 SCF Done:  E(RHF) =  -492.855266189     A.U. after   13 cycles
 SCF Done:  E(RHF) =  -492.855993108     A.U. after   13 cycles
 SCF Done:  E(RHF) =  -492.856762185     A.U. after   13 cycles
 SCF Done:  E(RHF) =  -492.857488302     A.U. after   13 cycles
 SCF Done:  E(RHF) =  -492.858264278     A.U. after   14 cycles
 SCF Done:  E(RHF) =  -492.858486585     A.U. after   12 cycles
 SCF Done:  E(RHF) =  -492.858547272     A.U. after   11 cycles
 SCF Done:  E(RHF) =  -492.858601239     A.U. after   11 cycles
 SCF Done:  E(RHF) =  -492.858674248     A.U. after   12 cycles
 SCF Done:  E(RHF) =  -492.858755523     A.U. after   11 cycles
 SCF Done:  E(RHF) =  -492.858848128     A.U. after   11 cycles
 SCF Done:  E(RHF) =  -492.858950304     A.U. after   12 cycles
 SCF Done:  E(RHF) =  -492.858989733     A.U. after   12 cycles
 SCF Done:  E(RHF) =  -492.859014657     A.U. after   11 cycles
 SCF Done:  E(RHF) =  -492.859022962     A.U. after   10 cycles
 SCF Done:  E(RHF) =  -492.859031184     A.U. after   11 cycles
 SCF Done:  E(RHF) =  -492.859039734     A.U. after   11 cycles
 SCF Done:  E(RHF) =  -492.859040467     A.U. after    9 cycles
 SCF Done:  E(RHF) =  -492.859040513     A.U. after    8 cycles
 Optimization completed.
    -- Stationary point found.

                         Standard orientation:
 ---------------------------------------------------------------------
 Center     Atomic      Atomic             Coordinates (Angstroms)
 Number     Number       Type             X           Y           Z
 ---------------------------------------------------------------------
      1          1           0       -3.800519   -1.437200    0.010789
      2          6           0       -3.159496   -0.775297    0.574510
      3          1           0       -2.823411   -1.291716    1.468819
      4          1           0       -3.713735    0.105318    0.878504
      5          6           0       -1.956737   -0.416129   -0.266853
      6          8           0       -1.623001   -1.056490   -1.224760
      7          7           0       -1.278597    0.698971    0.136366
      8          1           0       -1.410959    0.969053    1.086908
      9          6           0        0.043074    0.949035   -0.388703
     10          1           0        0.004884    0.767812   -1.452750
     11          6           0        0.443965    2.402353   -0.127300
     12          1           0        0.475955    2.604967    0.938374
     13          1           0        1.426118    2.610134   -0.536300
     14          1           0       -0.273434    3.071877   -0.586649
     15          6           0        1.062263    0.013335    0.267449
     16          8           0        0.943066   -0.320927    1.415782
     17          7           0        2.124060   -0.322480   -0.494919
     18          1           0        2.038219   -0.212842   -1.479519
     19          6           0        3.133678   -1.240076   -0.008368
     20          1           0        3.446826   -0.938752    0.979951
     21          1           0        2.764769   -2.258900    0.043224
     22          1           0        3.986039   -1.205176   -0.674051
 ---------------------------------------------------------------------

 The electronic state is 1-A.
 Alpha  occ. eigenvalues --  -20.52602 -20.52477 -15.58635 -15.57973 -11.34670
 Alpha  occ. eigenvalues --  -11.34230 -11.27738 -11.25656 -11.23132 -11.22880
 Alpha  occ. eigenvalues --   -1.39782  -1.38816  -1.23749  -1.23307  -1.05621
 Alpha  occ. eigenvalues --   -0.99205  -0.95922  -0.87535  -0.79711  -0.78249
 Alpha  occ. eigenvalues --   -0.72912  -0.67395  -0.66680  -0.63667  -0.62526
 Alpha  occ. eigenvalues --   -0.61819  -0.59760  -0.58274  -0.57473  -0.56334
 Alpha  occ. eigenvalues --   -0.55244  -0.53949  -0.53106  -0.51270  -0.50295
 Alpha  occ. eigenvalues --   -0.42914  -0.41984  -0.39577  -0.38609
 Alpha virt. eigenvalues --    0.19469   0.20238   0.22280   0.23251   0.26538
 Alpha virt. eigenvalues --    0.27062   0.29390   0.30448   0.30982   0.31544
 Alpha virt. eigenvalues --    0.32163   0.32988   0.34047   0.34584   0.37820

 Mulliken atomic charges:
              1
     1  H    0.212507
     2  C   -0.592530
     3  H    0.205412
     4  H    0.183491
     5  C    0.747485
     6  O   -0.606695
     7  N   -0.764678
     8  H    0.386657
     9  C   -0.067768
    10  H    0.216696
    11  C   -0.490360
    12  H    0.179993
    13  H    0.179478
    14  H    0.188574
    15  C    0.774800
    16  O   -0.628255
    17  N   -0.788036
    18  H    0.386536
    19  C   -0.277660
    20  H    0.203660
    21  H    0.181427
    22  H    0.169267
 Sum of Mulliken atomic charges =   0.00000

 Dipole moment (field-independent basis, Debye):
    X=              0.8546    Y=              2.0783    Z=             -0.4001  Tot=              2.2825
 Quadrupole moment (field-independent basis, Debye-Ang):
   XX=            -51.1074   YY=            -60.2235   ZZ=            -64.2359
   XY=             -3.0844   XZ=            -10.3922   YZ=             -1.2853

 Normal termination of Gaussian 09 at Fri Feb 10 17:10:51 2017.
