 Gaussian 09, Revision A.02,
 Gaussian 09:  EM64L-G09RevA.02 11-Jun-2009

 -------------------------------------------
 # HF/6-31G* Opt=(ModRedundant) geom=nocrowd
 -------------------------------------------

 ------------------
 Phi Psi fixed scan
 ------------------
 Symbolic Z-matrix:
 Charge =  0 Multiplicity = 1

 SCF Done:  E(RHF) =  -492.851797163     A.U. after   15 cycles
 SCF Done:  E(RHF) =  -492.857499485     A.U. after   13 cycles
 SCF Done:  E(RHF) =  -492.858335446     A.U. after   13 cycles
 SCF Done:  E(RHF) =  -492.858823823     A.U. after   14 cycles
 SCF Done:  E(RHF) =  -492.859430288     A.U. after   12 cycles
 SCF Done:  E(RHF) =  -492.859498665     A.U. after   13 cycles
 SCF Done:  E(RHF) =  -492.859743941     A.U. after   12 cycles
 SCF Done:  E(RHF) =  -492.859823407     A.U. after   11 cycles
 SCF Done:  E(RHF) =  -492.860091300     A.U. after   13 cycles
 SCF Done:  E(RHF) =  -492.860175639     A.U. after   11 cycles
 SCF Done:  E(RHF) =  -492.860326248     A.U. after   12 cycles
 SCF Done:  E(RHF) =  -492.860388377     A.U. after   12 cycles
 SCF Done:  E(RHF) =  -492.860415349     A.U. after   12 cycles
 SCF Done:  E(RHF) =  -492.860421477     A.U. after   11 cycles
 SCF Done:  E(RHF) =  -492.860422699     A.U. after    9 cycles
 SCF Done:  E(RHF) =  -492.860426386     A.U. after   10 cycles
 SCF Done:  E(RHF) =  -492.860430253     A.U. after   10 cycles
 SCF Done:  E(RHF) =  -492.860431649     A.U. after   10 cycles
 SCF Done:  E(RHF) =  -492.860431711     A.U. after    7 cycles
 Optimization completed.
    -- Stationary point found.

                         Standard orientation:
 ---------------------------------------------------------------------
 Center     Atomic      Atomic             Coordinates (Angstroms)
 Number     Number       Type             X           Y           Z
 ---------------------------------------------------------------------
      1          1           0       -3.686512   -1.477229    0.183067
      2          6           0       -3.032393   -0.813288    0.729776
      3          1           0       -2.707423   -1.321217    1.632706
      4          1           0       -3.572517    0.081642    1.015003
      5          6           0       -1.821582   -0.508757   -0.122599
      6          8           0       -1.413370   -1.280249   -0.951554
      7          7           0       -1.223878    0.685743    0.109387
      8          1           0       -1.469709    1.183996    0.935728
      9          6           0        0.046875    1.023577   -0.510402
     10          1           0       -0.018213    0.720695   -1.545066
     11          6           0        0.283823    2.526161   -0.428308
     12          1           0        0.364728    2.845196    0.603519
     13          1           0        1.208545    2.789616   -0.929016
     14          1           0       -0.530947    3.057754   -0.906881
     15          6           0        1.181329    0.262333    0.185382
     16          8           0        1.586756    0.608052    1.263686
     17          7           0        1.685523   -0.781050   -0.503847
     18          1           0        1.096910   -1.166025   -1.209670
     19          6           0        2.663650   -1.660104    0.101803
     20          1           0        3.465827   -1.071508    0.521427
     21          1           0        2.234005   -2.266974    0.892451
     22          1           0        3.066496   -2.310755   -0.663023
 ---------------------------------------------------------------------

 The electronic state is 1-A.
 Alpha  occ. eigenvalues --  -20.53314 -20.52076 -15.59340 -15.57754 -11.35745
 Alpha  occ. eigenvalues --  -11.33809 -11.27873 -11.25035 -11.23845 -11.22524
 Alpha  occ. eigenvalues --   -1.40189  -1.38683  -1.24603  -1.22623  -1.05809
 Alpha  occ. eigenvalues --   -0.99739  -0.95772  -0.87293  -0.80517  -0.77822
 Alpha  occ. eigenvalues --   -0.72653  -0.68390  -0.67069  -0.64037  -0.62261
 Alpha  occ. eigenvalues --   -0.61810  -0.59817  -0.58940  -0.57779  -0.55691
 Alpha  occ. eigenvalues --   -0.54567  -0.53814  -0.52255  -0.51776  -0.51047
 Alpha  occ. eigenvalues --   -0.43811  -0.42744  -0.39316  -0.37907
 Alpha virt. eigenvalues --    0.18966   0.20279   0.22215   0.24660   0.26326
 Alpha virt. eigenvalues --    0.27447   0.28539   0.29912   0.30936   0.31948
 Alpha virt. eigenvalues --    0.32675   0.33019   0.34308   0.35358   0.38209

 Mulliken atomic charges:
              1
     1  H    0.215695
     2  C   -0.586497
     3  H    0.204771
     4  H    0.180782
     5  C    0.752916
     6  O   -0.623094
     7  N   -0.786115
     8  H    0.390948
     9  C   -0.054290
    10  H    0.216887
    11  C   -0.498988
    12  H    0.193328
    13  H    0.182929
    14  H    0.177015
    15  C    0.764040
    16  O   -0.625659
    17  N   -0.781827
    18  H    0.412373
    19  C   -0.280690
    20  H    0.200605
    21  H    0.173594
    22  H    0.171278
 Sum of Mulliken atomic charges =   0.00000

 Dipole moment (field-independent basis, Debye):
    X=             -1.7235    Y=              0.5684    Z=             -0.2014  Tot=              1.8260
 Quadrupole moment (field-independent basis, Debye-Ang):
   XX=            -56.3895   YY=            -58.8772   ZZ=            -63.6462
   XY=             -6.2887   XZ=             -9.5062   YZ=             -3.6073

 Normal termination of Gaussian 09 at Fri Feb 10 17:03:57 2017.
