 Gaussian 09, Revision A.02,
 Gaussian 09:  EM64L-G09RevA.02 11-Jun-2009

 -------------------------------------------
 # HF/6-31G* Opt=(ModRedundant) geom=nocrowd
 -------------------------------------------

 ------------------
 Phi Psi fixed scan
 ------------------
 Symbolic Z-matrix:
 Charge =  0 Multiplicity = 1

 SCF Done:  E(RHF) =  -492.824691060     A.U. after   15 cycles
 SCF Done:  E(RHF) =  -492.838180711     A.U. after   14 cycles
 SCF Done:  E(RHF) =  -492.842592098     A.U. after   15 cycles
 SCF Done:  E(RHF) =  -492.843718328     A.U. after   13 cycles
 SCF Done:  E(RHF) =  -492.845451885     A.U. after   16 cycles
 SCF Done:  E(RHF) =  -492.846616051     A.U. after   14 cycles
 SCF Done:  E(RHF) =  -492.847157997     A.U. after   13 cycles
 SCF Done:  E(RHF) =  -492.847432894     A.U. after   13 cycles
 SCF Done:  E(RHF) =  -492.847482335     A.U. after   11 cycles
 SCF Done:  E(RHF) =  -492.847517843     A.U. after   11 cycles
 SCF Done:  E(RHF) =  -492.847623500     A.U. after   12 cycles
 SCF Done:  E(RHF) =  -492.847723269     A.U. after   12 cycles
 SCF Done:  E(RHF) =  -492.847803499     A.U. after   13 cycles
 SCF Done:  E(RHF) =  -492.847954779     A.U. after   14 cycles
 SCF Done:  E(RHF) =  -492.847966366     A.U. after   12 cycles
 SCF Done:  E(RHF) =  -492.848018965     A.U. after   11 cycles
 SCF Done:  E(RHF) =  -492.848025724     A.U. after   10 cycles
 SCF Done:  E(RHF) =  -492.848035025     A.U. after   11 cycles
 SCF Done:  E(RHF) =  -492.848036829     A.U. after   11 cycles
 SCF Done:  E(RHF) =  -492.848036906     A.U. after    9 cycles
 Optimization completed.
    -- Stationary point found.

                         Standard orientation:
 ---------------------------------------------------------------------
 Center     Atomic      Atomic             Coordinates (Angstroms)
 Number     Number       Type             X           Y           Z
 ---------------------------------------------------------------------
      1          1           0        3.842696   -1.238124   -0.398569
      2          6           0        2.959778   -0.861645   -0.893674
      3          1           0        2.407690   -1.697222   -1.313134
      4          1           0        3.247132   -0.199417   -1.703599
      5          6           0        2.082439   -0.163738    0.119125
      6          8           0        2.213077   -0.309923    1.296622
      7          7           0        1.150958    0.699694   -0.421074
      8          1           0        1.027196    0.600256   -1.406741
      9          6           0       -0.080660    0.961670    0.297219
     10          1           0        0.186817    1.010752    1.344049
     11          6           0       -0.650347    2.312246   -0.133816
     12          1           0       -0.963132    2.307749   -1.174051
     13          1           0       -1.497759    2.606643    0.477486
     14          1           0        0.114557    3.068779   -0.016087
     15          6           0       -1.020927   -0.253300    0.165842
     16          8           0       -0.588196   -1.369972    0.249296
     17          7           0       -2.319789   -0.013678   -0.117113
     18          1           0       -2.667298    0.913997   -0.080732
     19          6           0       -3.278917   -1.097928   -0.176410
     20          1           0       -2.925455   -1.865266   -0.849681
     21          1           0       -3.439668   -1.546610    0.797349
     22          1           0       -4.218199   -0.708321   -0.546043
 ---------------------------------------------------------------------

 The electronic state is 1-A.
 Alpha  occ. eigenvalues --  -20.52376 -20.51702 -15.59167 -15.57829 -11.34598
 Alpha  occ. eigenvalues --  -11.33993 -11.27997 -11.26132 -11.23809 -11.22343
 Alpha  occ. eigenvalues --   -1.39725  -1.38277  -1.23793  -1.23212  -1.05530
 Alpha  occ. eigenvalues --   -0.98877  -0.95898  -0.88585  -0.79544  -0.78438
 Alpha  occ. eigenvalues --   -0.72880  -0.66805  -0.65804  -0.64479  -0.62706
 Alpha  occ. eigenvalues --   -0.61475  -0.59260  -0.58468  -0.57194  -0.56245
 Alpha  occ. eigenvalues --   -0.55714  -0.54850  -0.53247  -0.50566  -0.50132
 Alpha  occ. eigenvalues --   -0.43591  -0.41136  -0.39418  -0.38092
 Alpha virt. eigenvalues --    0.18531   0.20598   0.22468   0.23561   0.25790
 Alpha virt. eigenvalues --    0.27602   0.28757   0.29364   0.30997   0.31480
 Alpha virt. eigenvalues --    0.32108   0.33373   0.33831   0.34726   0.38142

 Mulliken atomic charges:
              1
     1  H    0.212551
     2  C   -0.599105
     3  H    0.207475
     4  H    0.174644
     5  C    0.769040
     6  O   -0.585394
     7  N   -0.767195
     8  H    0.366711
     9  C   -0.077646
    10  H    0.251545
    11  C   -0.508779
    12  H    0.166376
    13  H    0.162760
    14  H    0.205889
    15  C    0.759540
    16  O   -0.606325
    17  N   -0.805845
    18  H    0.393279
    19  C   -0.271446
    20  H    0.201622
    21  H    0.183803
    22  H    0.166500
 Sum of Mulliken atomic charges =   0.00000

 Dipole moment (field-independent basis, Debye):
    X=             -3.5254    Y=              3.0427    Z=             -3.5729  Tot=              5.8696
 Quadrupole moment (field-independent basis, Debye-Ang):
   XX=            -52.6350   YY=            -61.8858   ZZ=            -61.9531
   XY=             -2.4334   XZ=             -7.7654   YZ=              2.8438

 Normal termination of Gaussian 09 at Fri Feb 10 17:25:31 2017.
