 Gaussian 09, Revision A.02,
 Gaussian 09:  EM64L-G09RevA.02 11-Jun-2009

 -------------------------------------------
 # HF/6-31G* Opt=(ModRedundant) geom=nocrowd
 -------------------------------------------

 ------------------
 Phi Psi fixed scan
 ------------------
 Symbolic Z-matrix:
 Charge =  0 Multiplicity = 1

 SCF Done:  E(RHF) =  -492.842872115     A.U. after   15 cycles
 SCF Done:  E(RHF) =  -492.853760589     A.U. after   13 cycles
 SCF Done:  E(RHF) =  -492.855433984     A.U. after   13 cycles
 SCF Done:  E(RHF) =  -492.856383071     A.U. after   13 cycles
 SCF Done:  E(RHF) =  -492.856750566     A.U. after   12 cycles
 SCF Done:  E(RHF) =  -492.856854542     A.U. after   12 cycles
 SCF Done:  E(RHF) =  -492.856978146     A.U. after   12 cycles
 SCF Done:  E(RHF) =  -492.857065195     A.U. after   11 cycles
 SCF Done:  E(RHF) =  -492.857404687     A.U. after   15 cycles
 SCF Done:  E(RHF) =  -492.857522747     A.U. after   13 cycles
 SCF Done:  E(RHF) =  -492.857684331     A.U. after   11 cycles
 SCF Done:  E(RHF) =  -492.857797276     A.U. after   12 cycles
 SCF Done:  E(RHF) =  -492.857750109     A.U. after   12 cycles
 SCF Done:  E(RHF) =  -492.857837773     A.U. after   11 cycles
 SCF Done:  E(RHF) =  -492.857850902     A.U. after   11 cycles
 SCF Done:  E(RHF) =  -492.857852496     A.U. after    9 cycles
 SCF Done:  E(RHF) =  -492.857853377     A.U. after   10 cycles
 SCF Done:  E(RHF) =  -492.857853503     A.U. after    8 cycles
 Optimization completed.
    -- Stationary point found.

                         Standard orientation:
 ---------------------------------------------------------------------
 Center     Atomic      Atomic             Coordinates (Angstroms)
 Number     Number       Type             X           Y           Z
 ---------------------------------------------------------------------
      1          1           0        3.693671   -1.393926   -0.198040
      2          6           0        3.174261   -0.536099   -0.597824
      3          1           0        2.981560   -0.692583   -1.654378
      4          1           0        3.801122    0.343707   -0.497163
      5          6           0        1.877458   -0.351420    0.160518
      6          8           0        1.559289   -1.069842    1.074981
      7          7           0        1.109217    0.675885   -0.257088
      8          1           0        1.393846    1.164308   -1.075943
      9          6           0       -0.151822    1.090638    0.342732
     10          1           0       -0.019430    1.041337    1.418845
     11          6           0       -0.438399    2.535089   -0.053646
     12          1           0       -0.563529    2.625943   -1.128550
     13          1           0       -1.350355    2.875885    0.411220
     14          1           0        0.381720    3.172643    0.258151
     15          6           0       -1.366500    0.192841    0.043939
     16          8           0       -2.467226    0.675471    0.005845
     17          7           0       -1.136260   -1.119086   -0.163889
     18          1           0       -0.284626   -1.490946    0.195009
     19          6           0       -2.255410   -2.028964   -0.296969
     20          1           0       -2.914251   -1.687219   -1.081803
     21          1           0       -1.873374   -3.006802   -0.559198
     22          1           0       -2.831082   -2.107481    0.619583
 ---------------------------------------------------------------------

 The electronic state is 1-A.
 Alpha  occ. eigenvalues --  -20.53937 -20.51870 -15.59968 -15.56941 -11.36439
 Alpha  occ. eigenvalues --  -11.33808 -11.28480 -11.24668 -11.24438 -11.22562
 Alpha  occ. eigenvalues --   -1.40767  -1.38631  -1.25332  -1.21935  -1.06161
 Alpha  occ. eigenvalues --   -1.00058  -0.95418  -0.87640  -0.81281  -0.77704
 Alpha  occ. eigenvalues --   -0.72651  -0.69117  -0.67459  -0.63711  -0.62361
 Alpha  occ. eigenvalues --   -0.61983  -0.59550  -0.59142  -0.58382  -0.54934
 Alpha  occ. eigenvalues --   -0.54465  -0.54056  -0.53257  -0.52491  -0.49913
 Alpha  occ. eigenvalues --   -0.44443  -0.43287  -0.39277  -0.37573
 Alpha virt. eigenvalues --    0.17992   0.20358   0.21739   0.25517   0.25990
 Alpha virt. eigenvalues --    0.27637   0.29332   0.30322   0.30832   0.31465
 Alpha virt. eigenvalues --    0.32035   0.33382   0.34378   0.35015   0.38871

 Mulliken atomic charges:
              1
     1  H    0.220755
     2  C   -0.589206
     3  H    0.190259
     4  H    0.195703
     5  C    0.747739
     6  O   -0.629969
     7  N   -0.798352
     8  H    0.389464
     9  C   -0.044649
    10  H    0.228884
    11  C   -0.499579
    12  H    0.166587
    13  H    0.220839
    14  H    0.170122
    15  C    0.767127
    16  O   -0.617641
    17  N   -0.812541
    18  H    0.433393
    19  C   -0.275528
    20  H    0.194511
    21  H    0.167302
    22  H    0.174781
 Sum of Mulliken atomic charges =   0.00000

 Dipole moment (field-independent basis, Debye):
    X=              3.5922    Y=              0.5474    Z=             -2.3156  Tot=              4.3088
 Quadrupole moment (field-independent basis, Debye-Ang):
   XX=            -64.1515   YY=            -57.2305   ZZ=            -61.1461
   XY=              7.6917   XZ=             -5.5713   YZ=              2.1201

 Normal termination of Gaussian 09 at Fri Feb 10 16:48:58 2017.
