 Gaussian 09, Revision A.02,
 Gaussian 09:  EM64L-G09RevA.02 11-Jun-2009

 -------------------------------------------
 # HF/6-31G* Opt=(ModRedundant) geom=nocrowd
 -------------------------------------------

 ------------------
 Phi Psi fixed scan
 ------------------
 Symbolic Z-matrix:
 Charge =  0 Multiplicity = 1

 SCF Done:  E(RHF) =  -492.851273023     A.U. after   15 cycles
 SCF Done:  E(RHF) =  -492.858062329     A.U. after   14 cycles
 SCF Done:  E(RHF) =  -492.858796751     A.U. after   13 cycles
 SCF Done:  E(RHF) =  -492.858893120     A.U. after   16 cycles
 SCF Done:  E(RHF) =  -492.859166278     A.U. after   16 cycles
 SCF Done:  E(RHF) =  -492.859311318     A.U. after   12 cycles
 SCF Done:  E(RHF) =  -492.859360450     A.U. after   13 cycles
 SCF Done:  E(RHF) =  -492.859383075     A.U. after   12 cycles
 SCF Done:  E(RHF) =  -492.859405101     A.U. after   11 cycles
 SCF Done:  E(RHF) =  -492.859422048     A.U. after   11 cycles
 SCF Done:  E(RHF) =  -492.859864991     A.U. after   12 cycles
 SCF Done:  E(RHF) =  -492.859858628     A.U. after   12 cycles
 SCF Done:  E(RHF) =  -492.859882733     A.U. after   11 cycles
 SCF Done:  E(RHF) =  -492.860031751     A.U. after   11 cycles
 SCF Done:  E(RHF) =  -492.860090090     A.U. after   16 cycles
 SCF Done:  E(RHF) =  -492.860111452     A.U. after   16 cycles
 SCF Done:  E(RHF) =  -492.860126288     A.U. after   11 cycles
 SCF Done:  E(RHF) =  -492.860128995     A.U. after   16 cycles
 SCF Done:  E(RHF) =  -492.860129345     A.U. after    8 cycles
 SCF Done:  E(RHF) =  -492.860129363     A.U. after    6 cycles
 Optimization completed.
    -- Stationary point found.

                         Standard orientation:
 ---------------------------------------------------------------------
 Center     Atomic      Atomic             Coordinates (Angstroms)
 Number     Number       Type             X           Y           Z
 ---------------------------------------------------------------------
      1          1           0       -3.867788   -0.984519    0.130865
      2          6           0       -3.079183   -0.582566    0.751429
      3          1           0       -2.837989   -1.321603    1.508668
      4          1           0       -3.425824    0.318034    1.243528
      5          6           0       -1.855854   -0.355853   -0.108353
      6          8           0       -1.572472   -1.110617   -1.006204
      7          7           0       -1.116720    0.730507    0.195539
      8          1           0       -1.356470    1.238741    1.016861
      9          6           0        0.151593    1.081275   -0.435643
     10          1           0        0.026629    0.899141   -1.496774
     11          6           0        0.435973    2.558686   -0.206256
     12          1           0        0.563021    2.771830    0.849006
     13          1           0        1.350794    2.847401   -0.704258
     14          1           0       -0.381774    3.155223   -0.595582
     15          6           0        1.329226    0.207471    0.037557
     16          8           0        2.291592    0.697656    0.568841
     17          7           0        1.212015   -1.110027   -0.187240
     18          1           0        0.412250   -1.445299   -0.677841
     19          6           0        2.266894   -2.026897    0.183101
     20          1           0        2.491672   -1.948664    1.239003
     21          1           0        1.936562   -3.034074   -0.032722
     22          1           0        3.177003   -1.828586   -0.370953
 ---------------------------------------------------------------------

 The electronic state is 1-A.
 Alpha  occ. eigenvalues --  -20.53713 -20.51666 -15.60188 -15.56880 -11.36447
 Alpha  occ. eigenvalues --  -11.33598 -11.28301 -11.24833 -11.24383 -11.22340
 Alpha  occ. eigenvalues --   -1.40605  -1.38356  -1.25295  -1.21978  -1.06054
 Alpha  occ. eigenvalues --   -1.00024  -0.95681  -0.87392  -0.81250  -0.77832
 Alpha  occ. eigenvalues --   -0.72733  -0.69058  -0.67389  -0.63834  -0.62319
 Alpha  occ. eigenvalues --   -0.61392  -0.60068  -0.59334  -0.58176  -0.54935
 Alpha  occ. eigenvalues --   -0.54657  -0.53376  -0.52688  -0.52415  -0.50687
 Alpha  occ. eigenvalues --   -0.44474  -0.43044  -0.38590  -0.37702
 Alpha virt. eigenvalues --    0.18044   0.20309   0.22307   0.25021   0.26246
 Alpha virt. eigenvalues --    0.27472   0.29032   0.30358   0.30715   0.31553
 Alpha virt. eigenvalues --    0.32718   0.33680   0.34425   0.35468   0.39333

 Mulliken atomic charges:
              1
     1  H    0.217379
     2  C   -0.581715
     3  H    0.206741
     4  H    0.176561
     5  C    0.766855
     6  O   -0.639707
     7  N   -0.801001
     8  H    0.390159
     9  C   -0.058811
    10  H    0.221905
    11  C   -0.485478
    12  H    0.177926
    13  H    0.201149
    14  H    0.169832
    15  C    0.767623
    16  O   -0.622169
    17  N   -0.824513
    18  H    0.449486
    19  C   -0.265994
    20  H    0.184582
    21  H    0.168697
    22  H    0.180494
 Sum of Mulliken atomic charges =   0.00000

 Dipole moment (field-independent basis, Debye):
    X=             -3.1248    Y=              0.3487    Z=              1.2392  Tot=              3.3796
 Quadrupole moment (field-independent basis, Debye-Ang):
   XX=            -63.5226   YY=            -57.5713   ZZ=            -61.0450
   XY=             -7.5790   XZ=             -8.8450   YZ=             -3.0049

 Normal termination of Gaussian 09 at Fri Feb 10 16:56:11 2017.
