 Gaussian 09, Revision A.02,
 Gaussian 09:  EM64L-G09RevA.02 11-Jun-2009

 -------------------------------------------
 # HF/6-31G* Opt=(ModRedundant) geom=nocrowd
 -------------------------------------------

 ------------------
 Phi Psi fixed scan
 ------------------
 Symbolic Z-matrix:
 Charge =  0 Multiplicity = 1

 SCF Done:  E(RHF) =  -492.846850218     A.U. after   15 cycles
 SCF Done:  E(RHF) =  -492.853674506     A.U. after   13 cycles
 SCF Done:  E(RHF) =  -492.854558922     A.U. after   13 cycles
 SCF Done:  E(RHF) =  -492.855375862     A.U. after   13 cycles
 SCF Done:  E(RHF) =  -492.856328615     A.U. after   13 cycles
 SCF Done:  E(RHF) =  -492.857312946     A.U. after   16 cycles
 SCF Done:  E(RHF) =  -492.857601885     A.U. after   13 cycles
 SCF Done:  E(RHF) =  -492.857660941     A.U. after   11 cycles
 SCF Done:  E(RHF) =  -492.857704543     A.U. after   11 cycles
 SCF Done:  E(RHF) =  -492.857760007     A.U. after   11 cycles
 SCF Done:  E(RHF) =  -492.857819406     A.U. after   11 cycles
 SCF Done:  E(RHF) =  -492.857877540     A.U. after   11 cycles
 SCF Done:  E(RHF) =  -492.857943187     A.U. after   11 cycles
 SCF Done:  E(RHF) =  -492.858095387     A.U. after   12 cycles
 SCF Done:  E(RHF) =  -492.858129481     A.U. after   12 cycles
 SCF Done:  E(RHF) =  -492.858136179     A.U. after   10 cycles
 SCF Done:  E(RHF) =  -492.858145372     A.U. after   11 cycles
 SCF Done:  E(RHF) =  -492.858150839     A.U. after   10 cycles
 SCF Done:  E(RHF) =  -492.858154770     A.U. after   10 cycles
 SCF Done:  E(RHF) =  -492.858155204     A.U. after    9 cycles
 Optimization completed.
    -- Stationary point found.

                         Standard orientation:
 ---------------------------------------------------------------------
 Center     Atomic      Atomic             Coordinates (Angstroms)
 Number     Number       Type             X           Y           Z
 ---------------------------------------------------------------------
      1          1           0        3.852876   -1.340564    0.054781
      2          6           0        3.169717   -0.763511   -0.551061
      3          1           0        2.804154   -1.388390   -1.360453
      4          1           0        3.686619    0.085832   -0.983345
      5          6           0        1.997929   -0.330456    0.298427
      6          8           0        1.732697   -0.846828    1.347000
      7          7           0        1.266663    0.709197   -0.210408
      8          1           0        1.353410    0.845270   -1.194515
      9          6           0       -0.056729    0.950284    0.309949
     10          1           0       -0.000056    0.865186    1.385574
     11          6           0       -0.516726    2.360128   -0.073112
     12          1           0       -0.577765    2.465653   -1.152125
     13          1           0       -1.495391    2.579420    0.336661
     14          1           0        0.189739    3.089853    0.303368
     15          6           0       -1.039663   -0.096055   -0.229974
     16          8           0       -0.791871   -0.739924   -1.213216
     17          7           0       -2.222369   -0.171379    0.419311
     18          1           0       -2.277785    0.221988    1.331064
     19          6           0       -3.213173   -1.164115    0.056602
     20          1           0       -3.366296   -1.145649   -1.011935
     21          1           0       -2.909128   -2.165163    0.343251
     22          1           0       -4.145165   -0.921800    0.550101
 ---------------------------------------------------------------------

 The electronic state is 1-A.
 Alpha  occ. eigenvalues --  -20.52699 -20.52387 -15.58727 -15.57735 -11.34421
 Alpha  occ. eigenvalues --  -11.34380 -11.27762 -11.25791 -11.23316 -11.22622
 Alpha  occ. eigenvalues --   -1.39840  -1.38745  -1.23651  -1.23369  -1.05575
 Alpha  occ. eigenvalues --   -0.99059  -0.95874  -0.87715  -0.79580  -0.78229
 Alpha  occ. eigenvalues --   -0.72932  -0.67215  -0.66582  -0.63452  -0.62763
 Alpha  occ. eigenvalues --   -0.61811  -0.59691  -0.58192  -0.57374  -0.56360
 Alpha  occ. eigenvalues --   -0.55406  -0.53989  -0.53435  -0.50980  -0.50265
 Alpha  occ. eigenvalues --   -0.42864  -0.41813  -0.39466  -0.38862
 Alpha virt. eigenvalues --    0.19346   0.20464   0.21874   0.23252   0.26505
 Alpha virt. eigenvalues --    0.27160   0.29487   0.30616   0.31064   0.31526
 Alpha virt. eigenvalues --    0.32352   0.32555   0.33951   0.34438   0.37646

 Mulliken atomic charges:
              1
     1  H    0.211573
     2  C   -0.594784
     3  H    0.207649
     4  H    0.182079
     5  C    0.750338
     6  O   -0.603598
     7  N   -0.760356
     8  H    0.382921
     9  C   -0.078346
    10  H    0.224234
    11  C   -0.483262
    12  H    0.174162
    13  H    0.175377
    14  H    0.190904
    15  C    0.773715
    16  O   -0.624012
    17  N   -0.789114
    18  H    0.382599
    19  C   -0.276391
    20  H    0.204069
    21  H    0.181414
    22  H    0.168832
 Sum of Mulliken atomic charges =   0.00000

 Dipole moment (field-independent basis, Debye):
    X=             -1.5843    Y=              2.5881    Z=             -0.2268  Tot=              3.0430
 Quadrupole moment (field-independent basis, Debye-Ang):
   XX=            -50.5124   YY=            -60.9492   ZZ=            -63.7580
   XY=              1.3717   XZ=            -10.5205   YZ=              0.7319

 Normal termination of Gaussian 09 at Fri Feb 10 17:13:11 2017.
