 Gaussian 09, Revision A.02,
 Gaussian 09:  EM64L-G09RevA.02 11-Jun-2009

 -------------------------------------------
 # HF/6-31G* Opt=(ModRedundant) geom=nocrowd
 -------------------------------------------

 ------------------
 Phi Psi fixed scan
 ------------------
 Symbolic Z-matrix:
 Charge =  0 Multiplicity = 1

 SCF Done:  E(RHF) =  -492.833978313     A.U. after   15 cycles
 SCF Done:  E(RHF) =  -492.843765031     A.U. after   14 cycles
 SCF Done:  E(RHF) =  -492.845141686     A.U. after   13 cycles
 SCF Done:  E(RHF) =  -492.845383129     A.U. after   12 cycles
 SCF Done:  E(RHF) =  -492.845556720     A.U. after   13 cycles
 SCF Done:  E(RHF) =  -492.845619091     A.U. after   12 cycles
 SCF Done:  E(RHF) =  -492.845688469     A.U. after   13 cycles
 SCF Done:  E(RHF) =  -492.845756702     A.U. after   11 cycles
 SCF Done:  E(RHF) =  -492.845843871     A.U. after   13 cycles
 SCF Done:  E(RHF) =  -492.845889070     A.U. after   12 cycles
 SCF Done:  E(RHF) =  -492.846101408     A.U. after   14 cycles
 SCF Done:  E(RHF) =  -492.846232702     A.U. after   13 cycles
 SCF Done:  E(RHF) =  -492.846372379     A.U. after   12 cycles
 SCF Done:  E(RHF) =  -492.846378735     A.U. after   11 cycles
 SCF Done:  E(RHF) =  -492.846383386     A.U. after   12 cycles
 SCF Done:  E(RHF) =  -492.846390003     A.U. after   12 cycles
 SCF Done:  E(RHF) =  -492.846395936     A.U. after   12 cycles
 SCF Done:  E(RHF) =  -492.846408023     A.U. after   13 cycles
 SCF Done:  E(RHF) =  -492.846408843     A.U. after    9 cycles
 SCF Done:  E(RHF) =  -492.846408876     A.U. after    8 cycles
 Optimization completed.
    -- Stationary point found.

                         Standard orientation:
 ---------------------------------------------------------------------
 Center     Atomic      Atomic             Coordinates (Angstroms)
 Number     Number       Type             X           Y           Z
 ---------------------------------------------------------------------
      1          1           0        3.916189   -1.154921   -0.409061
      2          6           0        3.097606   -0.685378   -0.934285
      3          1           0        2.714119   -1.382494   -1.673244
      4          1           0        3.456847    0.196029   -1.454636
      5          6           0        2.004968   -0.355944    0.062359
      6          8           0        1.936871   -0.876817    1.136078
      7          7           0        1.099322    0.566065   -0.368258
      8          1           0        1.235823    0.976361   -1.263743
      9          6           0       -0.047384    0.995138    0.416006
     10          1           0        0.272760    1.065611    1.444916
     11          6           0       -0.527394    2.362198   -0.063798
     12          1           0       -0.801904    2.357706   -1.114654
     13          1           0       -1.396141    2.677508    0.501284
     14          1           0        0.257786    3.096621    0.076694
     15          6           0       -1.162224   -0.061201    0.445672
     16          8           0       -1.419904   -0.666792    1.444073
     17          7           0       -1.901907   -0.183061   -0.690091
     18          1           0       -1.507727    0.159581   -1.535945
     19          6           0       -2.896291   -1.229974   -0.807845
     20          1           0       -3.544346   -1.205633    0.055023
     21          1           0       -3.487074   -1.050318   -1.696859
     22          1           0       -2.449664   -2.217241   -0.871194
 ---------------------------------------------------------------------

 The electronic state is 1-A.
 Alpha  occ. eigenvalues --  -20.52412 -20.52119 -15.59277 -15.58244 -11.35007
 Alpha  occ. eigenvalues --  -11.33801 -11.28019 -11.25489 -11.24028 -11.23632
 Alpha  occ. eigenvalues --   -1.39585  -1.38745  -1.24641  -1.22497  -1.06124
 Alpha  occ. eigenvalues --   -0.99701  -0.95473  -0.88710  -0.80545  -0.78408
 Alpha  occ. eigenvalues --   -0.71914  -0.67983  -0.67168  -0.63603  -0.62434
 Alpha  occ. eigenvalues --   -0.61928  -0.59190  -0.58873  -0.58048  -0.56351
 Alpha  occ. eigenvalues --   -0.55481  -0.54740  -0.53126  -0.51599  -0.50718
 Alpha  occ. eigenvalues --   -0.43534  -0.41791  -0.38773  -0.38110
 Alpha virt. eigenvalues --    0.18969   0.19929   0.20292   0.24039   0.25988
 Alpha virt. eigenvalues --    0.27193   0.28426   0.29607   0.30054   0.31145
 Alpha virt. eigenvalues --    0.31740   0.32815   0.33795   0.35350   0.37742

 Mulliken atomic charges:
              1
     1  H    0.219350
     2  C   -0.588128
     3  H    0.195204
     4  H    0.172813
     5  C    0.748094
     6  O   -0.574743
     7  N   -0.823448
     8  H    0.376413
     9  C   -0.049021
    10  H    0.248027
    11  C   -0.500011
    12  H    0.150157
    13  H    0.199222
    14  H    0.185957
    15  C    0.768256
    16  O   -0.584158
    17  N   -0.782661
    18  H    0.369213
    19  C   -0.277643
    20  H    0.207847
    21  H    0.164700
    22  H    0.174559
 Sum of Mulliken atomic charges =   0.00000

 Dipole moment (field-independent basis, Debye):
    X=              0.2024    Y=              3.0978    Z=             -6.5253  Tot=              7.2262
 Quadrupole moment (field-independent basis, Debye-Ang):
   XX=            -57.2790   YY=            -59.2738   ZZ=            -63.4169
   XY=              2.1451   XZ=             -1.3306   YZ=              5.3637

 Normal termination of Gaussian 09 at Fri Feb 10 17:39:57 2017.
