 Gaussian 09, Revision A.02,
 Gaussian 09:  EM64L-G09RevA.02 11-Jun-2009

 -------------------
 #SP MP2/aug-cc-pVDZ
 -------------------

 -------------------------------
 Single Point calculation at MP2
 -------------------------------
 Symbolic Z-matrix:
 Charge =  0 Multiplicity = 1

                         Standard orientation:
 ---------------------------------------------------------------------
 Center     Atomic      Atomic             Coordinates (Angstroms)
 Number     Number       Type             X           Y           Z
 ---------------------------------------------------------------------
      1          1           0       -3.875718   -1.448977    0.129697
      2          6           0       -2.815019   -1.661983   -0.019203
      3          1           0       -2.680722   -2.176984   -0.976503
      4          1           0       -2.493623   -2.334585    0.784597
      5          6           0       -2.039811   -0.350988    0.088597
      6          8           0       -2.377306    0.528114    0.864297
      7          7           0       -0.960911   -0.271894   -0.765903
      8          1           0       -0.737416   -1.121496   -1.266203
      9          6           0        0.111395    0.734899   -0.766103
     10          1           0        0.476396    0.763297   -1.803203
     11          6           0       -0.333996    2.143602   -0.377303
     12          1           0       -0.588896    2.188704    0.679297
     13          1           0        0.488608    2.838897   -0.580503
     14          1           0       -1.203894    2.447307   -0.965503
     15          6           0        1.264693    0.247792    0.145797
     16          8           0        1.282494    0.455492    1.349797
     17          7           0        2.216888   -0.497413   -0.501403
     18          1           0        2.206288   -0.521113   -1.511103
     19          6           0        3.375585   -1.042920    0.185597
     20          1           0        3.196285   -0.937219    1.256297
     21          1           0        3.508478   -2.102721   -0.058503
     22          1           0        4.293788   -0.501226   -0.074303
 ---------------------------------------------------------------------

 SCF Done:  E(RHF) =  -492.911871478     A.U. after   14 cycles
 E2 =    -0.1601854653D+01 EUMP2 =    -0.49451372613140D+03

 The electronic state is 1-A.
 Alpha  occ. eigenvalues --  -20.53290 -20.52655 -15.60339 -15.60145 -11.36269
 Alpha  occ. eigenvalues --  -11.36080 -11.29979 -11.27288 -11.24584 -11.22048
 Alpha  occ. eigenvalues --   -1.38858  -1.37974  -1.24461  -1.23156  -1.05399
 Alpha  occ. eigenvalues --   -0.98795  -0.96243  -0.87703  -0.80205  -0.77241
 Alpha  occ. eigenvalues --   -0.71988  -0.69772  -0.65645  -0.64308  -0.62438
 Alpha  occ. eigenvalues --   -0.61666  -0.59886  -0.58844  -0.56272  -0.55180
 Alpha  occ. eigenvalues --   -0.54617  -0.52955  -0.51539  -0.51361  -0.51012
 Alpha  occ. eigenvalues --   -0.44677  -0.41498  -0.39833  -0.38465
 Alpha virt. eigenvalues --    0.01957   0.03591   0.03813   0.04570   0.05502
 Alpha virt. eigenvalues --    0.05982   0.06254   0.06581   0.07492   0.07752
 Alpha virt. eigenvalues --    0.08717   0.09709   0.10786   0.12128   0.12438

 Mulliken atomic charges:
              1
     1  H   -0.008957
     2  C    0.360550
     3  H   -0.103817
     4  H    0.059155
     5  C    0.664703
     6  O   -0.786323
     7  N   -0.406066
     8  H   -0.069274
     9  C   -0.240929
    10  H   -0.353519
    11  C    0.728260
    12  H    0.101062
    13  H   -0.067759
    14  H    0.024638
    15  C    1.138354
    16  O   -0.800765
    17  N   -0.509676
    18  H   -0.117000
    19  C    0.735480
    20  H   -0.137553
    21  H   -0.126278
    22  H   -0.084285
 Sum of Mulliken atomic charges =   0.00000

 Dipole moment (field-independent basis, Debye):
    X=              2.4354    Y=             -3.4193    Z=             -5.7112  Tot=              7.0881
 Quadrupole moment (field-independent basis, Debye-Ang):
   XX=            -58.7861   YY=            -57.5525   ZZ=            -64.0902
   XY=              3.3827   XZ=             -0.8039   YZ=             -1.9604

 Normal termination of Gaussian 09 at Tue Feb 14 05:32:39 2017.
