 Gaussian 09, Revision A.02,
 Gaussian 09:  EM64L-G09RevA.02 11-Jun-2009

 -------------------
 #SP MP2/aug-cc-pVDZ
 -------------------

 -------------------------------
 Single Point calculation at MP2
 -------------------------------
 Symbolic Z-matrix:
 Charge =  0 Multiplicity = 1

                         Standard orientation:
 ---------------------------------------------------------------------
 Center     Atomic      Atomic             Coordinates (Angstroms)
 Number     Number       Type             X           Y           Z
 ---------------------------------------------------------------------
      1          1           0       -3.568211   -1.658688   -0.134304
      2          6           0       -3.242907   -0.691189   -0.521604
      3          1           0       -3.958704    0.066814   -0.181704
      4          1           0       -3.261607   -0.711289   -1.616304
      5          6           0       -1.868206   -0.371295    0.045396
      6          8           0       -1.514707   -0.764797    1.156596
      7          7           0       -1.041802    0.346501   -0.773104
      8          1           0       -1.426201    0.614303   -1.668704
      9          6           0        0.117501    1.147496   -0.335404
     10          1           0        0.277105    1.880995   -1.130704
     11          6           0       -0.104795    1.915397    0.976996
     12          1           0       -0.275698    1.233797    1.811596
     13          1           0        0.783907    2.520093    1.179196
     14          1           0       -0.969192    2.582301    0.886096
     15          6           0        1.449498    0.366690   -0.293304
     16          8           0        2.504600    0.955585   -0.503504
     17          7           0        1.349392   -0.964010   -0.028004
     18          1           0        0.472990   -1.283506    0.372696
     19          6           0        2.535088   -1.781215    0.167496
     20          1           0        3.344590   -1.353919   -0.426104
     21          1           0        2.853088   -1.804817    1.218596
     22          1           0        2.338584   -2.805114   -0.164804
 ---------------------------------------------------------------------

 SCF Done:  E(RHF) =  -492.922246554     A.U. after   14 cycles
 E2 =    -0.1603209850D+01 EUMP2 =    -0.49452545640361D+03

 The electronic state is 1-A.
 Alpha  occ. eigenvalues --  -20.54715 -20.52473 -15.61105 -15.58218 -11.37945
 Alpha  occ. eigenvalues --  -11.35226 -11.29846 -11.26062 -11.25897 -11.23310
 Alpha  occ. eigenvalues --   -1.39999  -1.37688  -1.25190  -1.21994  -1.05987
 Alpha  occ. eigenvalues --   -1.00182  -0.95057  -0.88621  -0.80349  -0.77060
 Alpha  occ. eigenvalues --   -0.72181  -0.70482  -0.65669  -0.63178  -0.62583
 Alpha  occ. eigenvalues --   -0.61466  -0.60166  -0.59313  -0.57680  -0.56372
 Alpha  occ. eigenvalues --   -0.54615  -0.53998  -0.52544  -0.51871  -0.49776
 Alpha  occ. eigenvalues --   -0.44127  -0.43809  -0.39982  -0.38011
 Alpha virt. eigenvalues --    0.02387   0.03990   0.04240   0.04495   0.05852
 Alpha virt. eigenvalues --    0.06038   0.06479   0.06729   0.07662   0.08128
 Alpha virt. eigenvalues --    0.09075   0.09445   0.10997   0.11619   0.12315

 Mulliken atomic charges:
              1
     1  H   -0.001007
     2  C    0.425369
     3  H    0.059565
     4  H   -0.062189
     5  C    0.625646
     6  O   -0.843843
     7  N   -0.101456
     8  H   -0.137091
     9  C   -0.469034
    10  H   -0.121830
    11  C    0.748677
    12  H    0.045887
    13  H   -0.071366
    14  H   -0.056245
    15  C    1.107013
    16  O   -0.898625
    17  N   -0.581063
    18  H   -0.065299
    19  C    0.758980
    20  H   -0.132926
    21  H   -0.072656
    22  H   -0.156510
 Sum of Mulliken atomic charges =   0.00000

 Dipole moment (field-independent basis, Debye):
    X=             -4.1854    Y=             -0.4592    Z=             -2.1086  Tot=              4.7090
 Quadrupole moment (field-independent basis, Debye-Ang):
   XX=            -63.5038   YY=            -59.0988   ZZ=            -62.1874
   XY=             -8.3584   XZ=              9.2541   YZ=              1.5012

 Normal termination of Gaussian 09 at Tue Feb 14 05:20:49 2017.
