 Gaussian 09, Revision A.02,
 Gaussian 09:  EM64L-G09RevA.02 11-Jun-2009

 -------------------
 #SP MP2/aug-cc-pVDZ
 -------------------

 -------------------------------
 Single Point calculation at MP2
 -------------------------------
 Symbolic Z-matrix:
 Charge =  0 Multiplicity = 1

                         Standard orientation:
 ---------------------------------------------------------------------
 Center     Atomic      Atomic             Coordinates (Angstroms)
 Number     Number       Type             X           Y           Z
 ---------------------------------------------------------------------
      1          1           0       -4.020295   -0.741376    0.765390
      2          6           0       -3.143897   -1.122580    0.237790
      3          1           0       -3.422199   -1.400279   -0.783810
      4          1           0       -2.799802   -2.024582    0.758090
      5          6           0       -2.046191   -0.066386    0.289190
      6          8           0       -1.952987    0.722513    1.220690
      7          7           0       -1.200791   -0.086291   -0.796110
      8          1           0       -1.198496   -0.949591   -1.325110
      9          6           0        0.082312    0.614802   -0.872810
     10          1           0        0.297813    0.691801   -1.948510
     11          6           0        0.059520    2.044402   -0.321910
     12          1           0       -0.020280    2.070903    0.764690
     13          1           0        0.958823    2.578997   -0.651710
     14          1           0       -0.804477    2.579707   -0.724910
     15          6           0        1.190807   -0.334204   -0.347410
     16          8           0        1.100601   -1.541003   -0.552710
     17          7           0        2.268610    0.246490    0.246490
     18          1           0        2.213716    1.223191    0.493590
     19          6           0        3.382006   -0.532616    0.763590
     20          1           0        3.321601   -1.528015    0.322390
     21          1           0        4.333609   -0.066521    0.487090
     22          1           0        3.337006   -0.628216    1.855690
 ---------------------------------------------------------------------

 SCF Done:  E(RHF) =  -492.919003205     A.U. after   14 cycles
 E2 =    -0.1600687039D+01 EUMP2 =    -0.49451969024333D+03

 The electronic state is 1-A.
 Alpha  occ. eigenvalues --  -20.53352 -20.52925 -15.60134 -15.59123 -11.36330
 Alpha  occ. eigenvalues --  -11.36100 -11.29854 -11.27125 -11.24143 -11.23735
 Alpha  occ. eigenvalues --   -1.39052  -1.38007  -1.23840  -1.23404  -1.05592
 Alpha  occ. eigenvalues --   -0.98877  -0.95628  -0.89148  -0.80217  -0.76299
 Alpha  occ. eigenvalues --   -0.72266  -0.69658  -0.65627  -0.64467  -0.61948
 Alpha  occ. eigenvalues --   -0.61698  -0.59612  -0.58699  -0.56316  -0.55693
 Alpha  occ. eigenvalues --   -0.55227  -0.54496  -0.52913  -0.51182  -0.50510
 Alpha  occ. eigenvalues --   -0.43456  -0.41987  -0.39995  -0.39031
 Alpha virt. eigenvalues --    0.02947   0.03877   0.04290   0.04833   0.05682
 Alpha virt. eigenvalues --    0.05960   0.06241   0.06883   0.07571   0.07849
 Alpha virt. eigenvalues --    0.09427   0.09492   0.10764   0.11456   0.13291

 Mulliken atomic charges:
              1
     1  H   -0.025327
     2  C    0.343070
     3  H   -0.055259
     4  H    0.062919
     5  C    0.640900
     6  O   -0.814095
     7  N   -0.498769
     8  H   -0.023028
     9  C   -0.146988
    10  H   -0.086774
    11  C    0.816213
    12  H    0.090974
    13  H   -0.026233
    14  H   -0.129785
    15  C    0.968051
    16  O   -0.865543
    17  N   -0.504649
    18  H   -0.118953
    19  C    0.732283
    20  H   -0.140801
    21  H   -0.144672
    22  H   -0.073534
 Sum of Mulliken atomic charges =   0.00000

 Dipole moment (field-independent basis, Debye):
    X=              1.5780    Y=              1.1369    Z=             -1.5360  Tot=              2.4783
 Quadrupole moment (field-independent basis, Debye-Ang):
   XX=            -53.1837   YY=            -63.4264   ZZ=            -63.1243
   XY=              9.9513   XZ=              7.5859   YZ=             -3.4544

 Normal termination of Gaussian 09 at Tue Feb 14 05:44:29 2017.
