 Gaussian 09, Revision A.02,
 Gaussian 09:  EM64L-G09RevA.02 11-Jun-2009

 -------------------
 #SP MP2/aug-cc-pVDZ
 -------------------

 -------------------------------
 Single Point calculation at MP2
 -------------------------------
 Symbolic Z-matrix:
 Charge =  0 Multiplicity = 1

                         Standard orientation:
 ---------------------------------------------------------------------
 Center     Atomic      Atomic             Coordinates (Angstroms)
 Number     Number       Type             X           Y           Z
 ---------------------------------------------------------------------
      1          1           0       -3.407114   -1.739399   -0.560497
      2          6           0       -3.199012   -0.671400   -0.657197
      3          1           0       -3.973511   -0.130598   -0.101097
      4          1           0       -3.264911   -0.382400   -1.710897
      5          6           0       -1.845011   -0.376803   -0.031397
      6          8           0       -1.484912   -0.928803    1.010403
      7          7           0       -1.057309    0.508196   -0.706197
      8          1           0       -1.438208    0.905597   -1.553097
      9          6           0        0.112192    1.213893   -0.143897
     10          1           0        0.253094    2.086393   -0.786497
     11          6           0       -0.073607    1.706194    1.297503
     12          1           0       -0.212808    0.882594    1.997603
     13          1           0        0.813394    2.278092    1.589303
     14          1           0       -0.944805    2.367596    1.361303
     15          6           0        1.415991    0.406991   -0.346597
     16          8           0        2.362992    0.885589   -0.961897
     17          7           0        1.408188   -0.821109    0.236503
     18          1           0        0.549987   -1.118208    0.695803
     19          6           0        2.532386   -1.733712    0.148703
     20          1           0        3.345487   -1.211013   -0.357397
     21          1           0        2.866485   -2.040112    1.146903
     22          1           0        2.274484   -2.633411   -0.424297
 ---------------------------------------------------------------------

 SCF Done:  E(RHF) =  -492.923065753     A.U. after   14 cycles
 E2 =    -0.1603744194D+01 EUMP2 =    -0.49452680994675D+03

 The electronic state is 1-A.
 Alpha  occ. eigenvalues --  -20.54627 -20.52402 -15.61331 -15.57855 -11.38018
 Alpha  occ. eigenvalues --  -11.35105 -11.29744 -11.26016 -11.25745 -11.23583
 Alpha  occ. eigenvalues --   -1.39950  -1.37499  -1.25198  -1.21880  -1.06076
 Alpha  occ. eigenvalues --   -1.00230  -0.94889  -0.88928  -0.80507  -0.76936
 Alpha  occ. eigenvalues --   -0.72100  -0.70555  -0.65605  -0.63449  -0.62656
 Alpha  occ. eigenvalues --   -0.61254  -0.60087  -0.58859  -0.57646  -0.56829
 Alpha  occ. eigenvalues --   -0.54514  -0.53928  -0.52576  -0.51688  -0.50565
 Alpha  occ. eigenvalues --   -0.44261  -0.43672  -0.39412  -0.37895
 Alpha virt. eigenvalues --    0.02495   0.04041   0.04341   0.04423   0.05853
 Alpha virt. eigenvalues --    0.05876   0.06605   0.06763   0.07571   0.08176
 Alpha virt. eigenvalues --    0.08934   0.09928   0.10846   0.11593   0.12030

 Mulliken atomic charges:
              1
     1  H    0.016610
     2  C    0.459850
     3  H    0.058747
     4  H   -0.092213
     5  C    0.629200
     6  O   -0.874871
     7  N   -0.135416
     8  H   -0.127520
     9  C   -0.285645
    10  H   -0.216942
    11  C    0.852497
    12  H   -0.002361
    13  H   -0.069118
    14  H   -0.077546
    15  C    0.914116
    16  O   -0.829120
    17  N   -0.531574
    18  H   -0.053399
    19  C    0.728192
    20  H   -0.166119
    21  H   -0.102711
    22  H   -0.094657
 Sum of Mulliken atomic charges =   0.00000

 Dipole moment (field-independent basis, Debye):
    X=             -4.0278    Y=              0.1318    Z=             -0.9063  Tot=              4.1307
 Quadrupole moment (field-independent basis, Debye-Ang):
   XX=            -62.2767   YY=            -59.2550   ZZ=            -63.1138
   XY=             -8.3315   XZ=             11.2565   YZ=              2.9715

 Normal termination of Gaussian 09 at Tue Feb 14 05:32:50 2017.
