 Gaussian 09, Revision A.02,
 Gaussian 09:  EM64L-G09RevA.02 11-Jun-2009

 -------------------
 #SP MP2/aug-cc-pVDZ
 -------------------

 -------------------------------
 Single Point calculation at MP2
 -------------------------------
 Symbolic Z-matrix:
 Charge =  0 Multiplicity = 1

                         Standard orientation:
 ---------------------------------------------------------------------
 Center     Atomic      Atomic             Coordinates (Angstroms)
 Number     Number       Type             X           Y           Z
 ---------------------------------------------------------------------
      1          1           0       -3.936505   -1.373493    0.087400
      2          6           0       -2.887405   -1.588592   -0.124400
      3          1           0       -2.802104   -2.029991   -1.123400
      4          1           0       -2.539104   -2.325291    0.609300
      5          6           0       -2.085906   -0.299991    0.042200
      6          8           0       -2.417207    0.560909    0.840500
      7          7           0       -0.992706   -0.216990   -0.795300
      8          1           0       -0.786205   -1.056389   -1.320400
      9          6           0        0.126693    0.729412   -0.714900
     10          1           0        0.501293    0.821912   -1.744800
     11          6           0       -0.250909    2.127011   -0.219700
     12          1           0       -0.526809    2.101811    0.832600
     13          1           0        0.611791    2.790212   -0.354500
     14          1           0       -1.091609    2.524510   -0.794100
     15          6           0        1.242793    0.124613    0.170000
     16          8           0        1.127494    0.026413    1.383000
     17          7           0        2.330294   -0.339486   -0.521900
     18          1           0        2.393194   -0.144786   -1.510800
     19          6           0        3.487995   -0.913585    0.142700
     20          1           0        3.221095   -1.055285    1.190800
     21          1           0        3.751096   -1.880884   -0.299500
     22          1           0        4.358894   -0.248784    0.084400
 ---------------------------------------------------------------------

 SCF Done:  E(RHF) =  -492.912360487     A.U. after   14 cycles
 E2 =    -0.1601721230D+01 EUMP2 =    -0.49451408171697D+03

 The electronic state is 1-A.
 Alpha  occ. eigenvalues --  -20.53153 -20.52519 -15.60441 -15.59904 -11.36092
 Alpha  occ. eigenvalues --  -11.36066 -11.29952 -11.27309 -11.24377 -11.22313
 Alpha  occ. eigenvalues --   -1.38804  -1.37808  -1.24264  -1.23263  -1.05403
 Alpha  occ. eigenvalues --   -0.98712  -0.96201  -0.87789  -0.80154  -0.77182
 Alpha  occ. eigenvalues --   -0.71910  -0.69716  -0.65724  -0.63942  -0.62370
 Alpha  occ. eigenvalues --   -0.61747  -0.59705  -0.58686  -0.56190  -0.55249
 Alpha  occ. eigenvalues --   -0.54995  -0.53073  -0.51615  -0.51191  -0.50880
 Alpha  occ. eigenvalues --   -0.44460  -0.41355  -0.39783  -0.38452
 Alpha virt. eigenvalues --    0.02040   0.03634   0.03867   0.04558   0.05611
 Alpha virt. eigenvalues --    0.05974   0.06139   0.06585   0.07667   0.07808
 Alpha virt. eigenvalues --    0.08610   0.09483   0.10909   0.12125   0.12645

 Mulliken atomic charges:
              1
     1  H   -0.019386
     2  C    0.342858
     3  H   -0.080877
     4  H    0.061864
     5  C    0.710910
     6  O   -0.786312
     7  N   -0.360066
     8  H   -0.080680
     9  C   -0.382237
    10  H   -0.357161
    11  C    0.797592
    12  H    0.095183
    13  H   -0.080565
    14  H    0.002076
    15  C    1.172596
    16  O   -0.815999
    17  N   -0.503333
    18  H   -0.111592
    19  C    0.747512
    20  H   -0.142792
    21  H   -0.122278
    22  H   -0.087314
 Sum of Mulliken atomic charges =   0.00000

 Dipole moment (field-independent basis, Debye):
    X=              2.8785    Y=             -2.4291    Z=             -5.7588  Tot=              6.8811
 Quadrupole moment (field-independent basis, Debye-Ang):
   XX=            -57.2715   YY=            -57.6223   ZZ=            -64.4182
   XY=              5.1402   XZ=             -0.3775   YZ=             -0.8108

 Normal termination of Gaussian 09 at Tue Feb 14 05:10:15 2017.
