 Gaussian 09, Revision A.02,
 Gaussian 09:  EM64L-G09RevA.02 11-Jun-2009

 -------------------
 #SP MP2/aug-cc-pVDZ
 -------------------

 -------------------------------
 Single Point calculation at MP2
 -------------------------------
 Symbolic Z-matrix:
 Charge =  0 Multiplicity = 1

                         Standard orientation:
 ---------------------------------------------------------------------
 Center     Atomic      Atomic             Coordinates (Angstroms)
 Number     Number       Type             X           Y           Z
 ---------------------------------------------------------------------
      1          1           0       -3.510315   -1.711075    0.644488
      2          6           0       -3.139210   -1.120378   -0.194912
      3          1           0       -3.911103   -0.387471   -0.460012
      4          1           0       -2.978415   -1.774179   -1.058812
      5          6           0       -1.875703   -0.389789    0.242688
      6          8           0       -1.670901   -0.074291    1.403488
      7          7           0       -0.971101   -0.139897   -0.774812
      8          1           0       -1.334903   -0.293794   -1.707112
      9          6           0        0.079208    0.897494   -0.690812
     10          1           0        0.330810    1.115892   -1.737312
     11          6           0       -0.349681    2.206798   -0.025112
     12          1           0       -0.623182    2.044600    1.017288
     13          1           0        0.485925    2.908391   -0.063212
     14          1           0       -1.205077    2.637505   -0.557212
     15          6           0        1.400003    0.354883   -0.091812
     16          8           0        2.209310    1.106676    0.435888
     17          7           0        1.637192   -0.966419   -0.332612
     18          1           0        0.836487   -1.522512   -0.600412
     19          6           0        2.813586   -1.637729    0.191088
     20          1           0        3.575392   -0.878636    0.374288
     21          1           0        2.605381   -2.157728    1.135488
     22          1           0        3.189880   -2.363533   -0.537312
 ---------------------------------------------------------------------

 SCF Done:  E(RHF) =  -492.918682234     A.U. after   14 cycles
 E2 =    -0.1602307399D+01 EUMP2 =    -0.49452098963262D+03

 The electronic state is 1-A.
 Alpha  occ. eigenvalues --  -20.54478 -20.52593 -15.60971 -15.58800 -11.37443
 Alpha  occ. eigenvalues --  -11.35460 -11.29863 -11.26310 -11.25846 -11.22023
 Alpha  occ. eigenvalues --   -1.39826  -1.37936  -1.25112  -1.22204  -1.05500
 Alpha  occ. eigenvalues --   -0.99713  -0.95626  -0.87627  -0.80353  -0.76885
 Alpha  occ. eigenvalues --   -0.71687  -0.70314  -0.65862  -0.63778  -0.62415
 Alpha  occ. eigenvalues --   -0.61471  -0.60355  -0.59208  -0.57368  -0.55500
 Alpha  occ. eigenvalues --   -0.54317  -0.53591  -0.52006  -0.51421  -0.50315
 Alpha  occ. eigenvalues --   -0.44305  -0.42969  -0.39746  -0.38817
 Alpha virt. eigenvalues --    0.02080   0.03649   0.03845   0.04676   0.05670
 Alpha virt. eigenvalues --    0.06114   0.06324   0.06431   0.07590   0.07985
 Alpha virt. eigenvalues --    0.08572   0.09258   0.11434   0.12229   0.12249

 Mulliken atomic charges:
              1
     1  H   -0.006918
     2  C    0.349274
     3  H    0.053271
     4  H   -0.091324
     5  C    0.712428
     6  O   -0.819344
     7  N   -0.235652
     8  H   -0.086669
     9  C   -0.417766
    10  H   -0.076756
    11  C    0.719792
    12  H    0.022312
    13  H   -0.059448
    14  H   -0.022544
    15  C    1.013779
    16  O   -0.820105
    17  N   -0.517655
    18  H   -0.068596
    19  C    0.707034
    20  H   -0.136787
    21  H   -0.076154
    22  H   -0.142172
 Sum of Mulliken atomic charges =   0.00000

 Dipole moment (field-independent basis, Debye):
    X=             -2.9506    Y=             -3.0938    Z=             -4.9174  Tot=              6.5160
 Quadrupole moment (field-independent basis, Debye-Ang):
   XX=            -61.0051   YY=            -58.6356   ZZ=            -63.3938
   XY=             -4.6599   XZ=              4.5473   YZ=             -1.5710

 Normal termination of Gaussian 09 at Tue Feb 14 05:34:23 2017.
