 Gaussian 09, Revision A.02,
 Gaussian 09:  EM64L-G09RevA.02 11-Jun-2009

 -------------------
 #SP MP2/aug-cc-pVDZ
 -------------------

 -------------------------------
 Single Point calculation at MP2
 -------------------------------
 Symbolic Z-matrix:
 Charge =  0 Multiplicity = 1

                         Standard orientation:
 ---------------------------------------------------------------------
 Center     Atomic      Atomic             Coordinates (Angstroms)
 Number     Number       Type             X           Y           Z
 ---------------------------------------------------------------------
      1          1           0       -3.516294   -1.728604    0.299694
      2          6           0       -3.180296   -0.938203   -0.374306
      3          1           0       -3.950898   -0.158105   -0.388006
      4          1           0       -3.084395   -1.340603   -1.388606
      5          6           0       -1.882198   -0.351000    0.166794
      6          8           0       -1.636298   -0.307199    1.363694
      7          7           0       -1.009599    0.106302   -0.797106
      8          1           0       -1.348199    0.078102   -1.749206
      9          6           0        0.115499    1.027205   -0.556206
     10          1           0        0.312297    1.490606   -1.530506
     11          6           0       -0.184104    2.157005    0.438694
     12          1           0       -0.408403    1.758504    1.428594
     13          1           0        0.695294    2.801607    0.499094
     14          1           0       -1.039406    2.747702    0.093594
     15          6           0        1.452400    0.333309   -0.206206
     16          8           0        2.457399    1.015412   -0.035806
     17          7           0        1.435504   -1.023891   -0.161806
     18          1           0        0.535305   -1.476793   -0.218806
     19          6           0        2.600806   -1.801788    0.216094
     20          1           0        3.459404   -1.128686    0.214894
     21          1           0        2.488507   -2.232288    1.218994
     22          1           0        2.774008   -2.613188   -0.499606
 ---------------------------------------------------------------------

 SCF Done:  E(RHF) =  -492.920254960     A.U. after   14 cycles
 E2 =    -0.1602768421D+01 EUMP2 =    -0.49452302338127D+03

 The electronic state is 1-A.
 Alpha  occ. eigenvalues --  -20.54458 -20.52273 -15.61074 -15.58972 -11.37627
 Alpha  occ. eigenvalues --  -11.35483 -11.29869 -11.26316 -11.25945 -11.22364
 Alpha  occ. eigenvalues --   -1.39826  -1.37761  -1.25221  -1.22361  -1.05662
 Alpha  occ. eigenvalues --   -0.99831  -0.95623  -0.88070  -0.80329  -0.77509
 Alpha  occ. eigenvalues --   -0.72200  -0.70315  -0.65983  -0.63062  -0.62490
 Alpha  occ. eigenvalues --   -0.61833  -0.60245  -0.59339  -0.57443  -0.55769
 Alpha  occ. eigenvalues --   -0.54548  -0.54045  -0.52114  -0.51695  -0.49794
 Alpha  occ. eigenvalues --   -0.44224  -0.43150  -0.39689  -0.38535
 Alpha virt. eigenvalues --    0.02196   0.03749   0.04024   0.04643   0.05734
 Alpha virt. eigenvalues --    0.06170   0.06325   0.06510   0.07541   0.08223
 Alpha virt. eigenvalues --    0.08647   0.09134   0.11368   0.12090   0.12223

 Mulliken atomic charges:
              1
     1  H   -0.000730
     2  C    0.374667
     3  H    0.049730
     4  H   -0.098933
     5  C    0.639352
     6  O   -0.817055
     7  N   -0.041487
     8  H   -0.129073
     9  C   -0.660779
    10  H   -0.026105
    11  C    0.778630
    12  H    0.018546
    13  H   -0.057382
    14  H   -0.044918
    15  C    1.110628
    16  O   -0.866754
    17  N   -0.518929
    18  H   -0.073853
    19  C    0.720416
    20  H   -0.146313
    21  H   -0.081977
    22  H   -0.127681
 Sum of Mulliken atomic charges =   0.00000

 Dipole moment (field-independent basis, Debye):
    X=             -3.6012    Y=             -2.2250    Z=             -3.9246  Tot=              5.7725
 Quadrupole moment (field-independent basis, Debye-Ang):
   XX=            -63.8907   YY=            -58.1316   ZZ=            -62.7046
   XY=             -6.3864   XZ=              7.1023   YZ=             -0.0337

 Normal termination of Gaussian 09 at Tue Feb 14 05:07:46 2017.
