 Gaussian 09, Revision A.02,
 Gaussian 09:  EM64L-G09RevA.02 11-Jun-2009

 ----------------------------------------------------------------------
 # b3lyp/6-31G* Opt=(ModRedundant, maxcycles=1000, calcfc) geom=nocrowd
 ----------------------------------------------------------------------

 ------------------
 Phi Psi fixed scan
 ------------------
 Symbolic Z-matrix:
 Charge =  0 Multiplicity = 1

 SCF Done:  E(RB3LYP) =  -495.811437360     A.U. after   14 cycles

  Exact polarizability:   0.000   0.000   0.000   0.000   0.000   0.000
 Approx polarizability: 112.028  -3.485 134.037  -0.495 -11.859  90.850

 SCF Done:  E(RB3LYP) =  -495.822696190     A.U. after   13 cycles
 SCF Done:  E(RB3LYP) =  -495.834659430     A.U. after   14 cycles
 SCF Done:  E(RB3LYP) =  -495.838747667     A.U. after   16 cycles
 SCF Done:  E(RB3LYP) =  -495.833459383     A.U. after   13 cycles
 SCF Done:  E(RB3LYP) =  -495.839559964     A.U. after   13 cycles
 SCF Done:  E(RB3LYP) =  -495.840175888     A.U. after   12 cycles
 SCF Done:  E(RB3LYP) =  -495.840963179     A.U. after   12 cycles
 SCF Done:  E(RB3LYP) =  -495.841311172     A.U. after   12 cycles
 SCF Done:  E(RB3LYP) =  -495.841305570     A.U. after   12 cycles
 SCF Done:  E(RB3LYP) =  -495.841619556     A.U. after   11 cycles
 SCF Done:  E(RB3LYP) =  -495.841827165     A.U. after   12 cycles
 SCF Done:  E(RB3LYP) =  -495.841857208     A.U. after   11 cycles
 SCF Done:  E(RB3LYP) =  -495.841874831     A.U. after   11 cycles
 SCF Done:  E(RB3LYP) =  -495.841882206     A.U. after   10 cycles
 SCF Done:  E(RB3LYP) =  -495.841884482     A.U. after   10 cycles
 SCF Done:  E(RB3LYP) =  -495.841886653     A.U. after   10 cycles
 SCF Done:  E(RB3LYP) =  -495.841887486     A.U. after    9 cycles
 SCF Done:  E(RB3LYP) =  -495.841888021     A.U. after    9 cycles
 SCF Done:  E(RB3LYP) =  -495.841888043     A.U. after    6 cycles
 Optimization completed.
    -- Stationary point found.

                         Standard orientation:
 ---------------------------------------------------------------------
 Center     Atomic      Atomic             Coordinates (Angstroms)
 Number     Number       Type             X           Y           Z
 ---------------------------------------------------------------------
      1          1           0       -4.114094   -0.956181    0.164270
      2          6           0       -3.096064   -1.262660    0.421146
      3          1           0       -2.827988   -2.144634   -0.168421
      4          1           0       -3.094915   -1.532502    1.482441
      5          6           0       -2.166819   -0.068253    0.220491
      6          8           0       -2.418330    1.017610    0.729454
      7          7           0       -1.084068   -0.334546   -0.573787
      8          1           0       -0.911769   -1.303405   -0.813572
      9          6           0        0.090385    0.498118   -0.855432
     10          1           0        0.205734    0.521194   -1.949727
     11          6           0        0.002943    1.948169   -0.374289
     12          1           0       -0.053354    2.028905    0.713280
     13          1           0        0.879115    2.495639   -0.743814
     14          1           0       -0.889774    2.431532   -0.771882
     15          6           0        1.312182   -0.322598   -0.367314
     16          8           0        1.379042   -1.515769   -0.656288
     17          7           0        2.259348    0.327790    0.355468
     18          1           0        2.105541    1.294869    0.597561
     19          6           0        3.448165   -0.335667    0.865596
     20          1           0        3.429885   -1.364157    0.503688
     21          1           0        4.357165    0.159696    0.506057
     22          1           0        3.457059   -0.341047    1.961831
 ---------------------------------------------------------------------

 The electronic state is 1-A.
 Alpha  occ. eigenvalues --  -19.11759 -19.09872 -14.37342 -14.35427 -10.29212
 Alpha  occ. eigenvalues --  -10.28242 -10.24306 -10.22503 -10.18819 -10.18463
 Alpha  occ. eigenvalues --   -1.03934  -1.01843  -0.92979  -0.91643  -0.78278
 Alpha  occ. eigenvalues --   -0.72552  -0.70989  -0.65783  -0.59686  -0.55613
 Alpha  occ. eigenvalues --   -0.53580  -0.50640  -0.46815  -0.45833  -0.45092
 Alpha  occ. eigenvalues --   -0.44025  -0.42615  -0.41274  -0.40120  -0.39348
 Alpha  occ. eigenvalues --   -0.39243  -0.38607  -0.37371  -0.36173  -0.34745
 Alpha  occ. eigenvalues --   -0.26624  -0.26202  -0.24168  -0.23561
 Alpha virt. eigenvalues --    0.01834   0.03954   0.07163   0.09566   0.11100
 Alpha virt. eigenvalues --    0.12788   0.14502   0.14796   0.15331   0.15840
 Alpha virt. eigenvalues --    0.16273   0.17907   0.18109   0.18655   0.19367

 Mulliken atomic charges:
              1
     1  H    0.183046
     2  C   -0.533610
     3  H    0.148075
     4  H    0.181351
     5  C    0.591058
     6  O   -0.517712
     7  N   -0.598957
     8  H    0.340664
     9  C   -0.020043
    10  H    0.169269
    11  C   -0.473165
    12  H    0.176641
    13  H    0.133354
    14  H    0.190557
    15  C    0.603636
    16  O   -0.534321
    17  N   -0.594881
    18  H    0.338220
    19  C   -0.314522
    20  H    0.207232
    21  H    0.160840
    22  H    0.163268
 Sum of Mulliken atomic charges =   0.00000

 Dipole moment (field-independent basis, Debye):
    X=              2.5022    Y=              0.5424    Z=             -0.0193  Tot=              2.5604
 Quadrupole moment (field-independent basis, Debye-Ang):
   XX=            -56.7353   YY=            -62.0642   ZZ=            -59.5453
   XY=             11.4250   XZ=              6.3733   YZ=             -3.3163

 Normal termination of Gaussian 09 at Fri Feb 10 19:18:44 2017.
