 Gaussian 09, Revision A.02,
 Gaussian 09:  EM64L-G09RevA.02 11-Jun-2009

 ----------------------------------------------------------------------
 # b3lyp/6-31G* Opt=(ModRedundant, maxcycles=1000, calcfc) geom=nocrowd
 ----------------------------------------------------------------------

 ------------------
 Phi Psi fixed scan
 ------------------
 Symbolic Z-matrix:
 Charge =  0 Multiplicity = 1

 SCF Done:  E(RB3LYP) =  -495.813293305     A.U. after   15 cycles

  Exact polarizability:   0.000   0.000   0.000   0.000   0.000   0.000
 Approx polarizability: 109.986  -0.484  97.973 -14.964  -0.503 128.705

 SCF Done:  E(RB3LYP) =  -495.823987006     A.U. after   13 cycles
 SCF Done:  E(RB3LYP) =  -495.835948279     A.U. after   16 cycles
 SCF Done:  E(RB3LYP) =  -495.836137080     A.U. after   16 cycles
 SCF Done:  E(RB3LYP) =  -495.835078098     A.U. after   15 cycles
 SCF Done:  E(RB3LYP) =  -495.836139242     A.U. after   15 cycles
 SCF Done:  E(RB3LYP) =  -495.837430651     A.U. after   11 cycles
 SCF Done:  E(RB3LYP) =  -495.839203334     A.U. after   12 cycles
 SCF Done:  E(RB3LYP) =  -495.839832614     A.U. after   12 cycles
 SCF Done:  E(RB3LYP) =  -495.839857763     A.U. after   11 cycles
 SCF Done:  E(RB3LYP) =  -495.840354299     A.U. after   12 cycles
 SCF Done:  E(RB3LYP) =  -495.840378862     A.U. after   11 cycles
 SCF Done:  E(RB3LYP) =  -495.840391230     A.U. after   11 cycles
 SCF Done:  E(RB3LYP) =  -495.840391850     A.U. after    9 cycles
 SCF Done:  E(RB3LYP) =  -495.840392920     A.U. after    8 cycles
 SCF Done:  E(RB3LYP) =  -495.840392800     A.U. after    8 cycles
 SCF Done:  E(RB3LYP) =  -495.840392819     A.U. after    8 cycles
 SCF Done:  E(RB3LYP) =  -495.840392666     A.U. after    8 cycles
 SCF Done:  E(RB3LYP) =  -495.840392589     A.U. after    7 cycles
 SCF Done:  E(RB3LYP) =  -495.840392494     A.U. after    7 cycles
 Optimization completed.
    -- Stationary point found.

                         Standard orientation:
 ---------------------------------------------------------------------
 Center     Atomic      Atomic             Coordinates (Angstroms)
 Number     Number       Type             X           Y           Z
 ---------------------------------------------------------------------
      1          1           0        3.489323   -1.877511   -0.030826
      2          6           0        3.129793   -1.088881    0.634218
      3          1           0        3.972290   -0.418190    0.838327
      4          1           0        2.805223   -1.533546    1.580535
      5          6           0        2.038006   -0.304765   -0.086516
      6          8           0        2.125496   -0.037192   -1.278955
      7          7           0        0.976395    0.048602    0.705481
      8          1           0        1.018212   -0.244486    1.672056
      9          6           0       -0.105430    1.009364    0.425374
     10          1           0       -0.155309    1.673531    1.295187
     11          6           0        0.074864    1.885189   -0.818211
     12          1           0        0.090635    1.319412   -1.748972
     13          1           0       -0.754902    2.600069   -0.846543
     14          1           0        1.012566    2.443834   -0.761644
     15          6           0       -1.454689    0.255872    0.473624
     16          8           0       -2.218576    0.378031    1.424184
     17          7           0       -1.705706   -0.532474   -0.610173
     18          1           0       -0.963858   -0.653215   -1.286866
     19          6           0       -2.871265   -1.394254   -0.696690
     20          1           0       -3.574662   -1.072825    0.072599
     21          1           0       -3.342940   -1.304487   -1.680993
     22          1           0       -2.614423   -2.447343   -0.522638
 ---------------------------------------------------------------------

 The electronic state is 1-A.
 Alpha  occ. eigenvalues --  -19.11171 -19.11160 -14.36835 -14.36101 -10.29374
 Alpha  occ. eigenvalues --  -10.28288 -10.24005 -10.21769 -10.19612 -10.18472
 Alpha  occ. eigenvalues --   -1.03378  -1.02797  -0.92925  -0.91628  -0.78387
 Alpha  occ. eigenvalues --   -0.73143  -0.70663  -0.65526  -0.58602  -0.56894
 Alpha  occ. eigenvalues --   -0.53237  -0.50978  -0.46968  -0.45349  -0.44882
 Alpha  occ. eigenvalues --   -0.44260  -0.42367  -0.41469  -0.40530  -0.39698
 Alpha  occ. eigenvalues --   -0.39115  -0.38048  -0.37210  -0.36272  -0.35669
 Alpha  occ. eigenvalues --   -0.27290  -0.25083  -0.24957  -0.23786
 Alpha virt. eigenvalues --    0.01603   0.03273   0.06486   0.08791   0.11677
 Alpha virt. eigenvalues --    0.12407   0.13718   0.15010   0.15751   0.16311
 Alpha virt. eigenvalues --    0.16762   0.17519   0.17826   0.18717   0.19278

 Mulliken atomic charges:
              1
     1  H    0.186913
     2  C   -0.538016
     3  H    0.185279
     4  H    0.147880
     5  C    0.590856
     6  O   -0.515426
     7  N   -0.603463
     8  H    0.331498
     9  C   -0.048174
    10  H    0.167873
    11  C   -0.443681
    12  H    0.175002
    13  H    0.153971
    14  H    0.165904
    15  C    0.589300
    16  O   -0.515460
    17  N   -0.578600
    18  H    0.341477
    19  C   -0.309652
    20  H    0.201186
    21  H    0.158164
    22  H    0.157167
 Sum of Mulliken atomic charges =   0.00000

 Dipole moment (field-independent basis, Debye):
    X=              0.9608    Y=             -1.2815    Z=              0.3913  Tot=              1.6487
 Quadrupole moment (field-independent basis, Debye-Ang):
   XX=            -62.9459   YY=            -56.1289   ZZ=            -62.9507
   XY=              1.9661   XZ=             13.9259   YZ=             -0.2029

 Normal termination of Gaussian 09 at Fri Feb 10 19:21:56 2017.
