 Gaussian 09, Revision A.02,
 Gaussian 09:  EM64L-G09RevA.02 11-Jun-2009

 ----------------------------------------------------------------------
 # b3lyp/6-31G* Opt=(ModRedundant, maxcycles=1000, calcfc) geom=nocrowd
 ----------------------------------------------------------------------

 ------------------
 Phi Psi fixed scan
 ------------------
 Symbolic Z-matrix:
 Charge =  0 Multiplicity = 1

 SCF Done:  E(RB3LYP) =  -495.809591320     A.U. after   16 cycles

  Exact polarizability:   0.000   0.000   0.000   0.000   0.000   0.000
 Approx polarizability: 113.509  -1.638 131.118  -5.043 -10.980  93.054

 SCF Done:  E(RB3LYP) =  -495.820309289     A.U. after   14 cycles
 SCF Done:  E(RB3LYP) =  -495.832590896     A.U. after   16 cycles
 SCF Done:  E(RB3LYP) =  -495.832925597     A.U. after   13 cycles
 SCF Done:  E(RB3LYP) =  -495.836275273     A.U. after   13 cycles
 SCF Done:  E(RB3LYP) =  -495.837475445     A.U. after   12 cycles
 SCF Done:  E(RB3LYP) =  -495.838573844     A.U. after   13 cycles
 SCF Done:  E(RB3LYP) =  -495.838774565     A.U. after   14 cycles
 SCF Done:  E(RB3LYP) =  -495.839371875     A.U. after   14 cycles
 SCF Done:  E(RB3LYP) =  -495.838333112     A.U. after   14 cycles
 SCF Done:  E(RB3LYP) =  -495.839731499     A.U. after   11 cycles
 SCF Done:  E(RB3LYP) =  -495.839733323     A.U. after   10 cycles
 SCF Done:  E(RB3LYP) =  -495.839734189     A.U. after    9 cycles
 SCF Done:  E(RB3LYP) =  -495.839734587     A.U. after    7 cycles
 SCF Done:  E(RB3LYP) =  -495.839735618     A.U. after    9 cycles
 SCF Done:  E(RB3LYP) =  -495.839736507     A.U. after    9 cycles
 SCF Done:  E(RB3LYP) =  -495.839736884     A.U. after    8 cycles
 SCF Done:  E(RB3LYP) =  -495.839736951     A.U. after    7 cycles
 SCF Done:  E(RB3LYP) =  -495.839736986     A.U. after    6 cycles
 SCF Done:  E(RB3LYP) =  -495.839737019     A.U. after    6 cycles
 Optimization completed.
    -- Stationary point found.

                         Standard orientation:
 ---------------------------------------------------------------------
 Center     Atomic      Atomic             Coordinates (Angstroms)
 Number     Number       Type             X           Y           Z
 ---------------------------------------------------------------------
      1          1           0       -3.709250   -1.621536    0.542190
      2          6           0       -3.101120   -1.304481   -0.306843
      3          1           0       -3.764419   -0.828705   -1.039438
      4          1           0       -2.648306   -2.183929   -0.777779
      5          6           0       -2.074716   -0.286575    0.184282
      6          8           0       -2.289133    0.427218    1.149113
      7          7           0       -0.901786   -0.277585   -0.551629
      8          1           0       -0.945090   -0.842620   -1.390693
      9          6           0        0.112287    0.795517   -0.628159
     10          1           0        0.249130    1.000141   -1.699515
     11          6           0       -0.266313    2.120223    0.040301
     12          1           0       -0.412573    2.006750    1.113769
     13          1           0        0.552555    2.819886   -0.139566
     14          1           0       -1.188592    2.521503   -0.388127
     15          6           0        1.513520    0.331173   -0.154824
     16          8           0        2.419443    1.143045   -0.012116
     17          7           0        1.684464   -1.018462   -0.053377
     18          1           0        0.839146   -1.567695    0.027392
     19          6           0        2.935473   -1.590281    0.415593
     20          1           0        3.732790   -0.881722    0.187025
     21          1           0        2.928766   -1.767792    1.499114
     22          1           0        3.129836   -2.537508   -0.097412
 ---------------------------------------------------------------------

 The electronic state is 1-A.
 Alpha  occ. eigenvalues --  -19.11812 -19.10898 -14.37215 -14.35971 -10.29801
 Alpha  occ. eigenvalues --  -10.28217 -10.24277 -10.21749 -10.20046 -10.17072
 Alpha  occ. eigenvalues --   -1.03817  -1.02846  -0.93500  -0.91349  -0.78112
 Alpha  occ. eigenvalues --   -0.73121  -0.70999  -0.64494  -0.58730  -0.56348
 Alpha  occ. eigenvalues --   -0.53370  -0.51182  -0.47380  -0.45539  -0.45160
 Alpha  occ. eigenvalues --   -0.44576  -0.42088  -0.41426  -0.40625  -0.39229
 Alpha  occ. eigenvalues --   -0.38801  -0.37824  -0.36431  -0.36107  -0.34856
 Alpha  occ. eigenvalues --   -0.28329  -0.25384  -0.25212  -0.23716
 Alpha virt. eigenvalues --    0.01667   0.02451   0.05568   0.10122   0.11405
 Alpha virt. eigenvalues --    0.13165   0.13439   0.14032   0.15616   0.16320
 Alpha virt. eigenvalues --    0.17006   0.17770   0.18111   0.18564   0.19127

 Mulliken atomic charges:
              1
     1  H    0.191920
     2  C   -0.546165
     3  H    0.182885
     4  H    0.148848
     5  C    0.587837
     6  O   -0.482584
     7  N   -0.631389
     8  H    0.324648
     9  C   -0.046163
    10  H    0.169110
    11  C   -0.439591
    12  H    0.187438
    13  H    0.174057
    14  H    0.146334
    15  C    0.609180
    16  O   -0.519213
    17  N   -0.593868
    18  H    0.331981
    19  C   -0.308379
    20  H    0.199737
    21  H    0.161401
    22  H    0.151974
 Sum of Mulliken atomic charges =   0.00000

 Dipole moment (field-independent basis, Debye):
    X=             -1.2406    Y=             -4.0691    Z=             -2.9264  Tot=              5.1633
 Quadrupole moment (field-independent basis, Debye-Ang):
   XX=            -65.3058   YY=            -57.4545   ZZ=            -59.7586
   XY=             -2.9986   XZ=              6.7226   YZ=             -1.4560

 Normal termination of Gaussian 09 at Fri Feb 10 19:08:14 2017.
