 Gaussian 09, Revision A.02,
 Gaussian 09:  EM64L-G09RevA.02 11-Jun-2009

 ----------------------------------------------------------------------
 # b3lyp/6-31G* Opt=(ModRedundant, maxcycles=1000, calcfc) geom=nocrowd
 ----------------------------------------------------------------------

 ------------------
 Phi Psi fixed scan
 ------------------
 Symbolic Z-matrix:
 Charge =  0 Multiplicity = 1

 SCF Done:  E(RB3LYP) =  -495.816051256     A.U. after   14 cycles

  Exact polarizability:   0.000   0.000   0.000   0.000   0.000   0.000
 Approx polarizability: 118.082  -7.101 124.919  -7.753  -2.617  93.089

 SCF Done:  E(RB3LYP) =  -495.825264001     A.U. after   13 cycles
 SCF Done:  E(RB3LYP) =  -495.834749619     A.U. after   14 cycles
 SCF Done:  E(RB3LYP) =  -495.835007879     A.U. after   14 cycles
 SCF Done:  E(RB3LYP) =  -495.838022183     A.U. after   12 cycles
 SCF Done:  E(RB3LYP) =  -495.839161975     A.U. after   12 cycles
 SCF Done:  E(RB3LYP) =  -495.840810199     A.U. after   12 cycles
 SCF Done:  E(RB3LYP) =  -495.841118114     A.U. after   14 cycles
 SCF Done:  E(RB3LYP) =  -495.841374840     A.U. after   11 cycles
 SCF Done:  E(RB3LYP) =  -495.841247907     A.U. after   12 cycles
 SCF Done:  E(RB3LYP) =  -495.841479856     A.U. after   10 cycles
 SCF Done:  E(RB3LYP) =  -495.841485471     A.U. after   10 cycles
 SCF Done:  E(RB3LYP) =  -495.841489473     A.U. after   10 cycles
 SCF Done:  E(RB3LYP) =  -495.841497201     A.U. after   10 cycles
 SCF Done:  E(RB3LYP) =  -495.841511134     A.U. after   11 cycles
 SCF Done:  E(RB3LYP) =  -495.841518587     A.U. after   12 cycles
 SCF Done:  E(RB3LYP) =  -495.841519955     A.U. after    9 cycles
 SCF Done:  E(RB3LYP) =  -495.841520854     A.U. after    9 cycles
 SCF Done:  E(RB3LYP) =  -495.841521233     A.U. after   10 cycles
 SCF Done:  E(RB3LYP) =  -495.841521174     A.U. after    7 cycles
 Optimization completed.
    -- Stationary point found.

                         Standard orientation:
 ---------------------------------------------------------------------
 Center     Atomic      Atomic             Coordinates (Angstroms)
 Number     Number       Type             X           Y           Z
 ---------------------------------------------------------------------
      1          1           0        4.127391   -1.042805   -0.388783
      2          6           0        3.093543   -1.322879   -0.181207
      3          1           0        3.055312   -1.946067    0.718669
      4          1           0        2.717688   -1.920067   -1.021074
      5          6           0        2.261700   -0.050785   -0.042637
      6          8           0        2.648070    1.021196   -0.487876
      7          7           0        1.086505   -0.245837    0.649734
      8          1           0        0.825071   -1.222844    0.745237
      9          6           0       -0.114008    0.588272    0.642058
     10          1           0       -0.359897    0.836903    1.686970
     11          6           0        0.003475    1.910682   -0.133611
     12          1           0        0.136450    1.741801   -1.204673
     13          1           0       -0.902035    2.510397    0.017232
     14          1           0        0.857625    2.487961    0.216797
     15          6           0       -1.278396   -0.305956    0.130472
     16          8           0       -1.107407   -1.498583   -0.108625
     17          7           0       -2.493979    0.298257    0.051552
     18          1           0       -2.555250    1.290071    0.227425
     19          6           0       -3.696435   -0.403178   -0.367504
     20          1           0       -3.444971   -1.460194   -0.458594
     21          1           0       -4.493222   -0.282939    0.374908
     22          1           0       -4.056431   -0.037001   -1.336520
 ---------------------------------------------------------------------

 The electronic state is 1-A.
 Alpha  occ. eigenvalues --  -19.12482 -19.10090 -14.37406 -14.34660 -10.29564
 Alpha  occ. eigenvalues --  -10.28018 -10.24330 -10.22691 -10.18700 -10.18107
 Alpha  occ. eigenvalues --   -1.04482  -1.01858  -0.93198  -0.91350  -0.78138
 Alpha  occ. eigenvalues --   -0.72461  -0.70948  -0.65313  -0.59805  -0.54854
 Alpha  occ. eigenvalues --   -0.53724  -0.49841  -0.47367  -0.45955  -0.44850
 Alpha  occ. eigenvalues --   -0.44133  -0.42750  -0.41100  -0.40313  -0.39950
 Alpha  occ. eigenvalues --   -0.38787  -0.38314  -0.36937  -0.36415  -0.34627
 Alpha  occ. eigenvalues --   -0.26634  -0.26415  -0.24779  -0.23407
 Alpha virt. eigenvalues --    0.01788   0.03475   0.06009   0.10489   0.11202
 Alpha virt. eigenvalues --    0.13534   0.14318   0.14629   0.15497   0.15827
 Alpha virt. eigenvalues --    0.16408   0.17007   0.18221   0.19128   0.19568

 Mulliken atomic charges:
              1
     1  H    0.181590
     2  C   -0.544111
     3  H    0.159827
     4  H    0.179749
     5  C    0.579987
     6  O   -0.505793
     7  N   -0.592916
     8  H    0.340916
     9  C   -0.037268
    10  H    0.162148
    11  C   -0.446929
    12  H    0.174212
    13  H    0.117871
    14  H    0.199969
    15  C    0.598428
    16  O   -0.526760
    17  N   -0.590569
    18  H    0.331795
    19  C   -0.312194
    20  H    0.206873
    21  H    0.159959
    22  H    0.163216
 Sum of Mulliken atomic charges =   0.00000

 Dipole moment (field-independent basis, Debye):
    X=             -3.7993    Y=              0.4447    Z=              1.1198  Tot=              3.9858
 Quadrupole moment (field-independent basis, Debye-Ang):
   XX=            -55.6667   YY=            -61.5080   ZZ=            -59.9972
   XY=            -11.1991   XZ=              1.8332   YZ=              1.0915

 Normal termination of Gaussian 09 at Fri Feb 10 19:08:19 2017.
