 Gaussian 09, Revision A.02,
 Gaussian 09:  EM64L-G09RevA.02 11-Jun-2009

 ----------------------------------------------------------------------
 # b3lyp/6-31G* Opt=(ModRedundant, maxcycles=1000, calcfc) geom=nocrowd
 ----------------------------------------------------------------------

 ------------------
 Phi Psi fixed scan
 ------------------
 Symbolic Z-matrix:
 Charge =  0 Multiplicity = 1

 SCF Done:  E(RB3LYP) =  -495.814572778     A.U. after   14 cycles

  Exact polarizability:   0.000   0.000   0.000   0.000   0.000   0.000
 Approx polarizability: 117.099  -7.072 129.152  -4.617  -5.693  90.469

 SCF Done:  E(RB3LYP) =  -495.824229227     A.U. after   13 cycles
 SCF Done:  E(RB3LYP) =  -495.834302856     A.U. after   14 cycles
 SCF Done:  E(RB3LYP) =  -495.836086256     A.U. after   14 cycles
 SCF Done:  E(RB3LYP) =  -495.814089075     A.U. after   13 cycles
 SCF Done:  E(RB3LYP) =  -495.837893542     A.U. after   13 cycles
 SCF Done:  E(RB3LYP) =  -495.838648349     A.U. after   12 cycles
 SCF Done:  E(RB3LYP) =  -495.839689477     A.U. after   12 cycles
 SCF Done:  E(RB3LYP) =  -495.840064937     A.U. after   13 cycles
 SCF Done:  E(RB3LYP) =  -495.840691885     A.U. after   13 cycles
 SCF Done:  E(RB3LYP) =  -495.842012370     A.U. after   10 cycles
 SCF Done:  E(RB3LYP) =  -495.842013856     A.U. after    9 cycles
 SCF Done:  E(RB3LYP) =  -495.842014242     A.U. after    7 cycles
 SCF Done:  E(RB3LYP) =  -495.842014505     A.U. after    7 cycles
 SCF Done:  E(RB3LYP) =  -495.842014760     A.U. after    7 cycles
 SCF Done:  E(RB3LYP) =  -495.842014925     A.U. after    7 cycles
 SCF Done:  E(RB3LYP) =  -495.842015155     A.U. after    7 cycles
 SCF Done:  E(RB3LYP) =  -495.842016047     A.U. after    9 cycles
 SCF Done:  E(RB3LYP) =  -495.842017754     A.U. after   10 cycles
 SCF Done:  E(RB3LYP) =  -495.842017744     A.U. after    7 cycles
 Optimization completed.
    -- Stationary point found.

                         Standard orientation:
 ---------------------------------------------------------------------
 Center     Atomic      Atomic             Coordinates (Angstroms)
 Number     Number       Type             X           Y           Z
 ---------------------------------------------------------------------
      1          1           0        4.156354   -0.988613   -0.271202
      2          6           0        3.107995   -1.294419   -0.277095
      3          1           0        2.942847   -2.049426    0.497964
      4          1           0        2.896319   -1.749580   -1.252012
      5          6           0        2.239130   -0.051024   -0.107933
      6          8           0        2.577723    1.028143   -0.577076
      7          7           0        1.096051   -0.275941    0.620367
      8          1           0        0.854184   -1.252321    0.758048
      9          6           0       -0.105659    0.553712    0.711084
     10          1           0       -0.313381    0.712701    1.781903
     11          6           0       -0.007443    1.937937    0.056320
     12          1           0        0.060205    1.876904   -1.032095
     13          1           0       -0.884881    2.536592    0.331619
     14          1           0        0.878488    2.464950    0.407375
     15          6           0       -1.284459   -0.324674    0.205694
     16          8           0       -1.176864   -1.548743    0.176080
     17          7           0       -2.439735    0.323032   -0.097018
     18          1           0       -2.434575    1.330751   -0.138925
     19          6           0       -3.638371   -0.378803   -0.527948
     20          1           0       -3.505947   -1.435763   -0.295220
     21          1           0       -4.515158    0.005265    0.003753
     22          1           0       -3.802707   -0.272670   -1.607405
 ---------------------------------------------------------------------

 The electronic state is 1-A.
 Alpha  occ. eigenvalues --  -19.12334 -19.09900 -14.37399 -14.34809 -10.29503
 Alpha  occ. eigenvalues --  -10.28028 -10.24378 -10.22658 -10.18830 -10.18173
 Alpha  occ. eigenvalues --   -1.04385  -1.01756  -0.93159  -0.91372  -0.78186
 Alpha  occ. eigenvalues --   -0.72461  -0.70958  -0.65572  -0.59826  -0.54985
 Alpha  occ. eigenvalues --   -0.53710  -0.50125  -0.47187  -0.45927  -0.44889
 Alpha  occ. eigenvalues --   -0.44111  -0.42727  -0.41267  -0.40223  -0.39848
 Alpha  occ. eigenvalues --   -0.38889  -0.38480  -0.37033  -0.36313  -0.34556
 Alpha  occ. eigenvalues --   -0.26598  -0.26515  -0.24545  -0.23382
 Alpha virt. eigenvalues --    0.01794   0.03650   0.06404   0.10456   0.11126
 Alpha virt. eigenvalues --    0.13311   0.14140   0.14796   0.15352   0.15838
 Alpha virt. eigenvalues --    0.16234   0.17180   0.18117   0.18987   0.19965

 Mulliken atomic charges:
              1
     1  H    0.181644
     2  C   -0.538003
     3  H    0.153826
     4  H    0.180236
     5  C    0.583918
     6  O   -0.511710
     7  N   -0.595354
     8  H    0.343370
     9  C   -0.036648
    10  H    0.169504
    11  C   -0.460713
    12  H    0.174673
    13  H    0.122118
    14  H    0.200274
    15  C    0.606022
    16  O   -0.530839
    17  N   -0.594375
    18  H    0.334480
    19  C   -0.311469
    20  H    0.205395
    21  H    0.159099
    22  H    0.164554
 Sum of Mulliken atomic charges =   0.00000

 Dipole moment (field-independent basis, Debye):
    X=             -3.4748    Y=              0.5667    Z=              0.6410  Tot=              3.5786
 Quadrupole moment (field-independent basis, Debye-Ang):
   XX=            -55.8483   YY=            -61.9111   ZZ=            -59.7554
   XY=            -11.3555   XZ=              3.5325   YZ=              1.8270

 Normal termination of Gaussian 09 at Fri Feb 10 19:26:37 2017.
