 Gaussian 09, Revision A.02,
 Gaussian 09:  EM64L-G09RevA.02 11-Jun-2009

 ----------------------------------------------------------------------
 # b3lyp/6-31G* Opt=(ModRedundant, maxcycles=1000, calcfc) geom=nocrowd
 ----------------------------------------------------------------------

 ------------------
 Phi Psi fixed scan
 ------------------
 Symbolic Z-matrix:
 Charge =  0 Multiplicity = 1

 SCF Done:  E(RB3LYP) =  -495.807379266     A.U. after   15 cycles

  Exact polarizability:   0.000   0.000   0.000   0.000   0.000   0.000
 Approx polarizability: 111.978   5.421 130.755  -3.965 -17.486  94.311

 SCF Done:  E(RB3LYP) =  -495.817352553     A.U. after   13 cycles
 SCF Done:  E(RB3LYP) =  -495.827989315     A.U. after   14 cycles
 SCF Done:  E(RB3LYP) =  -495.827085008     A.U. after   14 cycles
 SCF Done:  E(RB3LYP) =  -495.830715276     A.U. after   13 cycles
 SCF Done:  E(RB3LYP) =  -495.831451286     A.U. after   12 cycles
 SCF Done:  E(RB3LYP) =  -495.832573016     A.U. after   12 cycles
 SCF Done:  E(RB3LYP) =  -495.833289622     A.U. after   12 cycles
 SCF Done:  E(RB3LYP) =  -495.833643344     A.U. after   12 cycles
 SCF Done:  E(RB3LYP) =  -495.833903962     A.U. after   12 cycles
 SCF Done:  E(RB3LYP) =  -495.834423548     A.U. after   11 cycles
 SCF Done:  E(RB3LYP) =  -495.834490825     A.U. after   11 cycles
 SCF Done:  E(RB3LYP) =  -495.834523435     A.U. after   11 cycles
 SCF Done:  E(RB3LYP) =  -495.834544940     A.U. after   11 cycles
 SCF Done:  E(RB3LYP) =  -495.834547930     A.U. after    8 cycles
 SCF Done:  E(RB3LYP) =  -495.834548617     A.U. after   10 cycles
 SCF Done:  E(RB3LYP) =  -495.834548896     A.U. after    8 cycles
 SCF Done:  E(RB3LYP) =  -495.834549524     A.U. after    9 cycles
 SCF Done:  E(RB3LYP) =  -495.834549709     A.U. after    8 cycles
 SCF Done:  E(RB3LYP) =  -495.834549734     A.U. after    7 cycles
 Optimization completed.
    -- Stationary point found.

                         Standard orientation:
 ---------------------------------------------------------------------
 Center     Atomic      Atomic             Coordinates (Angstroms)
 Number     Number       Type             X           Y           Z
 ---------------------------------------------------------------------
      1          1           0       -3.714410   -1.600931    0.773137
      2          6           0       -3.076016   -1.439114   -0.097169
      3          1           0       -3.717255   -1.144095   -0.936833
      4          1           0       -2.577137   -2.378217   -0.360350
      5          6           0       -2.100657   -0.308424    0.222045
      6          8           0       -2.380394    0.576781    1.011775
      7          7           0       -0.891336   -0.412535   -0.445379
      8          1           0       -0.911580   -1.107990   -1.181184
      9          6           0        0.091002    0.668577   -0.698795
     10          1           0        0.272167    0.649889   -1.783259
     11          6           0       -0.360797    2.079902   -0.327190
     12          1           0       -0.508190    2.189547    0.745640
     13          1           0        0.417472    2.776771   -0.646939
     14          1           0       -1.297478    2.328802   -0.832504
     15          6           0        1.466437    0.340544   -0.057636
     16          8           0        2.160435    1.204207    0.458936
     17          7           0        1.907333   -0.942855   -0.257502
     18          1           0        1.192218   -1.643163   -0.401433
     19          6           0        3.154396   -1.394986    0.343231
     20          1           0        3.879497   -0.582790    0.277337
     21          1           0        3.037571   -1.664408    1.401551
     22          1           0        3.528625   -2.262601   -0.207600
 ---------------------------------------------------------------------

 The electronic state is 1-A.
 Alpha  occ. eigenvalues --  -19.11559 -19.11443 -14.37031 -14.36123 -10.29536
 Alpha  occ. eigenvalues --  -10.28389 -10.24276 -10.21865 -10.19861 -10.16891
 Alpha  occ. eigenvalues --   -1.03652  -1.03156  -0.93301  -0.91472  -0.78024
 Alpha  occ. eigenvalues --   -0.72965  -0.70973  -0.64294  -0.58897  -0.56132
 Alpha  occ. eigenvalues --   -0.53141  -0.51029  -0.47209  -0.46005  -0.44991
 Alpha  occ. eigenvalues --   -0.44543  -0.42117  -0.41345  -0.40433  -0.39405
 Alpha  occ. eigenvalues --   -0.37962  -0.37674  -0.36444  -0.36016  -0.35394
 Alpha  occ. eigenvalues --   -0.28388  -0.25599  -0.24958  -0.23788
 Alpha virt. eigenvalues --    0.01727   0.01859   0.04865   0.10167   0.11182
 Alpha virt. eigenvalues --    0.12137   0.13905   0.14343   0.15250   0.16471
 Alpha virt. eigenvalues --    0.16905   0.17725   0.18077   0.19068   0.19340

 Mulliken atomic charges:
              1
     1  H    0.192539
     2  C   -0.546993
     3  H    0.180475
     4  H    0.148709
     5  C    0.591459
     6  O   -0.482451
     7  N   -0.616045
     8  H    0.318064
     9  C   -0.067080
    10  H    0.162801
    11  C   -0.426354
    12  H    0.194078
    13  H    0.160537
    14  H    0.143443
    15  C    0.619328
    16  O   -0.505370
    17  N   -0.588785
    18  H    0.318338
    19  C   -0.305575
    20  H    0.196380
    21  H    0.161780
    22  H    0.150723
 Sum of Mulliken atomic charges =   0.00000

 Dipole moment (field-independent basis, Debye):
    X=             -0.3740    Y=             -4.6515    Z=             -3.4825  Tot=              5.8227
 Quadrupole moment (field-independent basis, Debye-Ang):
   XX=            -63.0846   YY=            -57.6373   ZZ=            -60.2334
   XY=             -1.5903   XZ=              4.0400   YZ=             -2.0634

 Normal termination of Gaussian 09 at Fri Feb 10 19:22:16 2017.
