 Gaussian 09, Revision A.02,
 Gaussian 09:  EM64L-G09RevA.02 11-Jun-2009

 ----------------------------------------------------------------------
 # b3lyp/6-31G* Opt=(ModRedundant, maxcycles=1000, calcfc) geom=nocrowd
 ----------------------------------------------------------------------

 ------------------
 Phi Psi fixed scan
 ------------------
 Symbolic Z-matrix:
 Charge =  0 Multiplicity = 1

 SCF Done:  E(RB3LYP) =  -495.815328668     A.U. after   15 cycles

  Exact polarizability:   0.000   0.000   0.000   0.000   0.000   0.000
 Approx polarizability: 120.451  -1.535 108.055 -16.089  -0.042 108.436

 SCF Done:  E(RB3LYP) =  -495.824252107     A.U. after   13 cycles
 SCF Done:  E(RB3LYP) =  -495.833676781     A.U. after   15 cycles
 SCF Done:  E(RB3LYP) =  -495.832786191     A.U. after   13 cycles
 SCF Done:  E(RB3LYP) =  -495.836321015     A.U. after   13 cycles
 SCF Done:  E(RB3LYP) =  -495.836804091     A.U. after   11 cycles
 SCF Done:  E(RB3LYP) =  -495.837426985     A.U. after   12 cycles
 SCF Done:  E(RB3LYP) =  -495.837593226     A.U. after   11 cycles
 SCF Done:  E(RB3LYP) =  -495.837928980     A.U. after   12 cycles
 SCF Done:  E(RB3LYP) =  -495.838089610     A.U. after   11 cycles
 SCF Done:  E(RB3LYP) =  -495.838491557     A.U. after   10 cycles
 SCF Done:  E(RB3LYP) =  -495.838503265     A.U. after   11 cycles
 SCF Done:  E(RB3LYP) =  -495.838506817     A.U. after    8 cycles
 SCF Done:  E(RB3LYP) =  -495.838507491     A.U. after    7 cycles
 SCF Done:  E(RB3LYP) =  -495.838508247     A.U. after    8 cycles
 SCF Done:  E(RB3LYP) =  -495.838509559     A.U. after    9 cycles
 SCF Done:  E(RB3LYP) =  -495.838509886     A.U. after    9 cycles
 SCF Done:  E(RB3LYP) =  -495.838509845     A.U. after    7 cycles
 SCF Done:  E(RB3LYP) =  -495.838509656     A.U. after    8 cycles
 SCF Done:  E(RB3LYP) =  -495.838509597     A.U. after    7 cycles
 Optimization completed.
    -- Stationary point found.

                         Standard orientation:
 ---------------------------------------------------------------------
 Center     Atomic      Atomic             Coordinates (Angstroms)
 Number     Number       Type             X           Y           Z
 ---------------------------------------------------------------------
      1          1           0       -4.116487   -1.211529   -0.012376
      2          6           0       -3.052449   -1.443966   -0.077276
      3          1           0       -2.866988   -2.059771   -0.964305
      4          1           0       -2.768911   -2.027647    0.806920
      5          6           0       -2.268256   -0.135090   -0.093963
      6          8           0       -2.742103    0.904789    0.337920
      7          7           0       -1.014990   -0.255608   -0.655634
      8          1           0       -0.741326   -1.211968   -0.841406
      9          6           0        0.129362    0.647113   -0.520947
     10          1           0        0.425671    0.970797   -1.531241
     11          6           0       -0.109325    1.904352    0.330322
     12          1           0       -0.366119    1.633772    1.356130
     13          1           0        0.817525    2.490315    0.341888
     14          1           0       -0.916651    2.513196   -0.074403
     15          6           0        1.294156   -0.150090    0.107824
     16          8           0        1.122095   -0.902479    1.058239
     17          7           0        2.504332    0.043797   -0.493827
     18          1           0        2.560464    0.695838   -1.263288
     19          6           0        3.735890   -0.532643    0.018382
     20          1           0        3.462741   -1.222390    0.818083
     21          1           0        4.264782   -1.082128   -0.768235
     22          1           0        4.403714    0.237661    0.423142
 ---------------------------------------------------------------------

 The electronic state is 1-A.
 Alpha  occ. eigenvalues --  -19.11765 -19.10240 -14.37287 -14.35486 -10.29027
 Alpha  occ. eigenvalues --  -10.28244 -10.24193 -10.22549 -10.18419 -10.17890
 Alpha  occ. eigenvalues --   -1.03878  -1.02093  -0.92886  -0.91735  -0.78078
 Alpha  occ. eigenvalues --   -0.72480  -0.71128  -0.64657  -0.59401  -0.55715
 Alpha  occ. eigenvalues --   -0.53602  -0.49804  -0.47533  -0.46047  -0.45043
 Alpha  occ. eigenvalues --   -0.43697  -0.42405  -0.40620  -0.40065  -0.39707
 Alpha  occ. eigenvalues --   -0.38793  -0.37747  -0.36989  -0.36105  -0.34800
 Alpha  occ. eigenvalues --   -0.26350  -0.25982  -0.24569  -0.23679
 Alpha virt. eigenvalues --    0.01739   0.03596   0.06194   0.08764   0.11518
 Alpha virt. eigenvalues --    0.13779   0.14273   0.14405   0.15612   0.15952
 Alpha virt. eigenvalues --    0.16295   0.17396   0.18154   0.19292   0.19460

 Mulliken atomic charges:
              1
     1  H    0.184106
     2  C   -0.547440
     3  H    0.152395
     4  H    0.185791
     5  C    0.594072
     6  O   -0.501629
     7  N   -0.590532
     8  H    0.326053
     9  C   -0.007973
    10  H    0.129705
    11  C   -0.435950
    12  H    0.184362
    13  H    0.129578
    14  H    0.188712
    15  C    0.564395
    16  O   -0.512822
    17  N   -0.585155
    18  H    0.327128
    19  C   -0.312138
    20  H    0.206809
    21  H    0.158946
    22  H    0.161590
 Sum of Mulliken atomic charges =   0.00000

 Dipole moment (field-independent basis, Debye):
    X=              3.7445    Y=             -0.7139    Z=             -3.1874  Tot=              4.9690
 Quadrupole moment (field-independent basis, Debye-Ang):
   XX=            -56.2962   YY=            -59.0664   ZZ=            -60.8606
   XY=              9.0735   XZ=             -2.1271   YZ=              0.7930

 Normal termination of Gaussian 09 at Fri Feb 10 19:07:19 2017.
