 Gaussian 09, Revision A.02,
 Gaussian 09:  EM64L-G09RevA.02 11-Jun-2009

 ----------------------------------------------------------------------
 # b3lyp/6-31G* Opt=(ModRedundant, maxcycles=1000, calcfc) geom=nocrowd
 ----------------------------------------------------------------------

 ------------------
 Phi Psi fixed scan
 ------------------
 Symbolic Z-matrix:
 Charge =  0 Multiplicity = 1

 SCF Done:  E(RB3LYP) =  -495.815079724     A.U. after   16 cycles

  Exact polarizability:   0.000   0.000   0.000   0.000   0.000   0.000
 Approx polarizability: 112.105   5.082 103.880  16.218   4.573 120.241

 SCF Done:  E(RB3LYP) =  -495.825638144     A.U. after   16 cycles
 SCF Done:  E(RB3LYP) =  -495.837084896     A.U. after   15 cycles
 SCF Done:  E(RB3LYP) =  -495.834037713     A.U. after   16 cycles
 SCF Done:  E(RB3LYP) =  -495.839109259     A.U. after   13 cycles
 SCF Done:  E(RB3LYP) =  -495.839821971     A.U. after   12 cycles
 SCF Done:  E(RB3LYP) =  -495.840602804     A.U. after   12 cycles
 SCF Done:  E(RB3LYP) =  -495.840748845     A.U. after   12 cycles
 SCF Done:  E(RB3LYP) =  -495.840972064     A.U. after   12 cycles
 SCF Done:  E(RB3LYP) =  -495.840811220     A.U. after   12 cycles
 SCF Done:  E(RB3LYP) =  -495.841102931     A.U. after   11 cycles
 SCF Done:  E(RB3LYP) =  -495.841104620     A.U. after   10 cycles
 SCF Done:  E(RB3LYP) =  -495.841105061     A.U. after    8 cycles
 SCF Done:  E(RB3LYP) =  -495.841105308     A.U. after    8 cycles
 SCF Done:  E(RB3LYP) =  -495.841105485     A.U. after    7 cycles
 SCF Done:  E(RB3LYP) =  -495.841105607     A.U. after    7 cycles
 SCF Done:  E(RB3LYP) =  -495.841105623     A.U. after    7 cycles
 SCF Done:  E(RB3LYP) =  -495.841105608     A.U. after    7 cycles
 SCF Done:  E(RB3LYP) =  -495.841105574     A.U. after    7 cycles
 SCF Done:  E(RB3LYP) =  -495.841105545     A.U. after    7 cycles
 Optimization completed.
    -- Stationary point found.

                         Standard orientation:
 ---------------------------------------------------------------------
 Center     Atomic      Atomic             Coordinates (Angstroms)
 Number     Number       Type             X           Y           Z
 ---------------------------------------------------------------------
      1          1           0       -3.612226   -1.739337   -0.104527
      2          6           0       -3.155365   -0.972980   -0.733997
      3          1           0       -3.927089   -0.231914   -0.973533
      4          1           0       -2.814796   -1.427447   -1.670326
      5          6           0       -2.040451   -0.294779    0.055569
      6          8           0       -2.117753   -0.135996    1.267572
      7          7           0       -0.964310    0.093468   -0.702719
      8          1           0       -1.024740   -0.107995   -1.691740
      9          6           0        0.118263    1.031350   -0.357619
     10          1           0        0.174091    1.754502   -1.178552
     11          6           0       -0.062226    1.819178    0.945188
     12          1           0       -0.070469    1.181676    1.828406
     13          1           0        0.768989    2.528767    1.020003
     14          1           0       -0.999524    2.381452    0.931626
     15          6           0        1.484319    0.310972   -0.414521
     16          8           0        2.383224    0.702875   -1.149321
     17          7           0        1.597787   -0.746055    0.438440
     18          1           0        0.776405   -1.023227    0.959543
     19          6           0        2.795428   -1.560476    0.529643
     20          1           0        3.558561   -1.088064   -0.090586
     21          1           0        3.153652   -1.614922    1.563975
     22          1           0        2.619222   -2.580010    0.164084
 ---------------------------------------------------------------------

 The electronic state is 1-A.
 Alpha  occ. eigenvalues --  -19.11419 -19.11017 -14.36924 -14.35990 -10.29552
 Alpha  occ. eigenvalues --  -10.28174 -10.23996 -10.21711 -10.19785 -10.18325
 Alpha  occ. eigenvalues --   -1.03500  -1.02756  -0.93103  -0.91471  -0.78395
 Alpha  occ. eigenvalues --   -0.73233  -0.70703  -0.65345  -0.58489  -0.57000
 Alpha  occ. eigenvalues --   -0.53298  -0.50942  -0.47114  -0.45267  -0.44994
 Alpha  occ. eigenvalues --   -0.44101  -0.42445  -0.41493  -0.40679  -0.39867
 Alpha  occ. eigenvalues --   -0.38915  -0.38020  -0.37180  -0.36234  -0.35545
 Alpha  occ. eigenvalues --   -0.27436  -0.25180  -0.24950  -0.23725
 Alpha virt. eigenvalues --    0.01679   0.03057   0.06268   0.09270   0.11738
 Alpha virt. eigenvalues --    0.12476   0.13814   0.14546   0.16116   0.16257
 Alpha virt. eigenvalues --    0.16695   0.17333   0.17857   0.18375   0.19221

 Mulliken atomic charges:
              1
     1  H    0.187790
     2  C   -0.540253
     3  H    0.184649
     4  H    0.149860
     5  C    0.589026
     6  O   -0.512431
     7  N   -0.605247
     8  H    0.329159
     9  C   -0.051290
    10  H    0.167495
    11  C   -0.441511
    12  H    0.178114
    13  H    0.157544
    14  H    0.164145
    15  C    0.587902
    16  O   -0.516620
    17  N   -0.577351
    18  H    0.342531
    19  C   -0.310003
    20  H    0.201763
    21  H    0.159035
    22  H    0.155693
 Sum of Mulliken atomic charges =   0.00000

 Dipole moment (field-independent basis, Debye):
    X=             -1.4106    Y=             -1.6637    Z=             -1.0378  Tot=              2.4155
 Quadrupole moment (field-independent basis, Debye-Ang):
   XX=            -64.3158   YY=            -56.3598   ZZ=            -61.9567
   XY=             -4.2746   XZ=             12.9648   YZ=              0.9935

 Normal termination of Gaussian 09 at Fri Feb 10 19:24:50 2017.
