 Gaussian 09, Revision A.02,
 Gaussian 09:  EM64L-G09RevA.02 11-Jun-2009

 ----------------------------------------------------------------------
 # b3lyp/6-31G* Opt=(ModRedundant, maxcycles=1000, calcfc) geom=nocrowd
 ----------------------------------------------------------------------

 ------------------
 Phi Psi fixed scan
 ------------------
 Symbolic Z-matrix:
 Charge =  0 Multiplicity = 1

 SCF Done:  E(RB3LYP) =  -495.816592776     A.U. after   16 cycles

  Exact polarizability:   0.000   0.000   0.000   0.000   0.000   0.000
 Approx polarizability: 115.258   7.205 116.097  13.115   0.599 105.327

 SCF Done:  E(RB3LYP) =  -495.826489999     A.U. after   16 cycles
 SCF Done:  E(RB3LYP) =  -495.837390269     A.U. after   15 cycles
 SCF Done:  E(RB3LYP) =  -495.834510639     A.U. after   14 cycles
 SCF Done:  E(RB3LYP) =  -495.840026807     A.U. after   14 cycles
 SCF Done:  E(RB3LYP) =  -495.840661787     A.U. after   12 cycles
 SCF Done:  E(RB3LYP) =  -495.841472664     A.U. after   13 cycles
 SCF Done:  E(RB3LYP) =  -495.841695720     A.U. after   12 cycles
 SCF Done:  E(RB3LYP) =  -495.789731705     A.U. after   14 cycles
 SCF Done:  E(RB3LYP) =  -495.841696858     A.U. after   14 cycles
 SCF Done:  E(RB3LYP) =  -495.842190879     A.U. after   11 cycles
 SCF Done:  E(RB3LYP) =  -495.842199026     A.U. after   10 cycles
 SCF Done:  E(RB3LYP) =  -495.842204839     A.U. after   10 cycles
 SCF Done:  E(RB3LYP) =  -495.842207321     A.U. after    8 cycles
 SCF Done:  E(RB3LYP) =  -495.842208668     A.U. after    8 cycles
 SCF Done:  E(RB3LYP) =  -495.842209346     A.U. after    8 cycles
 SCF Done:  E(RB3LYP) =  -495.842209954     A.U. after    9 cycles
 SCF Done:  E(RB3LYP) =  -495.842210013     A.U. after    7 cycles
 SCF Done:  E(RB3LYP) =  -495.842210044     A.U. after    7 cycles
 SCF Done:  E(RB3LYP) =  -495.842210034     A.U. after    7 cycles
 Optimization completed.
    -- Stationary point found.

                         Standard orientation:
 ---------------------------------------------------------------------
 Center     Atomic      Atomic             Coordinates (Angstroms)
 Number     Number       Type             X           Y           Z
 ---------------------------------------------------------------------
      1          1           0       -3.593610   -1.740802    0.191381
      2          6           0       -3.118347   -1.123276   -0.573701
      3          1           0       -3.891007   -0.478765   -1.009036
      4          1           0       -2.723106   -1.767503   -1.366328
      5          6           0       -2.060428   -0.248829    0.094697
      6          8           0       -2.220769    0.198313    1.220379
      7          7           0       -0.942341   -0.029987   -0.680424
      8          1           0       -0.964611   -0.448412   -1.600835
      9          6           0        0.138040    0.953404   -0.504138
     10          1           0        0.217266    1.507739   -1.446896
     11          6           0       -0.071676    1.981990    0.616056
     12          1           0       -0.111436    1.514312    1.599841
     13          1           0        0.770585    2.678922    0.576068
     14          1           0       -1.001433    2.536542    0.468607
     15          6           0        1.523768    0.289800   -0.342066
     16          8           0        2.535587    0.890357   -0.685914
     17          7           0        1.521874   -0.941601    0.235709
     18          1           0        0.627448   -1.333890    0.494043
     19          6           0        2.740533   -1.663002    0.551034
     20          1           0        3.575281   -1.080206    0.158511
     21          1           0        2.865250   -1.780788    1.634338
     22          1           0        2.742752   -2.655926    0.086294
 ---------------------------------------------------------------------

 The electronic state is 1-A.
 Alpha  occ. eigenvalues --  -19.11551 -19.10734 -14.37172 -14.36139 -10.29745
 Alpha  occ. eigenvalues --  -10.28165 -10.24090 -10.21819 -10.19966 -10.17849
 Alpha  occ. eigenvalues --   -1.03650  -1.02694  -0.93420  -0.91464  -0.78313
 Alpha  occ. eigenvalues --   -0.73223  -0.70979  -0.65020  -0.58563  -0.57033
 Alpha  occ. eigenvalues --   -0.53582  -0.51033  -0.47305  -0.45441  -0.45208
 Alpha  occ. eigenvalues --   -0.44124  -0.42391  -0.41351  -0.40683  -0.39963
 Alpha  occ. eigenvalues --   -0.38815  -0.37945  -0.36984  -0.36258  -0.34899
 Alpha  occ. eigenvalues --   -0.27687  -0.25250  -0.25144  -0.23703
 Alpha virt. eigenvalues --    0.01912   0.03001   0.05780   0.09659   0.11705
 Alpha virt. eigenvalues --    0.12563   0.13798   0.14200   0.16109   0.16423
 Alpha virt. eigenvalues --    0.16740   0.17505   0.18109   0.18575   0.18600

 Mulliken atomic charges:
              1
     1  H    0.188656
     2  C   -0.541280
     3  H    0.186663
     4  H    0.146529
     5  C    0.583461
     6  O   -0.495840
     7  N   -0.626533
     8  H    0.326560
     9  C   -0.032807
    10  H    0.167191
    11  C   -0.439178
    12  H    0.178779
    13  H    0.166953
    14  H    0.162936
    15  C    0.585411
    16  O   -0.523790
    17  N   -0.580710
    18  H    0.338515
    19  C   -0.310154
    20  H    0.203254
    21  H    0.161098
    22  H    0.154285
 Sum of Mulliken atomic charges =   0.00000

 Dipole moment (field-independent basis, Debye):
    X=             -1.5636    Y=             -2.9827    Z=             -1.8532  Tot=              3.8439
 Quadrupole moment (field-independent basis, Debye-Ang):
   XX=            -66.7150   YY=            -56.3477   ZZ=            -60.5644
   XY=             -3.6955   XZ=             10.7571   YZ=              0.0143

 Normal termination of Gaussian 09 at Fri Feb 10 19:21:56 2017.
