 Gaussian 09, Revision A.02,
 Gaussian 09:  EM64L-G09RevA.02 11-Jun-2009

 ----------------------------------------------------------------------
 # b3lyp/6-31G* Opt=(ModRedundant, maxcycles=1000, calcfc) geom=nocrowd
 ----------------------------------------------------------------------

 ------------------
 Phi Psi fixed scan
 ------------------
 Symbolic Z-matrix:
 Charge =  0 Multiplicity = 1

 SCF Done:  E(RB3LYP) =  -495.813058548     A.U. after   15 cycles

  Exact polarizability:   0.000   0.000   0.000   0.000   0.000   0.000
 Approx polarizability: 118.781 -11.814 109.091 -13.238  11.955 110.313

 SCF Done:  E(RB3LYP) =  -495.822213842     A.U. after   13 cycles
 SCF Done:  E(RB3LYP) =  -495.831903610     A.U. after   13 cycles
 SCF Done:  E(RB3LYP) =  -495.831885965     A.U. after   14 cycles
 SCF Done:  E(RB3LYP) =  -495.834770198     A.U. after   13 cycles
 SCF Done:  E(RB3LYP) =  -495.835232142     A.U. after   12 cycles
 SCF Done:  E(RB3LYP) =  -495.835834415     A.U. after   12 cycles
 SCF Done:  E(RB3LYP) =  -495.835906886     A.U. after   13 cycles
 SCF Done:  E(RB3LYP) =  -495.836277748     A.U. after   11 cycles
 SCF Done:  E(RB3LYP) =  -495.836279408     A.U. after   11 cycles
 SCF Done:  E(RB3LYP) =  -495.836436426     A.U. after   11 cycles
 SCF Done:  E(RB3LYP) =  -495.836517905     A.U. after   12 cycles
 SCF Done:  E(RB3LYP) =  -495.836551527     A.U. after   10 cycles
 SCF Done:  E(RB3LYP) =  -495.836608908     A.U. after   11 cycles
 SCF Done:  E(RB3LYP) =  -495.836651442     A.U. after   11 cycles
 SCF Done:  E(RB3LYP) =  -495.836691246     A.U. after   12 cycles
 SCF Done:  E(RB3LYP) =  -495.836719195     A.U. after   12 cycles
 SCF Done:  E(RB3LYP) =  -495.836739387     A.U. after   11 cycles
 SCF Done:  E(RB3LYP) =  -495.836741134     A.U. after   10 cycles
 Optimization completed.
    -- Stationary point found.

                         Standard orientation:
 ---------------------------------------------------------------------
 Center     Atomic      Atomic             Coordinates (Angstroms)
 Number     Number       Type             X           Y           Z
 ---------------------------------------------------------------------
      1          1           0       -3.978654   -1.489389   -0.125427
      2          6           0       -2.915345   -1.634659    0.075881
      3          1           0       -2.520248   -2.401197   -0.599531
      4          1           0       -2.814238   -1.997760    1.105293
      5          6           0       -2.211540   -0.284842   -0.045321
      6          8           0       -2.765526    0.752594    0.284249
      7          7           0       -0.933486   -0.373232   -0.546183
      8          1           0       -0.607353   -1.310967   -0.737854
      9          6           0        0.117347    0.649637   -0.613578
     10          1           0        0.408464    0.748868   -1.671689
     11          6           0       -0.272447    2.034557   -0.091602
     12          1           0       -0.498244    1.992706    0.974124
     13          1           0        0.581240    2.705827   -0.243806
     14          1           0       -1.140143    2.430958   -0.617658
     15          6           0        1.328359    0.124956    0.194336
     16          8           0        1.315895    0.067930    1.415645
     17          7           0        2.374727   -0.314510   -0.570430
     18          1           0        2.342764   -0.153615   -1.567086
     19          6           0        3.613766   -0.803743    0.010991
     20          1           0        3.438555   -0.941875    1.078756
     21          1           0        3.901048   -1.760782   -0.437924
     22          1           0        4.434324   -0.088208   -0.124299
 ---------------------------------------------------------------------

 The electronic state is 1-A.
 Alpha  occ. eigenvalues --  -19.11546 -19.10170 -14.37337 -14.36068 -10.28861
 Alpha  occ. eigenvalues --  -10.28454 -10.24235 -10.22535 -10.18746 -10.17278
 Alpha  occ. eigenvalues --   -1.03689  -1.02150  -0.92904  -0.91924  -0.77990
 Alpha  occ. eigenvalues --   -0.72486  -0.71335  -0.64529  -0.59279  -0.56247
 Alpha  occ. eigenvalues --   -0.53494  -0.50135  -0.47634  -0.46202  -0.45254
 Alpha  occ. eigenvalues --   -0.43742  -0.42175  -0.40616  -0.39772  -0.39630
 Alpha  occ. eigenvalues --   -0.38692  -0.37332  -0.36823  -0.35751  -0.35087
 Alpha  occ. eigenvalues --   -0.26987  -0.25994  -0.23970  -0.23702
 Alpha virt. eigenvalues --    0.01367   0.04084   0.05688   0.08398   0.11517
 Alpha virt. eigenvalues --    0.13402   0.13872   0.14834   0.15605   0.15945
 Alpha virt. eigenvalues --    0.16881   0.17652   0.18275   0.19410   0.19743

 Mulliken atomic charges:
              1
     1  H    0.185322
     2  C   -0.541269
     3  H    0.142269
     4  H    0.187411
     5  C    0.600722
     6  O   -0.500887
     7  N   -0.594462
     8  H    0.320434
     9  C   -0.017004
    10  H    0.124348
    11  C   -0.435492
    12  H    0.194584
    13  H    0.133152
    14  H    0.177062
    15  C    0.581875
    16  O   -0.507443
    17  N   -0.590080
    18  H    0.325016
    19  C   -0.312281
    20  H    0.207459
    21  H    0.157351
    22  H    0.161913
 Sum of Mulliken atomic charges =   0.00000

 Dipole moment (field-independent basis, Debye):
    X=              3.3927    Y=             -2.6422    Z=             -3.9617  Tot=              5.8469
 Quadrupole moment (field-independent basis, Debye-Ang):
   XX=            -58.7241   YY=            -57.0811   ZZ=            -61.4056
   XY=              5.1180   XZ=             -4.0383   YZ=             -0.5865

 Normal termination of Gaussian 09 at Fri Feb 10 19:08:19 2017.
