 Gaussian 09, Revision A.02,
 Gaussian 09:  EM64L-G09RevA.02 11-Jun-2009

 ----------------------------------------------------------------------
 # b3lyp/6-31G* Opt=(ModRedundant, maxcycles=1000, calcfc) geom=nocrowd
 ----------------------------------------------------------------------

 ------------------
 Phi Psi fixed scan
 ------------------
 Symbolic Z-matrix:
 Charge =  0 Multiplicity = 1

 SCF Done:  E(RB3LYP) =  -495.815945107     A.U. after   15 cycles

  Exact polarizability:   0.000   0.000   0.000   0.000   0.000   0.000
 Approx polarizability: 119.847  -3.102 113.668 -13.986   1.455 102.591

 SCF Done:  E(RB3LYP) =  -495.825151644     A.U. after   13 cycles
 SCF Done:  E(RB3LYP) =  -495.834526567     A.U. after   15 cycles
 SCF Done:  E(RB3LYP) =  -495.833245437     A.U. after   13 cycles
 SCF Done:  E(RB3LYP) =  -495.836909159     A.U. after   13 cycles
 SCF Done:  E(RB3LYP) =  -495.837603004     A.U. after   11 cycles
 SCF Done:  E(RB3LYP) =  -495.838497733     A.U. after   12 cycles
 SCF Done:  E(RB3LYP) =  -495.839239941     A.U. after   12 cycles
 SCF Done:  E(RB3LYP) =  -495.839281335     A.U. after   13 cycles
 SCF Done:  E(RB3LYP) =  -495.839613106     A.U. after   12 cycles
 SCF Done:  E(RB3LYP) =  -495.839643489     A.U. after   11 cycles
 SCF Done:  E(RB3LYP) =  -495.839697686     A.U. after   12 cycles
 SCF Done:  E(RB3LYP) =  -495.839741219     A.U. after   11 cycles
 SCF Done:  E(RB3LYP) =  -495.839753696     A.U. after   11 cycles
 SCF Done:  E(RB3LYP) =  -495.839763645     A.U. after   10 cycles
 SCF Done:  E(RB3LYP) =  -495.839767101     A.U. after   10 cycles
 SCF Done:  E(RB3LYP) =  -495.839767521     A.U. after    8 cycles
 SCF Done:  E(RB3LYP) =  -495.839767630     A.U. after    6 cycles
 SCF Done:  E(RB3LYP) =  -495.839767910     A.U. after    8 cycles
 SCF Done:  E(RB3LYP) =  -495.839768285     A.U. after    9 cycles
 Optimization completed.
    -- Stationary point found.

                         Standard orientation:
 ---------------------------------------------------------------------
 Center     Atomic      Atomic             Coordinates (Angstroms)
 Number     Number       Type             X           Y           Z
 ---------------------------------------------------------------------
      1          1           0        4.126327   -1.133725   -0.162465
      2          6           0        3.078804   -1.378271    0.018802
      3          1           0        2.992738   -1.954256    0.946848
      4          1           0        2.715779   -2.006780   -0.803567
      5          6           0        2.275441   -0.082174    0.066198
      6          8           0        2.716807    0.968041   -0.375751
      7          7           0        1.047311   -0.224808    0.679979
      8          1           0        0.783443   -1.193948    0.813293
      9          6           0       -0.127355    0.634760    0.536504
     10          1           0       -0.416216    0.992430    1.537152
     11          6           0        0.049011    1.864238   -0.372779
     12          1           0        0.290941    1.563904   -1.394710
     13          1           0       -0.892873    2.425057   -0.386865
     14          1           0        0.848827    2.510718   -0.014454
     15          6           0       -1.281290   -0.234550   -0.016291
     16          8           0       -1.075324   -1.215345   -0.721570
     17          7           0       -2.525445    0.165063    0.373653
     18          1           0       -2.607146    0.996349    0.942161
     19          6           0       -3.742330   -0.457292   -0.119788
     20          1           0       -3.451265   -1.360233   -0.657934
     21          1           0       -4.402184   -0.728500    0.711484
     22          1           0       -4.286986    0.205366   -0.803671
 ---------------------------------------------------------------------

 The electronic state is 1-A.
 Alpha  occ. eigenvalues --  -19.12112 -19.10276 -14.37323 -14.35122 -10.29258
 Alpha  occ. eigenvalues --  -10.28149 -10.24196 -10.22625 -10.18266 -10.18209
 Alpha  occ. eigenvalues --   -1.04155  -1.02065  -0.93027  -0.91586  -0.78117
 Alpha  occ. eigenvalues --   -0.72484  -0.71047  -0.64811  -0.59516  -0.55321
 Alpha  occ. eigenvalues --   -0.53660  -0.49709  -0.47488  -0.45991  -0.44946
 Alpha  occ. eigenvalues --   -0.43828  -0.42631  -0.40685  -0.40282  -0.39835
 Alpha  occ. eigenvalues --   -0.38770  -0.37963  -0.37012  -0.36323  -0.34720
 Alpha  occ. eigenvalues --   -0.26312  -0.26128  -0.24913  -0.23608
 Alpha virt. eigenvalues --    0.01802   0.03408   0.06185   0.09330   0.11448
 Alpha virt. eigenvalues --    0.13906   0.14041   0.14459   0.15352   0.16078
 Alpha virt. eigenvalues --    0.16260   0.17433   0.18328   0.18788   0.19164

 Mulliken atomic charges:
              1
     1  H    0.183101
     2  C   -0.548451
     3  H    0.157747
     4  H    0.183944
     5  C    0.586673
     6  O   -0.501385
     7  N   -0.590295
     8  H    0.330267
     9  C   -0.014079
    10  H    0.139146
    11  C   -0.436266
    12  H    0.178188
    13  H    0.125449
    14  H    0.193808
    15  C    0.568378
    16  O   -0.516079
    17  N   -0.584208
    18  H    0.327997
    19  C   -0.311673
    20  H    0.206208
    21  H    0.159437
    22  H    0.162093
 Sum of Mulliken atomic charges =   0.00000

 Dipole moment (field-independent basis, Debye):
    X=             -3.8541    Y=             -0.0975    Z=              2.3714  Tot=              4.5262
 Quadrupole moment (field-independent basis, Debye-Ang):
   XX=            -55.6745   YY=            -60.2505   ZZ=            -60.4631
   XY=            -10.2868   XZ=             -0.7979   YZ=             -0.3839

 Normal termination of Gaussian 09 at Fri Feb 10 19:05:09 2017.
