 Gaussian 09, Revision A.02,
 Gaussian 09:  EM64L-G09RevA.02 11-Jun-2009

 ----------------------------------------------------------------------
 # b3lyp/6-31G* Opt=(ModRedundant, maxcycles=1000, calcfc) geom=nocrowd
 ----------------------------------------------------------------------

 ------------------
 Phi Psi fixed scan
 ------------------
 Symbolic Z-matrix:
 Charge =  0 Multiplicity = 1

 SCF Done:  E(RB3LYP) =  -495.812455397     A.U. after   14 cycles

  Exact polarizability:   0.000   0.000   0.000   0.000   0.000   0.000
 Approx polarizability: 115.061  -5.898 132.222  -1.883  -8.793  89.732

 SCF Done:  E(RB3LYP) =  -495.823240300     A.U. after   13 cycles
 SCF Done:  E(RB3LYP) =  -495.834718954     A.U. after   14 cycles
 SCF Done:  E(RB3LYP) =  -495.837800200     A.U. after   16 cycles
 SCF Done:  E(RB3LYP) =  -495.830469049     A.U. after   16 cycles
 SCF Done:  E(RB3LYP) =  -495.839047615     A.U. after   13 cycles
 SCF Done:  E(RB3LYP) =  -495.839785564     A.U. after   12 cycles
 SCF Done:  E(RB3LYP) =  -495.840697845     A.U. after   16 cycles
 SCF Done:  E(RB3LYP) =  -495.841271179     A.U. after   13 cycles
 SCF Done:  E(RB3LYP) =  -495.841241413     A.U. after   12 cycles
 SCF Done:  E(RB3LYP) =  -495.842143515     A.U. after   11 cycles
 SCF Done:  E(RB3LYP) =  -495.842160690     A.U. after   10 cycles
 SCF Done:  E(RB3LYP) =  -495.842166433     A.U. after    9 cycles
 SCF Done:  E(RB3LYP) =  -495.842170270     A.U. after    9 cycles
 SCF Done:  E(RB3LYP) =  -495.842171274     A.U. after    8 cycles
 SCF Done:  E(RB3LYP) =  -495.842171504     A.U. after    7 cycles
 SCF Done:  E(RB3LYP) =  -495.842171571     A.U. after    7 cycles
 SCF Done:  E(RB3LYP) =  -495.842171589     A.U. after    6 cycles
 SCF Done:  E(RB3LYP) =  -495.842171590     A.U. after    6 cycles
 SCF Done:  E(RB3LYP) =  -495.842171591     A.U. after    6 cycles
 Optimization completed.
    -- Stationary point found.

                         Standard orientation:
 ---------------------------------------------------------------------
 Center     Atomic      Atomic             Coordinates (Angstroms)
 Number     Number       Type             X           Y           Z
 ---------------------------------------------------------------------
      1          1           0       -4.148917   -0.952327    0.247798
      2          6           0       -3.109678   -1.271116    0.359674
      3          1           0       -2.903990   -2.089067   -0.337579
      4          1           0       -2.987400   -1.645241    1.382560
      5          6           0       -2.207794   -0.054583    0.168123
      6          8           0       -2.498867    1.030634    0.656288
      7          7           0       -1.096583   -0.306329   -0.594435
      8          1           0       -0.887319   -1.280844   -0.781348
      9          6           0        0.097500    0.520567   -0.784423
     10          1           0        0.259097    0.604351   -1.871208
     11          6           0        0.012011    1.945157   -0.227611
     12          1           0       -0.035505    1.965573    0.863338
     13          1           0        0.884155    2.516933   -0.569507
     14          1           0       -0.881771    2.447558   -0.595960
     15          6           0        1.294936   -0.333379   -0.286190
     16          8           0        1.263953   -1.554865   -0.422812
     17          7           0        2.360216    0.331141    0.230593
     18          1           0        2.284996    1.325420    0.381810
     19          6           0        3.558084   -0.351068    0.693499
     20          1           0        3.470694   -1.399718    0.407848
     21          1           0        4.452014    0.079699    0.229302
     22          1           0        3.657474   -0.285648    1.783610
 ---------------------------------------------------------------------

 The electronic state is 1-A.
 Alpha  occ. eigenvalues --  -19.12052 -19.09833 -14.37407 -14.35070 -10.29388
 Alpha  occ. eigenvalues --  -10.28098 -10.24366 -10.22591 -10.18837 -10.18288
 Alpha  occ. eigenvalues --   -1.04175  -1.01753  -0.93102  -0.91470  -0.78236
 Alpha  occ. eigenvalues --   -0.72496  -0.70974  -0.65704  -0.59795  -0.55259
 Alpha  occ. eigenvalues --   -0.53660  -0.50389  -0.46994  -0.45896  -0.44999
 Alpha  occ. eigenvalues --   -0.44046  -0.42685  -0.41287  -0.40109  -0.39660
 Alpha  occ. eigenvalues --   -0.39053  -0.38558  -0.37185  -0.36240  -0.34607
 Alpha  occ. eigenvalues --   -0.26628  -0.26365  -0.24337  -0.23434
 Alpha virt. eigenvalues --    0.01856   0.03812   0.06887   0.10110   0.11119
 Alpha virt. eigenvalues --    0.13017   0.14349   0.14750   0.15293   0.15768
 Alpha virt. eigenvalues --    0.16225   0.17480   0.18088   0.18779   0.19842

 Mulliken atomic charges:
              1
     1  H    0.182262
     2  C   -0.535430
     3  H    0.150815
     4  H    0.180442
     5  C    0.588061
     6  O   -0.515473
     7  N   -0.597318
     8  H    0.342676
     9  C   -0.029084
    10  H    0.170535
    11  C   -0.469385
    12  H    0.175603
    13  H    0.127430
    14  H    0.196373
    15  C    0.607968
    16  O   -0.533503
    17  N   -0.596177
    18  H    0.336860
    19  C   -0.313873
    20  H    0.207027
    21  H    0.160260
    22  H    0.163931
 Sum of Mulliken atomic charges =   0.00000

 Dipole moment (field-independent basis, Debye):
    X=              3.0522    Y=              0.5863    Z=             -0.3212  Tot=              3.1245
 Quadrupole moment (field-independent basis, Debye-Ang):
   XX=            -56.1492   YY=            -62.1556   ZZ=            -59.5648
   XY=             11.4393   XZ=              4.9574   YZ=             -2.6312

 Normal termination of Gaussian 09 at Fri Feb 10 19:09:45 2017.
