 Gaussian 09, Revision A.02,
 Gaussian 09:  EM64L-G09RevA.02 11-Jun-2009

 ----------------------------------------------------------------------
 # b3lyp/6-31G* Opt=(ModRedundant, maxcycles=1000, calcfc) geom=nocrowd
 ----------------------------------------------------------------------

 ------------------
 Phi Psi fixed scan
 ------------------
 Symbolic Z-matrix:
 Charge =  0 Multiplicity = 1

 SCF Done:  E(RB3LYP) =  -495.815862894     A.U. after   15 cycles

  Exact polarizability:   0.000   0.000   0.000   0.000   0.000   0.000
 Approx polarizability: 115.416   6.382 122.411 -10.060   2.796  99.496

 SCF Done:  E(RB3LYP) =  -495.825953221     A.U. after   13 cycles
 SCF Done:  E(RB3LYP) =  -495.836976576     A.U. after   13 cycles
 SCF Done:  E(RB3LYP) =  -495.834798183     A.U. after   13 cycles
 SCF Done:  E(RB3LYP) =  -495.839689772     A.U. after   14 cycles
 SCF Done:  E(RB3LYP) =  -495.840379905     A.U. after   11 cycles
 SCF Done:  E(RB3LYP) =  -495.841294884     A.U. after   12 cycles
 SCF Done:  E(RB3LYP) =  -495.841578155     A.U. after   13 cycles
 SCF Done:  E(RB3LYP) =  -495.841492550     A.U. after   12 cycles
 SCF Done:  E(RB3LYP) =  -495.841581180     A.U. after   12 cycles
 SCF Done:  E(RB3LYP) =  -495.841949727     A.U. after   13 cycles
 SCF Done:  E(RB3LYP) =  -495.842023652     A.U. after   11 cycles
 SCF Done:  E(RB3LYP) =  -495.842119234     A.U. after   11 cycles
 SCF Done:  E(RB3LYP) =  -495.842153621     A.U. after   11 cycles
 SCF Done:  E(RB3LYP) =  -495.842159458     A.U. after   10 cycles
 SCF Done:  E(RB3LYP) =  -495.842162545     A.U. after   10 cycles
 SCF Done:  E(RB3LYP) =  -495.842164647     A.U. after   10 cycles
 SCF Done:  E(RB3LYP) =  -495.842166140     A.U. after   10 cycles
 SCF Done:  E(RB3LYP) =  -495.842166525     A.U. after    8 cycles
 SCF Done:  E(RB3LYP) =  -495.842166603     A.U. after    7 cycles
 Optimization completed.
    -- Stationary point found.

                         Standard orientation:
 ---------------------------------------------------------------------
 Center     Atomic      Atomic             Coordinates (Angstroms)
 Number     Number       Type             X           Y           Z
 ---------------------------------------------------------------------
      1          1           0       -3.624277   -1.706089    0.325539
      2          6           0       -3.109528   -1.185987   -0.484825
      3          1           0       -3.853221   -0.586974   -1.023615
      4          1           0       -2.692755   -1.921376   -1.181542
      5          6           0       -2.063080   -0.254743    0.122701
      6          8           0       -2.242770    0.292173    1.199047
      7          7           0       -0.927446   -0.110472   -0.648796
      8          1           0       -0.954176   -0.586721   -1.540907
      9          6           0        0.134128    0.906378   -0.554169
     10          1           0        0.226945    1.352729   -1.552435
     11          6           0       -0.127475    2.053397    0.431458
     12          1           0       -0.197125    1.699892    1.460137
     13          1           0        0.708550    2.751798    0.340552
     14          1           0       -1.058318    2.571885    0.189031
     15          6           0        1.530505    0.300298   -0.283065
     16          8           0        2.533413    0.983181   -0.458441
     17          7           0        1.548477   -0.992337    0.138509
     18          1           0        0.655649   -1.430376    0.317095
     19          6           0        2.773669   -1.671927    0.516312
     20          1           0        3.608039   -1.051951    0.184711
     21          1           0        2.842408   -1.806274    1.603147
     22          1           0        2.836607   -2.654220    0.034977
 ---------------------------------------------------------------------

 The electronic state is 1-A.
 Alpha  occ. eigenvalues --  -19.11654 -19.10646 -14.37233 -14.36112 -10.29800
 Alpha  occ. eigenvalues --  -10.28154 -10.24155 -10.21810 -10.20024 -10.17570
 Alpha  occ. eigenvalues --   -1.03729  -1.02668  -0.93494  -0.91429  -0.78236
 Alpha  occ. eigenvalues --   -0.73195  -0.71039  -0.64841  -0.58614  -0.56875
 Alpha  occ. eigenvalues --   -0.53581  -0.51110  -0.47351  -0.45502  -0.45218
 Alpha  occ. eigenvalues --   -0.44296  -0.42240  -0.41336  -0.40659  -0.39802
 Alpha  occ. eigenvalues --   -0.38876  -0.37855  -0.36781  -0.36233  -0.34704
 Alpha  occ. eigenvalues --   -0.27891  -0.25345  -0.25111  -0.23689
 Alpha virt. eigenvalues --    0.01875   0.03047   0.05585   0.09819   0.11618
 Alpha virt. eigenvalues --    0.12800   0.13773   0.14028   0.15957   0.16390
 Alpha virt. eigenvalues --    0.16929   0.17563   0.18141   0.18421   0.18836

 Mulliken atomic charges:
              1
     1  H    0.189847
     2  C   -0.542736
     3  H    0.186005
     4  H    0.146548
     5  C    0.584705
     6  O   -0.489965
     7  N   -0.633959
     8  H    0.326027
     9  C   -0.030664
    10  H    0.167770
    11  C   -0.440125
    12  H    0.180740
    13  H    0.171364
    14  H    0.157860
    15  C    0.593228
    16  O   -0.525828
    17  N   -0.585664
    18  H    0.336516
    19  C   -0.309543
    20  H    0.202739
    21  H    0.161651
    22  H    0.153484
 Sum of Mulliken atomic charges =   0.00000

 Dipole moment (field-independent basis, Debye):
    X=             -1.5572    Y=             -3.4224    Z=             -2.2466  Tot=              4.3800
 Quadrupole moment (field-independent basis, Debye-Ang):
   XX=            -66.7332   YY=            -56.6477   ZZ=            -60.0780
   XY=             -3.5972   XZ=              9.4047   YZ=             -0.4597

 Normal termination of Gaussian 09 at Fri Feb 10 19:28:57 2017.
