 Gaussian 09, Revision A.02,
 Gaussian 09:  EM64L-G09RevA.02 11-Jun-2009

 ----------------------------------------------------------------------
 # b3lyp/6-31G* Opt=(ModRedundant, maxcycles=1000, calcfc) geom=nocrowd
 ----------------------------------------------------------------------

 ------------------
 Phi Psi fixed scan
 ------------------
 Symbolic Z-matrix:
 Charge =  0 Multiplicity = 1

 SCF Done:  E(RB3LYP) =  -495.808445413     A.U. after   16 cycles

  Exact polarizability:   0.000   0.000   0.000   0.000   0.000   0.000
 Approx polarizability: 112.603   8.924 127.334  -5.056 -18.873  97.181

 SCF Done:  E(RB3LYP) =  -495.818413882     A.U. after   14 cycles
 SCF Done:  E(RB3LYP) =  -495.828379219     A.U. after   13 cycles
 SCF Done:  E(RB3LYP) =  -495.827615673     A.U. after   15 cycles
 SCF Done:  E(RB3LYP) =  -495.831132931     A.U. after   14 cycles
 SCF Done:  E(RB3LYP) =  -495.831980308     A.U. after   12 cycles
 SCF Done:  E(RB3LYP) =  -495.833043466     A.U. after   13 cycles
 SCF Done:  E(RB3LYP) =  -495.833211171     A.U. after   14 cycles
 SCF Done:  E(RB3LYP) =  -495.817021244     A.U. after   13 cycles
 SCF Done:  E(RB3LYP) =  -495.833214553     A.U. after   14 cycles
 SCF Done:  E(RB3LYP) =  -495.834484894     A.U. after   10 cycles
 SCF Done:  E(RB3LYP) =  -495.834494976     A.U. after   10 cycles
 SCF Done:  E(RB3LYP) =  -495.834504354     A.U. after   11 cycles
 SCF Done:  E(RB3LYP) =  -495.834506073     A.U. after   10 cycles
 SCF Done:  E(RB3LYP) =  -495.834508293     A.U. after   10 cycles
 SCF Done:  E(RB3LYP) =  -495.834511181     A.U. after   10 cycles
 SCF Done:  E(RB3LYP) =  -495.834511685     A.U. after   10 cycles
 SCF Done:  E(RB3LYP) =  -495.834512081     A.U. after    9 cycles
 SCF Done:  E(RB3LYP) =  -495.834512260     A.U. after    7 cycles
 SCF Done:  E(RB3LYP) =  -495.834512281     A.U. after    7 cycles
 Optimization completed.
    -- Stationary point found.

                         Standard orientation:
 ---------------------------------------------------------------------
 Center     Atomic      Atomic             Coordinates (Angstroms)
 Number     Number       Type             X           Y           Z
 ---------------------------------------------------------------------
      1          1           0       -3.727439   -1.789409    0.099320
      2          6           0       -2.652870   -1.792764    0.294399
      3          1           0       -2.177398   -2.566732   -0.317525
      4          1           0       -2.506688   -2.047679    1.350533
      5          6           0       -2.112767   -0.385778    0.042940
      6          8           0       -2.765950    0.604243    0.333374
      7          7           0       -0.862887   -0.370850   -0.535239
      8          1           0       -0.419428   -1.276580   -0.607955
      9          6           0        0.077384    0.758709   -0.682183
     10          1           0        0.319899    0.833942   -1.755682
     11          6           0       -0.434412    2.118595   -0.215839
     12          1           0       -0.639709    2.119956    0.854379
     13          1           0        0.347610    2.858124   -0.414605
     14          1           0       -1.344632    2.397523   -0.745769
     15          6           0        1.388644    0.389535    0.059320
     16          8           0        1.799007    0.994994    1.035823
     17          7           0        2.007218   -0.743657   -0.422785
     18          1           0        1.815091   -1.002980   -1.382431
     19          6           0        3.277733   -1.188952    0.135277
     20          1           0        3.248828   -1.036767    1.214905
     21          1           0        3.416658   -2.252059   -0.079410
     22          1           0        4.130177   -0.625748   -0.266658
 ---------------------------------------------------------------------

 The electronic state is 1-A.
 Alpha  occ. eigenvalues --  -19.12500 -19.10409 -14.37420 -14.36241 -10.29349
 Alpha  occ. eigenvalues --  -10.28687 -10.24307 -10.22780 -10.19046 -10.16865
 Alpha  occ. eigenvalues --   -1.04386  -1.02416  -0.93507  -0.91722  -0.77939
 Alpha  occ. eigenvalues --   -0.72445  -0.71650  -0.64408  -0.59244  -0.56269
 Alpha  occ. eigenvalues --   -0.53772  -0.50073  -0.47899  -0.46541  -0.45235
 Alpha  occ. eigenvalues --   -0.43984  -0.42674  -0.40782  -0.40253  -0.39663
 Alpha  occ. eigenvalues --   -0.37969  -0.37316  -0.36938  -0.36137  -0.35170
 Alpha  occ. eigenvalues --   -0.27921  -0.26818  -0.23956  -0.23876
 Alpha virt. eigenvalues --    0.00652   0.03661   0.05224   0.09081   0.11529
 Alpha virt. eigenvalues --    0.11755   0.13784   0.14495   0.15609   0.15756
 Alpha virt. eigenvalues --    0.17102   0.17497   0.18455   0.18950   0.19302

 Mulliken atomic charges:
              1
     1  H    0.187174
     2  C   -0.541028
     3  H    0.142636
     4  H    0.183859
     5  C    0.594688
     6  O   -0.497632
     7  N   -0.604799
     8  H    0.318696
     9  C   -0.037037
    10  H    0.141969
    11  C   -0.422466
    12  H    0.184453
    13  H    0.143431
    14  H    0.169857
    15  C    0.591278
    16  O   -0.492200
    17  N   -0.598862
    18  H    0.322878
    19  C   -0.304557
    20  H    0.199367
    21  H    0.154252
    22  H    0.164042
 Sum of Mulliken atomic charges =   0.00000

 Dipole moment (field-independent basis, Debye):
    X=              2.6879    Y=             -4.1726    Z=             -3.1534  Tot=              5.8804
 Quadrupole moment (field-independent basis, Debye-Ang):
   XX=            -64.2515   YY=            -57.4397   ZZ=            -59.5449
   XY=              0.2386   XZ=             -3.7998   YZ=             -2.1354

 Normal termination of Gaussian 09 at Fri Feb 10 19:25:05 2017.
