 Gaussian 09, Revision A.02,
 Gaussian 09:  EM64L-G09RevA.02 11-Jun-2009

 ----------------------------------------------------------------------
 # b3lyp/6-31G* Opt=(ModRedundant, maxcycles=1000, calcfc) geom=nocrowd
 ----------------------------------------------------------------------

 ------------------
 Phi Psi fixed scan
 ------------------
 Symbolic Z-matrix:
 Charge =  0 Multiplicity = 1

 SCF Done:  E(RB3LYP) =  -495.811446939     A.U. after   15 cycles

  Exact polarizability:   0.000   0.000   0.000   0.000   0.000   0.000
 Approx polarizability: 116.584 -13.114 115.602  -9.925  16.502 105.835

 SCF Done:  E(RB3LYP) =  -495.820888730     A.U. after   13 cycles
 SCF Done:  E(RB3LYP) =  -495.831001231     A.U. after   14 cycles
 SCF Done:  E(RB3LYP) =  -495.831420711     A.U. after   14 cycles
 SCF Done:  E(RB3LYP) =  -495.834314539     A.U. after   13 cycles
 SCF Done:  E(RB3LYP) =  -495.835021778     A.U. after   12 cycles
 SCF Done:  E(RB3LYP) =  -495.835520085     A.U. after   13 cycles
 SCF Done:  E(RB3LYP) =  -495.833050563     A.U. after   13 cycles
 SCF Done:  E(RB3LYP) =  -495.835623146     A.U. after   13 cycles
 SCF Done:  E(RB3LYP) =  -495.835894218     A.U. after   12 cycles
 SCF Done:  E(RB3LYP) =  -495.836238051     A.U. after   12 cycles
 SCF Done:  E(RB3LYP) =  -495.836264204     A.U. after   11 cycles
 SCF Done:  E(RB3LYP) =  -495.836272388     A.U. after   10 cycles
 SCF Done:  E(RB3LYP) =  -495.836273936     A.U. after    9 cycles
 SCF Done:  E(RB3LYP) =  -495.836275108     A.U. after    9 cycles
 SCF Done:  E(RB3LYP) =  -495.836275527     A.U. after    9 cycles
 SCF Done:  E(RB3LYP) =  -495.836276007     A.U. after    9 cycles
 SCF Done:  E(RB3LYP) =  -495.836276213     A.U. after    9 cycles
 SCF Done:  E(RB3LYP) =  -495.836276294     A.U. after    7 cycles
 SCF Done:  E(RB3LYP) =  -495.836276504     A.U. after    9 cycles
 Optimization completed.
    -- Stationary point found.

                         Standard orientation:
 ---------------------------------------------------------------------
 Center     Atomic      Atomic             Coordinates (Angstroms)
 Number     Number       Type             X           Y           Z
 ---------------------------------------------------------------------
      1          1           0       -3.864185   -1.646421   -0.081577
      2          6           0       -2.806783   -1.718397    0.182518
      3          1           0       -2.339797   -2.512274   -0.410161
      4          1           0       -2.745701   -1.995622    1.241135
      5          6           0       -2.167665   -0.343851   -0.005192
      6          8           0       -2.768152    0.678903    0.286200
      7          7           0       -0.892015   -0.393237   -0.517249
      8          1           0       -0.519801   -1.320628   -0.671539
      9          6           0        0.104843    0.680055   -0.657136
     10          1           0        0.386818    0.722616   -1.721643
     11          6           0       -0.353750    2.071648   -0.224479
     12          1           0       -0.566000    2.091959    0.844221
     13          1           0        0.461308    2.774909   -0.431147
     14          1           0       -1.245741    2.384237   -0.766205
     15          6           0        1.344493    0.253802    0.167368
     16          8           0        1.447305    0.482016    1.363366
     17          7           0        2.266446   -0.471664   -0.542295
     18          1           0        2.184734   -0.492119   -1.549266
     19          6           0        3.503709   -0.948595    0.054604
     20          1           0        3.393481   -0.872222    1.137061
     21          1           0        3.686980   -1.992480   -0.221227
     22          1           0        4.364576   -0.342964   -0.255468
 ---------------------------------------------------------------------

 The electronic state is 1-A.
 Alpha  occ. eigenvalues --  -19.11752 -19.10235 -14.37372 -14.36234 -10.28971
 Alpha  occ. eigenvalues --  -10.28563 -10.24256 -10.22582 -10.18883 -10.17064
 Alpha  occ. eigenvalues --   -1.03828  -1.02244  -0.93077  -0.91912  -0.77973
 Alpha  occ. eigenvalues --   -0.72492  -0.71456  -0.64494  -0.59242  -0.56347
 Alpha  occ. eigenvalues --   -0.53512  -0.50228  -0.47711  -0.46300  -0.45332
 Alpha  occ. eigenvalues --   -0.43840  -0.42284  -0.40667  -0.39844  -0.39609
 Alpha  occ. eigenvalues --   -0.38423  -0.37245  -0.36905  -0.35807  -0.35181
 Alpha  occ. eigenvalues --   -0.27330  -0.26187  -0.23954  -0.23716
 Alpha virt. eigenvalues --    0.01141   0.04172   0.05451   0.08436   0.11515
 Alpha virt. eigenvalues --    0.12932   0.13677   0.14787   0.15640   0.15912
 Alpha virt. eigenvalues --    0.17147   0.17683   0.18356   0.19213   0.19658

 Mulliken atomic charges:
              1
     1  H    0.185869
     2  C   -0.539800
     3  H    0.140712
     4  H    0.187123
     5  C    0.599115
     6  O   -0.499756
     7  N   -0.596801
     8  H    0.318743
     9  C   -0.021913
    10  H    0.127231
    11  C   -0.432079
    12  H    0.194684
    13  H    0.134912
    14  H    0.173231
    15  C    0.586035
    16  O   -0.502453
    17  N   -0.592584
    18  H    0.323871
    19  C   -0.312049
    20  H    0.207077
    21  H    0.156865
    22  H    0.161968
 Sum of Mulliken atomic charges =   0.00000

 Dipole moment (field-independent basis, Debye):
    X=              3.1849    Y=             -3.3670    Z=             -3.8052  Tot=              5.9967
 Quadrupole moment (field-independent basis, Debye-Ang):
   XX=            -60.4443   YY=            -56.9896   ZZ=            -60.9713
   XY=              3.2265   XZ=             -4.2529   YZ=             -1.5193

 Normal termination of Gaussian 09 at Fri Feb 10 19:30:37 2017.
