 Gaussian 09, Revision A.02,
 Gaussian 09:  EM64L-G09RevA.02 11-Jun-2009

 ----------------------------------------------------------------------
 # b3lyp/6-31G* Opt=(ModRedundant, maxcycles=1000, calcfc) geom=nocrowd
 ----------------------------------------------------------------------

 ------------------
 Phi Psi fixed scan
 ------------------
 Symbolic Z-matrix:
 Charge =  0 Multiplicity = 1

 SCF Done:  E(RB3LYP) =  -495.816297629     A.U. after   14 cycles

  Exact polarizability:   0.000   0.000   0.000   0.000   0.000   0.000
 Approx polarizability: 118.915  -5.877 119.632 -10.948   0.055  97.197

 SCF Done:  E(RB3LYP) =  -495.825486877     A.U. after   13 cycles
 SCF Done:  E(RB3LYP) =  -495.834866097     A.U. after   13 cycles
 SCF Done:  E(RB3LYP) =  -495.834138909     A.U. after   13 cycles
 SCF Done:  E(RB3LYP) =  -495.837318310     A.U. after   13 cycles
 SCF Done:  E(RB3LYP) =  -495.838130652     A.U. after   11 cycles
 SCF Done:  E(RB3LYP) =  -495.839236438     A.U. after   12 cycles
 SCF Done:  E(RB3LYP) =  -495.839615113     A.U. after   12 cycles
 SCF Done:  E(RB3LYP) =  -495.840287317     A.U. after   12 cycles
 SCF Done:  E(RB3LYP) =  -495.840161546     A.U. after   13 cycles
 SCF Done:  E(RB3LYP) =  -495.840684134     A.U. after   12 cycles
 SCF Done:  E(RB3LYP) =  -495.840672119     A.U. after   12 cycles
 SCF Done:  E(RB3LYP) =  -495.840710426     A.U. after   12 cycles
 SCF Done:  E(RB3LYP) =  -495.840787645     A.U. after   11 cycles
 SCF Done:  E(RB3LYP) =  -495.840824148     A.U. after   11 cycles
 SCF Done:  E(RB3LYP) =  -495.840837841     A.U. after   11 cycles
 SCF Done:  E(RB3LYP) =  -495.840846023     A.U. after   10 cycles
 SCF Done:  E(RB3LYP) =  -495.840847172     A.U. after    9 cycles
 SCF Done:  E(RB3LYP) =  -495.840847240     A.U. after    7 cycles
 SCF Done:  E(RB3LYP) =  -495.840847262     A.U. after    6 cycles
 Optimization completed.
    -- Stationary point found.

                         Standard orientation:
 ---------------------------------------------------------------------
 Center     Atomic      Atomic             Coordinates (Angstroms)
 Number     Number       Type             X           Y           Z
 ---------------------------------------------------------------------
      1          1           0        4.119910   -1.087425   -0.317745
      2          6           0        3.086416   -1.344671   -0.081860
      3          1           0        3.055812   -1.924871    0.846925
      4          1           0        2.686429   -1.975015   -0.885519
      5          6           0        2.272584   -0.057842    0.017871
      6          8           0        2.689664    1.005203   -0.418495
      7          7           0        1.070465   -0.226423    0.675045
      8          1           0        0.805643   -1.201915    0.766514
      9          6           0       -0.121433    0.614902    0.583314
     10          1           0       -0.394188    0.939666    1.599682
     11          6           0        0.017338    1.874007   -0.291610
     12          1           0        0.224937    1.613042   -1.331998
     13          1           0       -0.919328    2.442068   -0.256593
     14          1           0        0.830319    2.507456    0.059997
     15          6           0       -1.276677   -0.279829    0.062656
     16          8           0       -1.072475   -1.396235   -0.403365
     17          7           0       -2.521967    0.248526    0.218334
     18          1           0       -2.606471    1.182095    0.594634
     19          6           0       -3.727091   -0.423419   -0.238134
     20          1           0       -3.442248   -1.428428   -0.551268
     21          1           0       -4.462266   -0.491507    0.571244
     22          1           0       -4.182364    0.099482   -1.088063
 ---------------------------------------------------------------------

 The electronic state is 1-A.
 Alpha  occ. eigenvalues --  -19.12411 -19.10219 -14.37387 -14.34800 -10.29473
 Alpha  occ. eigenvalues --  -10.28064 -10.24242 -10.22694 -10.18471 -10.18151
 Alpha  occ. eigenvalues --   -1.04403  -1.01975  -0.93163  -0.91438  -0.78125
 Alpha  occ. eigenvalues --   -0.72479  -0.70979  -0.65034  -0.59682  -0.54984
 Alpha  occ. eigenvalues --   -0.53709  -0.49706  -0.47452  -0.45982  -0.44854
 Alpha  occ. eigenvalues --   -0.44025  -0.42746  -0.40855  -0.40355  -0.39976
 Alpha  occ. eigenvalues --   -0.38763  -0.38138  -0.36932  -0.36439  -0.34670
 Alpha  occ. eigenvalues --   -0.26473  -0.26326  -0.24952  -0.23494
 Alpha virt. eigenvalues --    0.01771   0.03374   0.06044   0.10046   0.11317
 Alpha virt. eigenvalues --    0.13633   0.14380   0.14620   0.15221   0.15951
 Alpha virt. eigenvalues --    0.16456   0.17279   0.18354   0.18893   0.19014

 Mulliken atomic charges:
              1
     1  H    0.182139
     2  C   -0.547119
     3  H    0.160580
     4  H    0.181487
     5  C    0.580976
     6  O   -0.502453
     7  N   -0.591491
     8  H    0.335718
     9  C   -0.027027
    10  H    0.150852
    11  C   -0.438760
    12  H    0.174734
    13  H    0.120435
    14  H    0.196900
    15  C    0.583467
    16  O   -0.521250
    17  N   -0.586271
    18  H    0.329629
    19  C   -0.311569
    20  H    0.206475
    21  H    0.159870
    22  H    0.162678
 Sum of Mulliken atomic charges =   0.00000

 Dipole moment (field-independent basis, Debye):
    X=             -3.9029    Y=              0.2375    Z=              1.6636  Tot=              4.2493
 Quadrupole moment (field-independent basis, Debye-Ang):
   XX=            -55.5332   YY=            -61.0436   ZZ=            -60.1975
   XY=            -10.8931   XZ=              0.4109   YZ=              0.3376

 Normal termination of Gaussian 09 at Fri Feb 10 19:05:05 2017.
