 Gaussian 09, Revision A.02,
 Gaussian 09:  EM64L-G09RevA.02 11-Jun-2009

 ----------------------------------------------------------------------
 # b3lyp/6-31G* Opt=(ModRedundant, maxcycles=1000, calcfc) geom=nocrowd
 ----------------------------------------------------------------------

 ------------------
 Phi Psi fixed scan
 ------------------
 Symbolic Z-matrix:
 Charge =  0 Multiplicity = 1

 SCF Done:  E(RB3LYP) =  -495.813203571     A.U. after   16 cycles

  Exact polarizability:   0.000   0.000   0.000   0.000   0.000   0.000
 Approx polarizability: 114.714  -4.451 127.748  -7.174  -6.804  95.290

 SCF Done:  E(RB3LYP) =  -495.823945422     A.U. after   17 cycles
 SCF Done:  E(RB3LYP) =  -495.835441459     A.U. after   14 cycles
 SCF Done:  E(RB3LYP) =  -495.832963290     A.U. after   13 cycles
 SCF Done:  E(RB3LYP) =  -495.837992847     A.U. after   13 cycles
 SCF Done:  E(RB3LYP) =  -495.839029349     A.U. after   12 cycles
 SCF Done:  E(RB3LYP) =  -495.840350792     A.U. after   13 cycles
 SCF Done:  E(RB3LYP) =  -495.840569583     A.U. after   12 cycles
 SCF Done:  E(RB3LYP) =  -495.840636890     A.U. after   12 cycles
 SCF Done:  E(RB3LYP) =  -495.841116638     A.U. after   12 cycles
 SCF Done:  E(RB3LYP) =  -495.838805898     A.U. after   14 cycles
 SCF Done:  E(RB3LYP) =  -495.841357253     A.U. after   13 cycles
 SCF Done:  E(RB3LYP) =  -495.841379768     A.U. after   11 cycles
 SCF Done:  E(RB3LYP) =  -495.841384316     A.U. after   11 cycles
 SCF Done:  E(RB3LYP) =  -495.841396111     A.U. after    9 cycles
 SCF Done:  E(RB3LYP) =  -495.841397812     A.U. after    9 cycles
 SCF Done:  E(RB3LYP) =  -495.841398866     A.U. after    7 cycles
 SCF Done:  E(RB3LYP) =  -495.841399072     A.U. after    7 cycles
 SCF Done:  E(RB3LYP) =  -495.841399209     A.U. after    7 cycles
 SCF Done:  E(RB3LYP) =  -495.841399224     A.U. after    7 cycles
 Optimization completed.
    -- Stationary point found.

                         Standard orientation:
 ---------------------------------------------------------------------
 Center     Atomic      Atomic             Coordinates (Angstroms)
 Number     Number       Type             X           Y           Z
 ---------------------------------------------------------------------
      1          1           0       -3.647315   -1.683718    0.445385
      2          6           0       -3.102525   -1.248982   -0.394899
      3          1           0       -3.823112   -0.702836   -1.015342
      4          1           0       -2.669015   -2.051956   -1.000996
      5          6           0       -2.067261   -0.269193    0.152352
      6          8           0       -2.265642    0.366030    1.174638
      7          7           0       -0.913201   -0.193802   -0.605323
      8          1           0       -0.946870   -0.716483   -1.471261
      9          6           0        0.124865    0.854771   -0.593643
     10          1           0        0.237561    1.182762   -1.635882
     11          6           0       -0.196758    2.101959    0.238380
     12          1           0       -0.303422    1.868840    1.297436
     13          1           0        0.630682    2.801937    0.101402
     14          1           0       -1.125715    2.566858   -0.101124
     15          6           0        1.527245    0.316381   -0.217919
     16          8           0        2.493953    1.069567   -0.234559
     17          7           0        1.604430   -1.017254    0.042853
     18          1           0        0.727844   -1.504597    0.168882
     19          6           0        2.840757   -1.648632    0.468043
     20          1           0        3.661131   -0.980754    0.201197
     21          1           0        2.862326   -1.815240    1.552723
     22          1           0        2.972885   -2.610018   -0.039642
 ---------------------------------------------------------------------

 The electronic state is 1-A.
 Alpha  occ. eigenvalues --  -19.11735 -19.10703 -14.37255 -14.36050 -10.29820
 Alpha  occ. eigenvalues --  -10.28178 -10.24225 -10.21779 -10.20053 -10.17295
 Alpha  occ. eigenvalues --   -1.03782  -1.02719  -0.93523  -0.91388  -0.78165
 Alpha  occ. eigenvalues --   -0.73160  -0.71043  -0.64663  -0.58679  -0.56631
 Alpha  occ. eigenvalues --   -0.53507  -0.51169  -0.47379  -0.45511  -0.45198
 Alpha  occ. eigenvalues --   -0.44468  -0.42137  -0.41367  -0.40646  -0.39485
 Alpha  occ. eigenvalues --   -0.38930  -0.37809  -0.36582  -0.36174  -0.34699
 Alpha  occ. eigenvalues --   -0.28116  -0.25383  -0.25132  -0.23694
 Alpha virt. eigenvalues --    0.01788   0.02862   0.05536   0.09962   0.11526
 Alpha virt. eigenvalues --    0.13092   0.13699   0.13832   0.15809   0.16377
 Alpha virt. eigenvalues --    0.16971   0.17651   0.18200   0.18419   0.19010

 Mulliken atomic charges:
              1
     1  H    0.190907
     2  C   -0.544071
     3  H    0.185125
     4  H    0.146808
     5  C    0.586665
     6  O   -0.486095
     7  N   -0.635883
     8  H    0.325618
     9  C   -0.035777
    10  H    0.168784
    11  C   -0.440336
    12  H    0.183646
    13  H    0.173971
    14  H    0.151968
    15  C    0.602210
    16  O   -0.524096
    17  N   -0.590982
    18  H    0.334624
    19  C   -0.309255
    20  H    0.201764
    21  H    0.161556
    22  H    0.152851
 Sum of Mulliken atomic charges =   0.00000

 Dipole moment (field-independent basis, Debye):
    X=             -1.4473    Y=             -3.7789    Z=             -2.6000  Tot=              4.8098
 Quadrupole moment (field-independent basis, Debye-Ang):
   XX=            -66.2332   YY=            -57.0615   ZZ=            -59.7901
   XY=             -3.3725   XZ=              8.0349   YZ=             -0.9724

 Normal termination of Gaussian 09 at Fri Feb 10 19:02:31 2017.
