 Gaussian 09, Revision A.02,
 Gaussian 09:  EM64L-G09RevA.02 11-Jun-2009

 ----------------------------------------------------------------------
 # b3lyp/6-31G* Opt=(ModRedundant, maxcycles=1000, calcfc) geom=nocrowd
 ----------------------------------------------------------------------

 ------------------
 Phi Psi fixed scan
 ------------------
 Symbolic Z-matrix:
 Charge =  0 Multiplicity = 1

 SCF Done:  E(RB3LYP) =  -495.811490415     A.U. after   15 cycles

  Exact polarizability:   0.000   0.000   0.000   0.000   0.000   0.000
 Approx polarizability: 108.813  -8.938 122.012  -6.248  18.847 106.382

 SCF Done:  E(RB3LYP) =  -495.822616166     A.U. after   13 cycles
 SCF Done:  E(RB3LYP) =  -495.834946087     A.U. after   13 cycles
 SCF Done:  E(RB3LYP) =  -495.837301525     A.U. after   15 cycles
 SCF Done:  E(RB3LYP) =  -495.829059479     A.U. after   15 cycles
 SCF Done:  E(RB3LYP) =  -495.838531207     A.U. after   13 cycles
 SCF Done:  E(RB3LYP) =  -495.838950926     A.U. after   12 cycles
 SCF Done:  E(RB3LYP) =  -495.839437872     A.U. after   12 cycles
 SCF Done:  E(RB3LYP) =  -495.839473152     A.U. after   12 cycles
 SCF Done:  E(RB3LYP) =  -495.839579303     A.U. after   12 cycles
 SCF Done:  E(RB3LYP) =  -495.839899763     A.U. after   10 cycles
 SCF Done:  E(RB3LYP) =  -495.839936983     A.U. after   11 cycles
 SCF Done:  E(RB3LYP) =  -495.839965196     A.U. after   12 cycles
 SCF Done:  E(RB3LYP) =  -495.839975194     A.U. after    9 cycles
 SCF Done:  E(RB3LYP) =  -495.839962428     A.U. after   10 cycles
 SCF Done:  E(RB3LYP) =  -495.839974424     A.U. after   10 cycles
 SCF Done:  E(RB3LYP) =  -495.839982565     A.U. after   11 cycles
 SCF Done:  E(RB3LYP) =  -495.839982711     A.U. after   10 cycles
 SCF Done:  E(RB3LYP) =  -495.839984035     A.U. after   10 cycles
 SCF Done:  E(RB3LYP) =  -495.839984096     A.U. after    7 cycles
 Optimization completed.
    -- Stationary point found.

                         Standard orientation:
 ---------------------------------------------------------------------
 Center     Atomic      Atomic             Coordinates (Angstroms)
 Number     Number       Type             X           Y           Z
 ---------------------------------------------------------------------
      1          1           0        3.998464   -0.894759    0.384977
      2          6           0        3.070591   -1.339928    0.009867
      3          1           0        2.741459   -2.108536    0.716178
      4          1           0        3.298431   -1.808863   -0.951023
      5          6           0        2.054202   -0.225770   -0.222756
      6          8           0        2.206161    0.591264   -1.122756
      7          7           0        0.998724   -0.235581    0.649765
      8          1           0        0.970448   -0.984932    1.327746
      9          6           0       -0.094480    0.737434    0.809271
     10          1           0       -0.144946    0.969266    1.879368
     11          6           0        0.073221    2.057891    0.053959
     12          1           0        0.142785    1.938196   -1.027462
     13          1           0       -0.780568    2.700543    0.295626
     14          1           0        0.989020    2.562890    0.370135
     15          6           0       -1.415294   -0.024240    0.547651
     16          8           0       -1.981312   -0.609294    1.465560
     17          7           0       -1.850330   -0.039361   -0.742115
     18          1           0       -1.274558    0.398956   -1.446684
     19          6           0       -3.001136   -0.815168   -1.170932
     20          1           0       -3.531367   -1.139066   -0.274495
     21          1           0       -3.668883   -0.204844   -1.788366
     22          1           0       -2.700459   -1.701336   -1.744342
 ---------------------------------------------------------------------

 The electronic state is 1-A.
 Alpha  occ. eigenvalues --  -19.11245 -19.10721 -14.36606 -14.36460 -10.29069
 Alpha  occ. eigenvalues --  -10.28506 -10.24071 -10.21973 -10.19290 -10.18637
 Alpha  occ. eigenvalues --   -1.03351  -1.02613  -0.92694  -0.91920  -0.78369
 Alpha  occ. eigenvalues --   -0.72939  -0.70788  -0.65719  -0.58908  -0.56697
 Alpha  occ. eigenvalues --   -0.53298  -0.51021  -0.46743  -0.45604  -0.44854
 Alpha  occ. eigenvalues --   -0.44255  -0.42432  -0.41373  -0.40241  -0.39758
 Alpha  occ. eigenvalues --   -0.39081  -0.38188  -0.37437  -0.36278  -0.35481
 Alpha  occ. eigenvalues --   -0.27006  -0.25390  -0.24533  -0.23822
 Alpha virt. eigenvalues --    0.01618   0.03732   0.06879   0.08184   0.11464
 Alpha virt. eigenvalues --    0.12415   0.13718   0.15345   0.15714   0.16207
 Alpha virt. eigenvalues --    0.16713   0.17773   0.18095   0.18794   0.19288

 Mulliken atomic charges:
              1
     1  H    0.185505
     2  C   -0.535528
     3  H    0.145723
     4  H    0.185252
     5  C    0.590691
     6  O   -0.514960
     7  N   -0.603023
     8  H    0.334172
     9  C   -0.030834
    10  H    0.168062
    11  C   -0.454735
    12  H    0.173831
    13  H    0.150961
    14  H    0.171680
    15  C    0.588271
    16  O   -0.520797
    17  N   -0.582413
    18  H    0.338178
    19  C   -0.310873
    20  H    0.202879
    21  H    0.158336
    22  H    0.159621
 Sum of Mulliken atomic charges =   0.00000

 Dipole moment (field-independent basis, Debye):
    X=              0.0094    Y=             -0.6796    Z=             -0.5303  Tot=              0.8621
 Quadrupole moment (field-independent basis, Debye-Ang):
   XX=            -61.5434   YY=            -57.7919   ZZ=            -61.9619
   XY=             -6.1197   XZ=             12.8628   YZ=              3.1083

 Normal termination of Gaussian 09 at Fri Feb 10 19:37:45 2017.
