 Gaussian 09, Revision A.02,
 Gaussian 09:  EM64L-G09RevA.02 11-Jun-2009

 ----------------------------------------------------------------------
 # b3lyp/6-31G* Opt=(ModRedundant, maxcycles=1000, calcfc) geom=nocrowd
 ----------------------------------------------------------------------

 ------------------
 Phi Psi fixed scan
 ------------------
 Symbolic Z-matrix:
 Charge =  0 Multiplicity = 1

 SCF Done:  E(RB3LYP) =  -495.807404729     A.U. after   15 cycles

  Exact polarizability:   0.000   0.000   0.000   0.000   0.000   0.000
 Approx polarizability: 112.399   1.775 132.100  -3.943 -14.731  92.806

 SCF Done:  E(RB3LYP) =  -495.817929523     A.U. after   14 cycles
 SCF Done:  E(RB3LYP) =  -495.830023779     A.U. after   14 cycles
 SCF Done:  E(RB3LYP) =  -495.830305361     A.U. after   14 cycles
 SCF Done:  E(RB3LYP) =  -495.833787955     A.U. after   13 cycles
 SCF Done:  E(RB3LYP) =  -495.834896839     A.U. after   12 cycles
 SCF Done:  E(RB3LYP) =  -495.835756186     A.U. after   13 cycles
 SCF Done:  E(RB3LYP) =  -495.835930879     A.U. after   16 cycles
 SCF Done:  E(RB3LYP) =  -495.827574839     A.U. after   16 cycles
 SCF Done:  E(RB3LYP) =  -495.836013959     A.U. after   16 cycles
 SCF Done:  E(RB3LYP) =  -495.837324200     A.U. after   12 cycles
 SCF Done:  E(RB3LYP) =  -495.837327428     A.U. after   10 cycles
 SCF Done:  E(RB3LYP) =  -495.837327817     A.U. after    7 cycles
 SCF Done:  E(RB3LYP) =  -495.837327993     A.U. after    7 cycles
 SCF Done:  E(RB3LYP) =  -495.837328342     A.U. after    8 cycles
 SCF Done:  E(RB3LYP) =  -495.837329240     A.U. after    8 cycles
 SCF Done:  E(RB3LYP) =  -495.837329627     A.U. after    8 cycles
 SCF Done:  E(RB3LYP) =  -495.837329719     A.U. after    7 cycles
 SCF Done:  E(RB3LYP) =  -495.837329848     A.U. after    8 cycles
 SCF Done:  E(RB3LYP) =  -495.837329869     A.U. after    7 cycles
 Optimization completed.
    -- Stationary point found.

                         Standard orientation:
 ---------------------------------------------------------------------
 Center     Atomic      Atomic             Coordinates (Angstroms)
 Number     Number       Type             X           Y           Z
 ---------------------------------------------------------------------
      1          1           0       -3.730043   -1.597562    0.648304
      2          6           0       -3.094135   -1.367122   -0.208180
      3          1           0       -3.732884   -0.974846   -1.009045
      4          1           0       -2.622175   -2.287923   -0.568140
      5          6           0       -2.086032   -0.299421    0.209480
      6          8           0       -2.325967    0.498415    1.099053
      7          7           0       -0.893942   -0.352995   -0.495378
      8          1           0       -0.936928   -0.972793   -1.295277
      9          6           0        0.100738    0.731774   -0.662768
     10          1           0        0.263144    0.816462   -1.747040
     11          6           0       -0.324207    2.110229   -0.154268
     12          1           0       -0.485516    2.113490    0.922605
     13          1           0        0.476009    2.812783   -0.395748
     14          1           0       -1.248982    2.432111   -0.640496
     15          6           0        1.491760    0.339270   -0.099414
     16          8           0        2.310614    1.191681    0.216985
     17          7           0        1.784149   -0.996440   -0.152118
     18          1           0        0.988121   -1.620502   -0.139600
     19          6           0        3.044380   -1.501709    0.371035
     20          1           0        3.819374   -0.762560    0.163609
     21          1           0        3.010655   -1.668387    1.456034
     22          1           0        3.295574   -2.443120   -0.126358
 ---------------------------------------------------------------------

 The electronic state is 1-A.
 Alpha  occ. eigenvalues --  -19.11777 -19.11192 -14.37144 -14.35956 -10.29718
 Alpha  occ. eigenvalues --  -10.28281 -10.24291 -10.21773 -10.19993 -10.16947
 Alpha  occ. eigenvalues --   -1.03779  -1.03030  -0.93428  -0.91358  -0.78069
 Alpha  occ. eigenvalues --   -0.73065  -0.70956  -0.64368  -0.58785  -0.56139
 Alpha  occ. eigenvalues --   -0.53226  -0.51139  -0.47337  -0.45667  -0.45119
 Alpha  occ. eigenvalues --   -0.44574  -0.42090  -0.41441  -0.40569  -0.39278
 Alpha  occ. eigenvalues --   -0.38341  -0.37848  -0.36347  -0.36079  -0.35120
 Alpha  occ. eigenvalues --   -0.28461  -0.25489  -0.25159  -0.23759
 Alpha virt. eigenvalues --    0.01628   0.02007   0.05423   0.10221   0.11262
 Alpha virt. eigenvalues --    0.12676   0.13664   0.14198   0.15369   0.16358
 Alpha virt. eigenvalues --    0.17047   0.17847   0.17973   0.18826   0.19144

 Mulliken atomic charges:
              1
     1  H    0.192440
     2  C   -0.547143
     3  H    0.181407
     4  H    0.149587
     5  C    0.589397
     6  O   -0.481093
     7  N   -0.624220
     8  H    0.322419
     9  C   -0.057916
    10  H    0.167658
    11  C   -0.434267
    12  H    0.190705
    13  H    0.169466
    14  H    0.143211
    15  C    0.612972
    16  O   -0.512005
    17  N   -0.592574
    18  H    0.326974
    19  C   -0.306084
    20  H    0.196486
    21  H    0.161734
    22  H    0.150847
 Sum of Mulliken atomic charges =   0.00000

 Dipole moment (field-independent basis, Debye):
    X=             -0.9013    Y=             -4.3517    Z=             -3.2043  Tot=              5.4788
 Quadrupole moment (field-independent basis, Debye-Ang):
   XX=            -64.1979   YY=            -57.6711   ZZ=            -59.9392
   XY=             -2.3783   XZ=              5.4049   YZ=             -1.8972

 Normal termination of Gaussian 09 at Fri Feb 10 19:20:36 2017.
