 Gaussian 09, Revision A.02,
 Gaussian 09:  EM64L-G09RevA.02 11-Jun-2009

 ----------------------------------------------------------------------
 # b3lyp/6-31G* Opt=(ModRedundant, maxcycles=1000, calcfc) geom=nocrowd
 ----------------------------------------------------------------------

 ------------------
 Phi Psi fixed scan
 ------------------
 Symbolic Z-matrix:
 Charge =  0 Multiplicity = 1

 SCF Done:  E(RB3LYP) =  -495.810938382     A.U. after   15 cycles

  Exact polarizability:   0.000   0.000   0.000   0.000   0.000   0.000
 Approx polarizability: 108.865  -5.174 131.414  -2.347  16.510  97.119

 SCF Done:  E(RB3LYP) =  -495.822342558     A.U. after   13 cycles
 SCF Done:  E(RB3LYP) =  -495.834628555     A.U. after   16 cycles
 SCF Done:  E(RB3LYP) =  -495.838086888     A.U. after   15 cycles
 SCF Done:  E(RB3LYP) =  -495.832535917     A.U. after   15 cycles
 SCF Done:  E(RB3LYP) =  -495.839097214     A.U. after   13 cycles
 SCF Done:  E(RB3LYP) =  -495.839527181     A.U. after   12 cycles
 SCF Done:  E(RB3LYP) =  -495.840096537     A.U. after   12 cycles
 SCF Done:  E(RB3LYP) =  -495.840175625     A.U. after   12 cycles
 SCF Done:  E(RB3LYP) =  -495.840190755     A.U. after   12 cycles
 SCF Done:  E(RB3LYP) =  -495.840398886     A.U. after   12 cycles
 SCF Done:  E(RB3LYP) =  -495.840412362     A.U. after   12 cycles
 SCF Done:  E(RB3LYP) =  -495.840449605     A.U. after   11 cycles
 SCF Done:  E(RB3LYP) =  -495.840480581     A.U. after   11 cycles
 SCF Done:  E(RB3LYP) =  -495.840494716     A.U. after   11 cycles
 SCF Done:  E(RB3LYP) =  -495.840507446     A.U. after   11 cycles
 SCF Done:  E(RB3LYP) =  -495.840515223     A.U. after   11 cycles
 SCF Done:  E(RB3LYP) =  -495.840515299     A.U. after    7 cycles
 SCF Done:  E(RB3LYP) =  -495.840515806     A.U. after    7 cycles
 SCF Done:  E(RB3LYP) =  -495.840516065     A.U. after    7 cycles
 Optimization completed.
    -- Stationary point found.

                         Standard orientation:
 ---------------------------------------------------------------------
 Center     Atomic      Atomic             Coordinates (Angstroms)
 Number     Number       Type             X           Y           Z
 ---------------------------------------------------------------------
      1          1           0       -4.035051   -0.993593    0.036401
      2          6           0       -3.044245   -1.322557    0.365168
      3          1           0       -2.748248   -2.196391   -0.223507
      4          1           0       -3.130547   -1.613378    1.416429
      5          6           0       -2.084052   -0.140079    0.265460
      6          8           0       -2.283199    0.888386    0.900761
      7          7           0       -1.029305   -0.346285   -0.581844
      8          1           0       -0.939282   -1.264054   -0.997001
      9          6           0        0.087549    0.545237   -0.929971
     10          1           0        0.145506    0.557656   -2.025553
     11          6           0       -0.050669    1.991388   -0.451867
     12          1           0       -0.146098    2.079772    0.631617
     13          1           0        0.823566    2.555921   -0.795885
     14          1           0       -0.946641    2.449489   -0.875759
     15          6           0        1.372165   -0.206275   -0.505969
     16          8           0        1.731465   -1.185872   -1.154057
     17          7           0        1.997455    0.224497    0.621028
     18          1           0        1.613868    1.017772    1.113108
     19          6           0        3.158216   -0.447541    1.179556
     20          1           0        3.437468   -1.244638    0.489500
     21          1           0        3.998016    0.247828    1.289395
     22          1           0        2.930487   -0.885023    2.159070
 ---------------------------------------------------------------------

 The electronic state is 1-A.
 Alpha  occ. eigenvalues --  -19.11335 -19.10345 -14.36854 -14.36242 -10.28755
 Alpha  occ. eigenvalues --  -10.28752 -10.24147 -10.22186 -10.18969 -10.18734
 Alpha  occ. eigenvalues --   -1.03490  -1.02311  -0.92597  -0.92062  -0.78347
 Alpha  occ. eigenvalues --   -0.72761  -0.70911  -0.65815  -0.59227  -0.56365
 Alpha  occ. eigenvalues --   -0.53383  -0.50982  -0.46636  -0.45789  -0.44956
 Alpha  occ. eigenvalues --   -0.44144  -0.42510  -0.41307  -0.40053  -0.39832
 Alpha  occ. eigenvalues --   -0.38871  -0.38446  -0.37593  -0.36216  -0.35211
 Alpha  occ. eigenvalues --   -0.26765  -0.25733  -0.24157  -0.23872
 Alpha virt. eigenvalues --    0.01666   0.04001   0.07167   0.08375   0.11253
 Alpha virt. eigenvalues --    0.12500   0.13962   0.15072   0.15833   0.16137
 Alpha virt. eigenvalues --    0.16862   0.17834   0.18182   0.18519   0.19233

 Mulliken atomic charges:
              1
     1  H    0.185078
     2  C   -0.534116
     3  H    0.145650
     4  H    0.183638
     5  C    0.591508
     6  O   -0.516117
     7  N   -0.601101
     8  H    0.336365
     9  C   -0.015406
    10  H    0.167432
    11  C   -0.467591
    12  H    0.176420
    13  H    0.145881
    14  H    0.178309
    15  C    0.588855
    16  O   -0.528457
    17  N   -0.586261
    18  H    0.336793
    19  C   -0.313073
    20  H    0.205184
    21  H    0.159483
    22  H    0.161525
 Sum of Mulliken atomic charges =   0.00000

 Dipole moment (field-independent basis, Debye):
    X=              1.0135    Y=              0.0381    Z=              0.5918  Tot=              1.1742
 Quadrupole moment (field-independent basis, Debye-Ang):
   XX=            -59.6468   YY=            -60.1943   ZZ=            -60.3315
   XY=             10.1057   XZ=              9.8111   YZ=             -3.9578

 Normal termination of Gaussian 09 at Fri Feb 10 19:14:10 2017.
