 Gaussian 09, Revision A.02,
 Gaussian 09:  EM64L-G09RevA.02 11-Jun-2009

 ----------------------------------------------------------------------
 # b3lyp/6-31G* Opt=(ModRedundant, maxcycles=1000, calcfc) geom=nocrowd
 ----------------------------------------------------------------------

 ------------------
 Phi Psi fixed scan
 ------------------
 Symbolic Z-matrix:
 Charge =  0 Multiplicity = 1

 SCF Done:  E(RB3LYP) =  -495.809843929     A.U. after   16 cycles

  Exact polarizability:   0.000   0.000   0.000   0.000   0.000   0.000
 Approx polarizability: 114.280  11.779 122.120  -7.095 -18.649 101.131

 SCF Done:  E(RB3LYP) =  -495.819461529     A.U. after   16 cycles
 SCF Done:  E(RB3LYP) =  -495.829871732     A.U. after   14 cycles
 SCF Done:  E(RB3LYP) =  -495.830703594     A.U. after   13 cycles
 SCF Done:  E(RB3LYP) =  -495.833401179     A.U. after   13 cycles
 SCF Done:  E(RB3LYP) =  -495.834247303     A.U. after   12 cycles
 SCF Done:  E(RB3LYP) =  -495.834929743     A.U. after   13 cycles
 SCF Done:  E(RB3LYP) =  -495.834150065     A.U. after   13 cycles
 SCF Done:  E(RB3LYP) =  -495.835065698     A.U. after   12 cycles
 SCF Done:  E(RB3LYP) =  -495.835314488     A.U. after   11 cycles
 SCF Done:  E(RB3LYP) =  -495.835664478     A.U. after   11 cycles
 SCF Done:  E(RB3LYP) =  -495.835675399     A.U. after   10 cycles
 SCF Done:  E(RB3LYP) =  -495.835678874     A.U. after   10 cycles
 SCF Done:  E(RB3LYP) =  -495.835680778     A.U. after   10 cycles
 SCF Done:  E(RB3LYP) =  -495.835682341     A.U. after   10 cycles
 SCF Done:  E(RB3LYP) =  -495.835683660     A.U. after   10 cycles
 SCF Done:  E(RB3LYP) =  -495.835683941     A.U. after    8 cycles
 SCF Done:  E(RB3LYP) =  -495.835684071     A.U. after    7 cycles
 SCF Done:  E(RB3LYP) =  -495.835684226     A.U. after    8 cycles
 SCF Done:  E(RB3LYP) =  -495.835684254     A.U. after    7 cycles
 Optimization completed.
    -- Stationary point found.

                         Standard orientation:
 ---------------------------------------------------------------------
 Center     Atomic      Atomic             Coordinates (Angstroms)
 Number     Number       Type             X           Y           Z
 ---------------------------------------------------------------------
      1          1           0       -3.770970   -1.752905   -0.002609
      2          6           0       -2.709722   -1.773739    0.255298
      3          1           0       -2.214286   -2.563396   -0.319562
      4          1           0       -2.631338   -2.019211    1.320586
      5          6           0       -2.130204   -0.378979    0.025761
      6          8           0       -2.766451    0.624625    0.307617
      7          7           0       -0.865302   -0.388685   -0.515359
      8          1           0       -0.449438   -1.303103   -0.630475
      9          6           0        0.090377    0.722128   -0.679937
     10          1           0        0.356034    0.761375   -1.749217
     11          6           0       -0.411706    2.100432   -0.258871
     12          1           0       -0.616385    2.131478    0.810856
     13          1           0        0.376941    2.827995   -0.479886
     14          1           0       -1.318175    2.373544   -0.798072
     15          6           0        1.363906    0.344364    0.118213
     16          8           0        1.608907    0.786279    1.229642
     17          7           0        2.138019   -0.611866   -0.494841
     18          1           0        2.006090   -0.758645   -1.486770
     19          6           0        3.383849   -1.078886    0.095076
     20          1           0        3.316687   -0.928249    1.173103
     21          1           0        3.525259   -2.142923   -0.118038
     22          1           0        4.251914   -0.521259   -0.279820
 ---------------------------------------------------------------------

 The electronic state is 1-A.
 Alpha  occ. eigenvalues --  -19.12110 -19.10307 -14.37391 -14.36282 -10.29148
 Alpha  occ. eigenvalues --  -10.28635 -10.24280 -10.22672 -10.18977 -10.16938
 Alpha  occ. eigenvalues --   -1.04082  -1.02327  -0.93302  -0.91826  -0.77963
 Alpha  occ. eigenvalues --   -0.72476  -0.71569  -0.64456  -0.59217  -0.56356
 Alpha  occ. eigenvalues --   -0.53597  -0.50214  -0.47806  -0.46411  -0.45330
 Alpha  occ. eigenvalues --   -0.43922  -0.42481  -0.40722  -0.40006  -0.39633
 Alpha  occ. eigenvalues --   -0.38062  -0.37315  -0.36983  -0.35981  -0.35192
 Alpha  occ. eigenvalues --   -0.27658  -0.26472  -0.23957  -0.23767
 Alpha virt. eigenvalues --    0.00880   0.04021   0.05304   0.08699   0.11551
 Alpha virt. eigenvalues --    0.12282   0.13688   0.14657   0.15611   0.15870
 Alpha virt. eigenvalues --    0.17206   0.17621   0.18465   0.19013   0.19452

 Mulliken atomic charges:
              1
     1  H    0.186482
     2  C   -0.539808
     3  H    0.140980
     4  H    0.185873
     5  C    0.596748
     6  O   -0.498978
     7  N   -0.600444
     8  H    0.318350
     9  C   -0.027710
    10  H    0.132913
    11  C   -0.427066
    12  H    0.191158
    13  H    0.137899
    14  H    0.170982
    15  C    0.588154
    16  O   -0.496776
    17  N   -0.595272
    18  H    0.323124
    19  C   -0.309464
    20  H    0.204384
    21  H    0.155795
    22  H    0.162678
 Sum of Mulliken atomic charges =   0.00000

 Dipole moment (field-independent basis, Debye):
    X=              2.9585    Y=             -3.8374    Z=             -3.5217  Tot=              5.9900
 Quadrupole moment (field-independent basis, Debye-Ang):
   XX=            -62.3290   YY=            -57.1934   ZZ=            -60.2752
   XY=              1.6007   XZ=             -4.1532   YZ=             -2.0705

 Normal termination of Gaussian 09 at Fri Feb 10 19:22:20 2017.
