 Gaussian 09, Revision A.02,
 Gaussian 09:  EM64L-G09RevA.02 11-Jun-2009

 ----------------------------------------------------------------------
 # b3lyp/6-31G* Opt=(ModRedundant, maxcycles=1000, calcfc) geom=nocrowd
 ----------------------------------------------------------------------

 ------------------
 Phi Psi fixed scan
 ------------------
 Symbolic Z-matrix:
 Charge =  0 Multiplicity = 1

 SCF Done:  E(RB3LYP) =  -495.816143530     A.U. after   16 cycles

  Exact polarizability:   0.000   0.000   0.000   0.000   0.000   0.000
 Approx polarizability: 114.097   6.794 109.801  15.440   3.216 112.326

 SCF Done:  E(RB3LYP) =  -495.826075133     A.U. after   16 cycles
 SCF Done:  E(RB3LYP) =  -495.837186015     A.U. after   15 cycles
 SCF Done:  E(RB3LYP) =  -495.833742165     A.U. after   14 cycles
 SCF Done:  E(RB3LYP) =  -495.839647345     A.U. after   13 cycles
 SCF Done:  E(RB3LYP) =  -495.840271082     A.U. after   12 cycles
 SCF Done:  E(RB3LYP) =  -495.841057561     A.U. after   12 cycles
 SCF Done:  E(RB3LYP) =  -495.841244498     A.U. after   12 cycles
 SCF Done:  E(RB3LYP) =  -495.841551241     A.U. after   12 cycles
 SCF Done:  E(RB3LYP) =  -495.790661579     A.U. after   16 cycles
 SCF Done:  E(RB3LYP) =  -495.841701810     A.U. after    9 cycles
 SCF Done:  E(RB3LYP) =  -495.841702200     A.U. after    7 cycles
 SCF Done:  E(RB3LYP) =  -495.841703035     A.U. after    8 cycles
 SCF Done:  E(RB3LYP) =  -495.841704370     A.U. after    9 cycles
 SCF Done:  E(RB3LYP) =  -495.841705127     A.U. after    9 cycles
 SCF Done:  E(RB3LYP) =  -495.841705915     A.U. after    8 cycles
 SCF Done:  E(RB3LYP) =  -495.841706354     A.U. after    7 cycles
 SCF Done:  E(RB3LYP) =  -495.841706441     A.U. after    7 cycles
 SCF Done:  E(RB3LYP) =  -495.841706490     A.U. after    8 cycles
 SCF Done:  E(RB3LYP) =  -495.841706497     A.U. after    6 cycles
 Optimization completed.
    -- Stationary point found.

                         Standard orientation:
 ---------------------------------------------------------------------
 Center     Atomic      Atomic             Coordinates (Angstroms)
 Number     Number       Type             X           Y           Z
 ---------------------------------------------------------------------
      1          1           0       -3.612051   -1.732044    0.033054
      2          6           0       -3.140135   -1.039776   -0.667250
      3          1           0       -3.908445   -0.338142   -1.012811
      4          1           0       -2.770209   -1.596659   -1.534645
      5          6           0       -2.053871   -0.264031    0.072261
      6          8           0       -2.174938    0.039609    1.251189
      7          7           0       -0.955984    0.040606   -0.697651
      8          1           0       -0.992275   -0.277160   -1.656914
      9          6           0        0.131757    0.996013   -0.433627
     10          1           0        0.198862    1.647162   -1.312479
     11          6           0       -0.050034    1.894845    0.796864
     12          1           0       -0.065008    1.326707    1.726669
     13          1           0        0.788614    2.598387    0.814024
     14          1           0       -0.983097    2.459947    0.732964
     15          6           0        1.507264    0.294606   -0.386607
     16          8           0        2.488005    0.801513   -0.918858
     17          7           0        1.536826   -0.862028    0.331329
     18          1           0        0.666050   -1.199096    0.718117
     19          6           0        2.753006   -1.622226    0.550830
     20          1           0        3.565059   -1.086200    0.057225
     21          1           0        2.977445   -1.708385    1.620565
     22          1           0        2.676697   -2.630133    0.125019
 ---------------------------------------------------------------------

 The electronic state is 1-A.
 Alpha  occ. eigenvalues --  -19.11479 -19.10885 -14.37043 -14.36082 -10.29653
 Alpha  occ. eigenvalues --  -10.28171 -10.24033 -10.21776 -10.19876 -10.18116
 Alpha  occ. eigenvalues --   -1.03569  -1.02733  -0.93275  -0.91465  -0.78370
 Alpha  occ. eigenvalues --   -0.73235  -0.70849  -0.65186  -0.58515  -0.57071
 Alpha  occ. eigenvalues --   -0.53466  -0.50964  -0.47218  -0.45262  -0.45194
 Alpha  occ. eigenvalues --   -0.44034  -0.42493  -0.41416  -0.40695  -0.39963
 Alpha  occ. eigenvalues --   -0.38811  -0.38024  -0.37140  -0.36257  -0.35207
 Alpha  occ. eigenvalues --   -0.27534  -0.25208  -0.25071  -0.23702
 Alpha virt. eigenvalues --    0.01822   0.02981   0.06055   0.09446   0.11756
 Alpha virt. eigenvalues --    0.12493   0.13843   0.14319   0.16176   0.16368
 Alpha virt. eigenvalues --    0.16655   0.17334   0.18151   0.18278   0.18898

 Mulliken atomic charges:
              1
     1  H    0.187997
     2  C   -0.540739
     3  H    0.185722
     4  H    0.148296
     5  C    0.585357
     6  O   -0.504712
     7  N   -0.614968
     8  H    0.327552
     9  C   -0.042327
    10  H    0.167232
    11  C   -0.439626
    12  H    0.178111
    13  H    0.161950
    14  H    0.165000
    15  C    0.584211
    16  O   -0.519860
    17  N   -0.578060
    18  H    0.341231
    19  C   -0.310173
    20  H    0.202741
    21  H    0.160038
    22  H    0.155026
 Sum of Mulliken atomic charges =   0.00000

 Dipole moment (field-independent basis, Debye):
    X=             -1.5191    Y=             -2.3517    Z=             -1.4519  Tot=              3.1538
 Quadrupole moment (field-independent basis, Debye-Ang):
   XX=            -65.8395   YY=            -56.2961   ZZ=            -61.2051
   XY=             -4.0110   XZ=             12.0416   YZ=              0.5306

 Normal termination of Gaussian 09 at Fri Feb 10 19:18:04 2017.
