 Gaussian 09, Revision A.02,
 Gaussian 09:  EM64L-G09RevA.02 11-Jun-2009

 ----------------------------------------------------------------------
 # b3lyp/6-31G* Opt=(ModRedundant, maxcycles=1000, calcfc) geom=nocrowd
 ----------------------------------------------------------------------

 ------------------
 Phi Psi fixed scan
 ------------------
 Symbolic Z-matrix:
 Charge =  0 Multiplicity = 1

 SCF Done:  E(RB3LYP) =  -495.814376343     A.U. after   15 cycles

  Exact polarizability:   0.000   0.000   0.000   0.000   0.000   0.000
 Approx polarizability: 120.168  -7.368 105.714 -15.887   5.303 111.891

 SCF Done:  E(RB3LYP) =  -495.823361882     A.U. after   13 cycles
 SCF Done:  E(RB3LYP) =  -495.832835801     A.U. after   13 cycles
 SCF Done:  E(RB3LYP) =  -495.831754280     A.U. after   13 cycles
 SCF Done:  E(RB3LYP) =  -495.835499938     A.U. after   13 cycles
 SCF Done:  E(RB3LYP) =  -495.835947717     A.U. after   11 cycles
 SCF Done:  E(RB3LYP) =  -495.836508471     A.U. after   12 cycles
 SCF Done:  E(RB3LYP) =  -495.836747271     A.U. after   13 cycles
 SCF Done:  E(RB3LYP) =  -495.837019998     A.U. after   12 cycles
 SCF Done:  E(RB3LYP) =  -495.837168560     A.U. after   11 cycles
 SCF Done:  E(RB3LYP) =  -495.837389668     A.U. after   11 cycles
 SCF Done:  E(RB3LYP) =  -495.837403731     A.U. after   11 cycles
 SCF Done:  E(RB3LYP) =  -495.837406466     A.U. after    8 cycles
 SCF Done:  E(RB3LYP) =  -495.837412880     A.U. after   10 cycles
 SCF Done:  E(RB3LYP) =  -495.837417999     A.U. after   10 cycles
 SCF Done:  E(RB3LYP) =  -495.837421234     A.U. after   10 cycles
 SCF Done:  E(RB3LYP) =  -495.837422852     A.U. after   10 cycles
 SCF Done:  E(RB3LYP) =  -495.837423856     A.U. after   10 cycles
 SCF Done:  E(RB3LYP) =  -495.837424056     A.U. after   10 cycles
 SCF Done:  E(RB3LYP) =  -495.837424163     A.U. after    7 cycles
 Optimization completed.
    -- Stationary point found.

                         Standard orientation:
 ---------------------------------------------------------------------
 Center     Atomic      Atomic             Coordinates (Angstroms)
 Number     Number       Type             X           Y           Z
 ---------------------------------------------------------------------
      1          1           0       -4.067932   -1.333464   -0.140931
      2          6           0       -3.000650   -1.536853   -0.035878
      3          1           0       -2.687531   -2.244303   -0.811459
      4          1           0       -2.837669   -2.006056    0.941656
      5          6           0       -2.247072   -0.210215   -0.084861
      6          8           0       -2.758591    0.829351    0.302243
      7          7           0       -0.976350   -0.318599   -0.602844
      8          1           0       -0.682671   -1.263425   -0.812080
      9          6           0        0.126030    0.645660   -0.555694
     10          1           0        0.421806    0.862319   -1.594625
     11          6           0       -0.187520    1.977072    0.138225
     12          1           0       -0.433879    1.813835    1.188191
     13          1           0        0.707072    2.608881    0.079628
     14          1           0       -1.022546    2.489662   -0.337699
     15          6           0        1.311552   -0.022390    0.177935
     16          8           0        1.206673   -0.438431    1.323643
     17          7           0        2.455171   -0.128631   -0.563140
     18          1           0        2.469903    0.277597   -1.487673
     19          6           0        3.694653   -0.655772   -0.017847
     20          1           0        3.467675   -1.061287    0.969084
     21          1           0        4.092248   -1.453569   -0.655005
     22          1           0        4.455162    0.128042    0.084438
 ---------------------------------------------------------------------

 The electronic state is 1-A.
 Alpha  occ. eigenvalues --  -19.11550 -19.10160 -14.37300 -14.35823 -10.28881
 Alpha  occ. eigenvalues --  -10.28343 -10.24214 -10.22521 -10.18588 -10.17560
 Alpha  occ. eigenvalues --   -1.03704  -1.02094  -0.92836  -0.91859  -0.78026
 Alpha  occ. eigenvalues --   -0.72479  -0.71224  -0.64575  -0.59328  -0.56048
 Alpha  occ. eigenvalues --   -0.53541  -0.49975  -0.47583  -0.46125  -0.45147
 Alpha  occ. eigenvalues --   -0.43672  -0.42214  -0.40598  -0.39855  -0.39654
 Alpha  occ. eigenvalues --   -0.38801  -0.37504  -0.36884  -0.35877  -0.34918
 Alpha  occ. eigenvalues --   -0.26629  -0.25925  -0.24169  -0.23699
 Alpha virt. eigenvalues --    0.01565   0.03860   0.05976   0.08500   0.11528
 Alpha virt. eigenvalues --    0.13614   0.14154   0.14763   0.15571   0.15973
 Alpha virt. eigenvalues --    0.16524   0.17513   0.18222   0.19468   0.19688

 Mulliken atomic charges:
              1
     1  H    0.184687
     2  C   -0.543650
     3  H    0.145678
     4  H    0.187292
     5  C    0.599628
     6  O   -0.502010
     7  N   -0.592602
     8  H    0.322842
     9  C   -0.011160
    10  H    0.124914
    11  C   -0.436433
    12  H    0.190677
    13  H    0.131735
    14  H    0.182662
    15  C    0.572907
    16  O   -0.510565
    17  N   -0.587595
    18  H    0.326206
    19  C   -0.312415
    20  H    0.207403
    21  H    0.158200
    22  H    0.161597
 Sum of Mulliken atomic charges =   0.00000

 Dipole moment (field-independent basis, Debye):
    X=              3.5855    Y=             -1.6506    Z=             -3.7932  Tot=              5.4744
 Quadrupole moment (field-independent basis, Debye-Ang):
   XX=            -57.3184   YY=            -57.8055   ZZ=            -61.3356
   XY=              7.2254   XZ=             -3.3403   YZ=              0.4189

 Normal termination of Gaussian 09 at Fri Feb 10 19:17:42 2017.
