 Gaussian 09, Revision A.02,
 Gaussian 09:  EM64L-G09RevA.02 11-Jun-2009

 ----------------------------------------------------------------------
 # b3lyp/6-31G* Opt=(ModRedundant, maxcycles=1000, calcfc) geom=nocrowd
 ----------------------------------------------------------------------

 ------------------
 Phi Psi fixed scan
 ------------------
 Symbolic Z-matrix:
 Charge =  0 Multiplicity = 1

 SCF Done:  E(RB3LYP) =  -495.811208096     A.U. after   15 cycles

  Exact polarizability:   0.000   0.000   0.000   0.000   0.000   0.000
 Approx polarizability: 109.769  -0.354 134.103  -0.799  14.554  93.182

 SCF Done:  E(RB3LYP) =  -495.822560914     A.U. after   13 cycles
 SCF Done:  E(RB3LYP) =  -495.834713266     A.U. after   15 cycles
 SCF Done:  E(RB3LYP) =  -495.838776603     A.U. after   16 cycles
 SCF Done:  E(RB3LYP) =  -495.832569506     A.U. after   15 cycles
 SCF Done:  E(RB3LYP) =  -495.839528178     A.U. after   13 cycles
 SCF Done:  E(RB3LYP) =  -495.840027127     A.U. after   11 cycles
 SCF Done:  E(RB3LYP) =  -495.840620664     A.U. after   12 cycles
 SCF Done:  E(RB3LYP) =  -495.840734091     A.U. after   12 cycles
 SCF Done:  E(RB3LYP) =  -495.840738376     A.U. after   12 cycles
 SCF Done:  E(RB3LYP) =  -495.841271202     A.U. after   12 cycles
 SCF Done:  E(RB3LYP) =  -495.841130282     A.U. after   13 cycles
 SCF Done:  E(RB3LYP) =  -495.841069561     A.U. after   10 cycles
 SCF Done:  E(RB3LYP) =  -495.841192326     A.U. after   10 cycles
 SCF Done:  E(RB3LYP) =  -495.841291996     A.U. after   12 cycles
 SCF Done:  E(RB3LYP) =  -495.841292417     A.U. after   11 cycles
 SCF Done:  E(RB3LYP) =  -495.841293654     A.U. after    7 cycles
 SCF Done:  E(RB3LYP) =  -495.841293645     A.U. after    7 cycles
 SCF Done:  E(RB3LYP) =  -495.841293857     A.U. after    9 cycles
 SCF Done:  E(RB3LYP) =  -495.841293863     A.U. after    6 cycles
 Optimization completed.
    -- Stationary point found.

                         Standard orientation:
 ---------------------------------------------------------------------
 Center     Atomic      Atomic             Coordinates (Angstroms)
 Number     Number       Type             X           Y           Z
 ---------------------------------------------------------------------
      1          1           0       -4.068344   -0.979607    0.120424
      2          6           0       -3.066657   -1.280070    0.442635
      3          1           0       -2.773080   -2.181435   -0.104030
      4          1           0       -3.125152   -1.514242    1.510152
      5          6           0       -2.122704   -0.094957    0.256173
      6          8           0       -2.345630    0.979331    0.801709
      7          7           0       -1.059946   -0.353312   -0.566095
      8          1           0       -0.927139   -1.308804   -0.871764
      9          6           0        0.086373    0.497825   -0.912646
     10          1           0        0.164578    0.486331   -2.008632
     11          6           0       -0.019897    1.958092   -0.470272
     12          1           0       -0.098989    2.069729    0.612886
     13          1           0        0.859588    2.499592   -0.838991
     14          1           0       -0.911082    2.423394   -0.894374
     15          6           0        1.337659   -0.284753   -0.443622
     16          8           0        1.533195   -1.410890   -0.895478
     17          7           0        2.137385    0.305030    0.481645
     18          1           0        1.880102    1.214768    0.834109
     19          6           0        3.308410   -0.351678    1.038245
     20          1           0        3.445119   -1.289712    0.499021
     21          1           0        4.200621    0.272213    0.914915
     22          1           0        3.172082   -0.568539    2.104498
 ---------------------------------------------------------------------

 The electronic state is 1-A.
 Alpha  occ. eigenvalues --  -19.11509 -19.10067 -14.37151 -14.35836 -10.28985
 Alpha  occ. eigenvalues --  -10.28477 -10.24224 -10.22373 -10.18783 -10.18699
 Alpha  occ. eigenvalues --   -1.03695  -1.02049  -0.92783  -0.91875  -0.78316
 Alpha  occ. eigenvalues --   -0.72643  -0.70973  -0.65822  -0.59484  -0.55993
 Alpha  occ. eigenvalues --   -0.53477  -0.50854  -0.46677  -0.45804  -0.45083
 Alpha  occ. eigenvalues --   -0.44062  -0.42558  -0.41274  -0.40148  -0.39570
 Alpha  occ. eigenvalues --   -0.38886  -0.38646  -0.37546  -0.36162  -0.34971
 Alpha  occ. eigenvalues --   -0.26656  -0.26006  -0.24055  -0.23768
 Alpha virt. eigenvalues --    0.01749   0.04020   0.07249   0.08955   0.11130
 Alpha virt. eigenvalues --    0.12629   0.14276   0.14958   0.15541   0.16010
 Alpha virt. eigenvalues --    0.16665   0.17984   0.18103   0.18491   0.19095

 Mulliken atomic charges:
              1
     1  H    0.184012
     2  C   -0.533552
     3  H    0.146693
     4  H    0.182442
     5  C    0.591691
     6  O   -0.517548
     7  N   -0.599748
     8  H    0.338354
     9  C   -0.013812
    10  H    0.167860
    11  C   -0.472747
    12  H    0.176991
    13  H    0.140033
    14  H    0.184264
    15  C    0.595064
    16  O   -0.532794
    17  N   -0.590593
    18  H    0.337909
    19  C   -0.313785
    20  H    0.206177
    21  H    0.159982
    22  H    0.163107
 Sum of Mulliken atomic charges =   0.00000

 Dipole moment (field-independent basis, Debye):
    X=              1.8139    Y=              0.3819    Z=              0.3140  Tot=              1.8801
 Quadrupole moment (field-independent basis, Debye-Ang):
   XX=            -57.9246   YY=            -61.4783   ZZ=            -59.7434
   XY=             11.1316   XZ=              7.9024   YZ=             -3.7938

 Normal termination of Gaussian 09 at Fri Feb 10 19:15:48 2017.
