 Gaussian 09, Revision A.02,
 Gaussian 09:  EM64L-G09RevA.02 11-Jun-2009

 ----------------------------------------------------------------------
 # b3lyp/6-31G* Opt=(ModRedundant, maxcycles=1000, calcfc) geom=nocrowd
 ----------------------------------------------------------------------

 ------------------
 Phi Psi fixed scan
 ------------------
 Symbolic Z-matrix:
 Charge =  0 Multiplicity = 1

 SCF Done:  E(RB3LYP) =  -990.468120082     A.U. after   15 cycles

  Exact polarizability:   0.000   0.000   0.000   0.000   0.000   0.000
 Approx polarizability: 238.297  11.043 225.820   7.498 -28.820 203.194

 SCF Done:  E(RB3LYP) =  -990.477989810     A.U. after   12 cycles
 SCF Done:  E(RB3LYP) =  -990.489410480     A.U. after   13 cycles
 SCF Done:  E(RB3LYP) =  -990.492881482     A.U. after   13 cycles
 SCF Done:  E(RB3LYP) =  -990.495351441     A.U. after   13 cycles
 SCF Done:  E(RB3LYP) =  -990.497070234     A.U. after   15 cycles
 SCF Done:  E(RB3LYP) =  -990.483229964     A.U. after   13 cycles
 SCF Done:  E(RB3LYP) =  -990.497171672     A.U. after   13 cycles
 SCF Done:  E(RB3LYP) =  -990.497360830     A.U. after   13 cycles
 SCF Done:  E(RB3LYP) =  -990.489576662     A.U. after   14 cycles
 SCF Done:  E(RB3LYP) =  -990.497613171     A.U. after   10 cycles
 SCF Done:  E(RB3LYP) =  -990.497616201     A.U. after    9 cycles
 SCF Done:  E(RB3LYP) =  -990.497624972     A.U. after   10 cycles
 SCF Done:  E(RB3LYP) =  -990.497636892     A.U. after   10 cycles
 SCF Done:  E(RB3LYP) =  -990.497645066     A.U. after   10 cycles
 SCF Done:  E(RB3LYP) =  -990.497656917     A.U. after   10 cycles
 SCF Done:  E(RB3LYP) =  -990.497659033     A.U. after    9 cycles
 SCF Done:  E(RB3LYP) =  -990.497659828     A.U. after    7 cycles
 SCF Done:  E(RB3LYP) =  -990.497659891     A.U. after    7 cycles
 SCF Done:  E(RB3LYP) =  -990.497659902     A.U. after    6 cycles
 Optimization completed.
    -- Stationary point found.

                         Standard orientation:
 ---------------------------------------------------------------------
 Center     Atomic      Atomic             Coordinates (Angstroms)
 Number     Number       Type             X           Y           Z
 ---------------------------------------------------------------------
      1          1           0       -5.341081   -3.201802    1.080725
      2          6           0       -5.592429   -2.145261    1.218518
      3          1           0       -5.264239   -1.827752    2.212957
      4          1           0       -6.681587   -2.058881    1.157173
      5          6           0       -4.970818   -1.341760    0.084988
      6          8           0       -5.263677   -1.541792   -1.091333
      7          7           0       -4.079670   -0.385041    0.465574
      8          1           0       -3.746540   -0.310036    1.420528
      9          6           0       -3.315534    0.377858   -0.500854
     10          1           0       -2.987532   -0.302089   -1.298886
     11          6           0       -4.154076    1.506694   -1.132427
     12          1           0       -4.480495    2.215148   -0.364176
     13          1           0       -3.587611    2.056859   -1.892224
     14          1           0       -5.032350    1.063901   -1.608123
     15          6           0       -2.077654    0.920945    0.238415
     16          8           0       -1.982691    0.848698    1.456294
     17          7           0       -1.174219    1.574480   -0.571924
     18          1           0       -1.327680    1.404179   -1.559139
     19          6           0        0.242019    1.726885   -0.234360
     20          1           0        0.695164    2.231999   -1.095630
     21          6           0        0.462236    2.608099    1.007874
     22          1           0        0.035388    2.132528    1.891468
     23          1           0        1.533212    2.774955    1.166155
     24          1           0       -0.023054    3.578217    0.862736
     25          6           0        0.936349    0.350777   -0.071019
     26          8           0        0.342763   -0.666392    0.265221
     27          7           0        2.258591    0.359983   -0.396288
     28          1           0        2.763495    1.221618   -0.581675
     29          6           0        3.112694   -0.792952   -0.173382
     30          1           0        2.805154   -1.277148    0.762523
     31          6           0        2.994890   -1.819602   -1.316254
     32          1           0        3.304835   -1.372321   -2.266289
     33          1           0        3.616640   -2.702300   -1.128727
     34          1           0        1.953610   -2.141537   -1.395198
     35          6           0        4.549295   -0.257751   -0.034119
     36          8           0        4.836890    0.892304   -0.360369
     37          7           0        5.453040   -1.150405    0.446462
     38          1           0        5.125014   -2.065509    0.721464
     39          6           0        6.863628   -0.839159    0.612446
     40          1           0        7.019532    0.177369    0.250108
     41          1           0        7.158112   -0.892969    1.666785
     42          1           0        7.487942   -1.528720    0.033217
 ---------------------------------------------------------------------

 The electronic state is 1-A.
 Alpha  occ. eigenvalues --  -19.13346 -19.12046 -19.11731 -19.09130 -14.38238
 Alpha  occ. eigenvalues --  -14.36446 -14.36154 -14.34064 -10.30465 -10.29075
 Alpha  occ. eigenvalues --  -10.28892 -10.27091 -10.24684 -10.24587 -10.23292
 Alpha  occ. eigenvalues --  -10.22834 -10.19369 -10.18330 -10.17816 -10.17782
 Alpha  occ. eigenvalues --   -1.05366  -1.04294  -1.03246  -1.01083  -0.94022
 Alpha  occ. eigenvalues --   -0.92946  -0.92752  -0.90630  -0.79631  -0.77468
 Alpha  occ. eigenvalues --   -0.75233  -0.72195  -0.71356  -0.67305  -0.65777
 Alpha  occ. eigenvalues --   -0.63396  -0.60763  -0.58588  -0.57986  -0.56411
 Alpha  occ. eigenvalues --   -0.54962  -0.52444  -0.49996  -0.49162  -0.47681
 Alpha  occ. eigenvalues --   -0.46973  -0.46703  -0.46063  -0.44621  -0.44446
 Alpha  occ. eigenvalues --   -0.43978  -0.43320  -0.42610  -0.42134  -0.40948
 Alpha  occ. eigenvalues --   -0.40861  -0.40728  -0.40215  -0.39294  -0.38807
 Alpha  occ. eigenvalues --   -0.38328  -0.38092  -0.37847  -0.37473  -0.37017
 Alpha  occ. eigenvalues --   -0.36282  -0.35730  -0.35094  -0.33065  -0.28220
 Alpha  occ. eigenvalues --   -0.27442  -0.27218  -0.25852  -0.25679  -0.24396
 Alpha  occ. eigenvalues --   -0.23476  -0.23081
 Alpha virt. eigenvalues --    0.00614   0.01255   0.03024   0.04520   0.05710
 Alpha virt. eigenvalues --    0.06172   0.09389   0.10702   0.10971   0.12870
 Alpha virt. eigenvalues --    0.13256   0.13441   0.14041   0.14613   0.14799

 Mulliken atomic charges:
              1
     1  H    0.180401
     2  C   -0.532759
     3  H    0.148335
     4  H    0.179443
     5  C    0.595910
     6  O   -0.526917
     7  N   -0.603606
     8  H    0.348917
     9  C   -0.038610
    10  H    0.172160
    11  C   -0.444263
    12  H    0.155868
    13  H    0.133371
    14  H    0.190999
    15  C    0.629048
    16  O   -0.518446
    17  N   -0.594445
    18  H    0.328520
    19  C   -0.070167
    20  H    0.147524
    21  C   -0.448873
    22  H    0.205294
    23  H    0.145198
    24  H    0.159884
    25  C    0.616168
    26  O   -0.514493
    27  N   -0.618599
    28  H    0.352257
    29  C   -0.035705
    30  H    0.173677
    31  C   -0.442896
    32  H    0.159339
    33  H    0.136410
    34  H    0.191159
    35  C    0.605595
    36  O   -0.530756
    37  N   -0.591725
    38  H    0.333245
    39  C   -0.314047
    40  H    0.208117
    41  H    0.165523
    42  H    0.163941
 Sum of Mulliken atomic charges =   0.00000

 Dipole moment (field-independent basis, Debye):
    X=              6.1311    Y=             -0.2474    Z=              0.3800  Tot=              6.1478
 Quadrupole moment (field-independent basis, Debye-Ang):
   XX=           -112.3700   YY=           -114.4003   ZZ=           -119.0740
   XY=            -20.7714   XZ=             -3.4457   YZ=             -8.4581

 Normal termination of Gaussian 09 at Fri Dec 30 07:00:00 2016.
