 Gaussian 09, Revision A.02,
 Gaussian 09:  EM64L-G09RevA.02 11-Jun-2009

 ----------------------------------------------------------------------
 # b3lyp/6-31G* Opt=(ModRedundant, maxcycles=1000, calcfc) geom=nocrowd
 ----------------------------------------------------------------------

 ------------------
 Phi Psi fixed scan
 ------------------
 Symbolic Z-matrix:
 Charge =  0 Multiplicity = 1

 SCF Done:  E(RB3LYP) =  -990.475436421     A.U. after   15 cycles

  Exact polarizability:   0.000   0.000   0.000   0.000   0.000   0.000
 Approx polarizability: 237.433  14.043 225.992 -26.945   8.970 205.247

 SCF Done:  E(RB3LYP) =  -990.485057158     A.U. after   12 cycles
 SCF Done:  E(RB3LYP) =  -990.496271926     A.U. after   13 cycles
 SCF Done:  E(RB3LYP) =  -990.499215284     A.U. after   13 cycles
 SCF Done:  E(RB3LYP) =  -990.499744934     A.U. after   15 cycles
 SCF Done:  E(RB3LYP) =  -990.500542466     A.U. after   15 cycles
 SCF Done:  E(RB3LYP) =  -990.501268947     A.U. after   12 cycles
 SCF Done:  E(RB3LYP) =  -990.423017959     A.U. after   16 cycles
 SCF Done:  E(RB3LYP) =  -990.501301063     A.U. after   15 cycles
 SCF Done:  E(RB3LYP) =  -990.501191244     A.U. after   11 cycles
 SCF Done:  E(RB3LYP) =  -990.501560594     A.U. after   10 cycles
 SCF Done:  E(RB3LYP) =  -990.501564815     A.U. after   10 cycles
 SCF Done:  E(RB3LYP) =  -990.501568199     A.U. after   10 cycles
 SCF Done:  E(RB3LYP) =  -990.501570889     A.U. after   10 cycles
 SCF Done:  E(RB3LYP) =  -990.501573585     A.U. after    9 cycles
 SCF Done:  E(RB3LYP) =  -990.501576526     A.U. after   10 cycles
 SCF Done:  E(RB3LYP) =  -990.501579480     A.U. after    9 cycles
 SCF Done:  E(RB3LYP) =  -990.501580803     A.U. after    9 cycles
 SCF Done:  E(RB3LYP) =  -990.501580992     A.U. after    9 cycles
 SCF Done:  E(RB3LYP) =  -990.501581095     A.U. after    7 cycles
 Optimization completed.
    -- Stationary point found.

                         Standard orientation:
 ---------------------------------------------------------------------
 Center     Atomic      Atomic             Coordinates (Angstroms)
 Number     Number       Type             X           Y           Z
 ---------------------------------------------------------------------
      1          1           0        4.703543    3.356298    1.226224
      2          6           0        3.666462    3.071897    1.026259
      3          1           0        3.180788    3.923873    0.539139
      4          1           0        3.158539    2.871060    1.974400
      5          6           0        3.657437    1.889967    0.069037
      6          8           0        4.279148    1.900093   -0.989945
      7          7           0        2.909441    0.820454    0.463081
      8          1           0        2.337846    0.839903    1.299342
      9          6           0        2.725425   -0.335886   -0.390177
     10          1           0        2.625061    0.016782   -1.424506
     11          6           0        3.922752   -1.305186   -0.320173
     12          1           0        4.049565   -1.682582    0.699726
     13          1           0        3.784973   -2.158749   -0.993672
     14          1           0        4.825704   -0.766804   -0.618201
     15          6           0        1.430806   -1.028753    0.062146
     16          8           0        0.962492   -0.845541    1.186103
     17          7           0        0.874627   -1.867847   -0.851035
     18          1           0        1.289238   -1.881568   -1.772672
     19          6           0       -0.307070   -2.718639   -0.646708
     20          1           0       -0.504120   -3.176742   -1.621463
     21          6           0       -0.025274   -3.840133    0.368015
     22          1           0        0.225239   -3.412038    1.342352
     23          1           0       -0.914971   -4.464509    0.471688
     24          1           0        0.812711   -4.456748    0.027586
     25          6           0       -1.644147   -2.024414   -0.286804
     26          8           0       -2.646701   -2.730563   -0.189815
     27          7           0       -1.676030   -0.677354   -0.174866
     28          1           0       -0.829426   -0.134714   -0.058943
     29          6           0       -2.901786    0.023140    0.167699
     30          1           0       -3.708958   -0.401089   -0.439795
     31          6           0       -3.266780   -0.128261    1.658298
     32          1           0       -2.469427    0.282623    2.285631
     33          1           0       -4.200751    0.396037    1.891227
     34          1           0       -3.393802   -1.188753    1.888356
     35          6           0       -2.678018    1.501552   -0.182329
     36          8           0       -1.554937    1.997917   -0.161777
     37          7           0       -3.808147    2.204077   -0.466615
     38          1           0       -4.688801    1.709646   -0.487006
     39          6           0       -3.802846    3.630159   -0.746462
     40          1           0       -2.766003    3.965820   -0.706145
     41          1           0       -4.208528    3.836399   -1.743430
     42          1           0       -4.389435    4.182632   -0.003113
 ---------------------------------------------------------------------

 The electronic state is 1-A.
 Alpha  occ. eigenvalues --  -19.13251 -19.12284 -19.10818 -19.09818 -14.38017
 Alpha  occ. eigenvalues --  -14.37479 -14.35353 -14.34958 -10.30265 -10.29500
 Alpha  occ. eigenvalues --  -10.28529 -10.27793 -10.24709 -10.23881 -10.23840
 Alpha  occ. eigenvalues --  -10.22677 -10.18575 -10.18358 -10.18315 -10.17953
 Alpha  occ. eigenvalues --   -1.05273  -1.04340  -1.02793  -1.01837  -0.94064
 Alpha  occ. eigenvalues --   -0.93179  -0.91921  -0.91463  -0.79306  -0.77341
 Alpha  occ. eigenvalues --   -0.75805  -0.72006  -0.71544  -0.67171  -0.65820
 Alpha  occ. eigenvalues --   -0.63721  -0.60518  -0.59052  -0.57906  -0.57538
 Alpha  occ. eigenvalues --   -0.55042  -0.53260  -0.50002  -0.48243  -0.47936
 Alpha  occ. eigenvalues --   -0.47012  -0.46280  -0.45901  -0.45211  -0.44816
 Alpha  occ. eigenvalues --   -0.43567  -0.43318  -0.42705  -0.41742  -0.41628
 Alpha  occ. eigenvalues --   -0.40788  -0.40366  -0.39982  -0.39341  -0.39007
 Alpha  occ. eigenvalues --   -0.38725  -0.38249  -0.37374  -0.37109  -0.36822
 Alpha  occ. eigenvalues --   -0.36468  -0.36378  -0.34470  -0.33853  -0.28420
 Alpha  occ. eigenvalues --   -0.27209  -0.26660  -0.26378  -0.24877  -0.24534
 Alpha  occ. eigenvalues --   -0.23921  -0.23803
 Alpha virt. eigenvalues --    0.00614   0.01548   0.02954   0.03898   0.05706
 Alpha virt. eigenvalues --    0.06405   0.09679   0.11449   0.12096   0.12210
 Alpha virt. eigenvalues --    0.13235   0.13594   0.14036   0.14576   0.15372

 Mulliken atomic charges:
              1
     1  H    0.180969
     2  C   -0.532887
     3  H    0.184861
     4  H    0.149257
     5  C    0.599240
     6  O   -0.524809
     7  N   -0.603555
     8  H    0.348004
     9  C   -0.029735
    10  H    0.169683
    11  C   -0.443153
    12  H    0.159245
    13  H    0.135839
    14  H    0.191365
    15  C    0.598037
    16  O   -0.539717
    17  N   -0.611644
    18  H    0.338429
    19  C   -0.042667
    20  H    0.169143
    21  C   -0.449117
    22  H    0.180619
    23  H    0.182899
    24  H    0.141525
    25  C    0.635407
    26  O   -0.542766
    27  N   -0.619695
    28  H    0.367960
    29  C   -0.038583
    30  H    0.162356
    31  C   -0.446365
    32  H    0.168740
    33  H    0.136481
    34  H    0.189349
    35  C    0.608652
    36  O   -0.528569
    37  N   -0.593154
    38  H    0.330395
    39  C   -0.313221
    40  H    0.207308
    41  H    0.162108
    42  H    0.161768
 Sum of Mulliken atomic charges =   0.00000

 Dipole moment (field-independent basis, Debye):
    X=             -3.1341    Y=              0.5573    Z=             -0.5034  Tot=              3.2228
 Quadrupole moment (field-independent basis, Debye-Ang):
   XX=           -115.2065   YY=           -116.9596   ZZ=           -116.9844
   XY=            -24.6660   XZ=              7.9644   YZ=              8.7289

 Normal termination of Gaussian 09 at Fri Dec 30 07:29:28 2016.
