 Gaussian 09, Revision A.02,
 Gaussian 09:  EM64L-G09RevA.02 11-Jun-2009

 ----------------------------------------------------------------------
 # b3lyp/6-31G* Opt=(ModRedundant, maxcycles=1000, calcfc) geom=nocrowd
 ----------------------------------------------------------------------

 ------------------
 Phi Psi fixed scan
 ------------------
 Symbolic Z-matrix:
 Charge =  0 Multiplicity = 1

 SCF Done:  E(RB3LYP) =  -990.477843292     A.U. after   15 cycles

  Exact polarizability:   0.000   0.000   0.000   0.000   0.000   0.000
 Approx polarizability: 239.847  -4.756 231.541  19.425   9.953 194.566

 SCF Done:  E(RB3LYP) =  -990.485785147     A.U. after   12 cycles
 SCF Done:  E(RB3LYP) =  -990.494825768     A.U. after   13 cycles
 SCF Done:  E(RB3LYP) =  -990.497467295     A.U. after   12 cycles
 SCF Done:  E(RB3LYP) =  -990.499055668     A.U. after   13 cycles
 SCF Done:  E(RB3LYP) =  -990.486404616     A.U. after   15 cycles
 SCF Done:  E(RB3LYP) =  -990.499534460     A.U. after   14 cycles
 SCF Done:  E(RB3LYP) =  -990.500265324     A.U. after   12 cycles
 SCF Done:  E(RB3LYP) =  -990.499083861     A.U. after   13 cycles
 SCF Done:  E(RB3LYP) =  -990.500788254     A.U. after   13 cycles
 SCF Done:  E(RB3LYP) =  -990.500975475     A.U. after   10 cycles
 SCF Done:  E(RB3LYP) =  -990.500977593     A.U. after    9 cycles
 SCF Done:  E(RB3LYP) =  -990.500979670     A.U. after    9 cycles
 SCF Done:  E(RB3LYP) =  -990.500980439     A.U. after    8 cycles
 SCF Done:  E(RB3LYP) =  -990.500980672     A.U. after    8 cycles
 SCF Done:  E(RB3LYP) =  -990.500981270     A.U. after    7 cycles
 SCF Done:  E(RB3LYP) =  -990.500981711     A.U. after    9 cycles
 SCF Done:  E(RB3LYP) =  -990.500982166     A.U. after    7 cycles
 SCF Done:  E(RB3LYP) =  -990.500982400     A.U. after    7 cycles
 SCF Done:  E(RB3LYP) =  -990.500982470     A.U. after    7 cycles
 Optimization completed.
    -- Stationary point found.

                         Standard orientation:
 ---------------------------------------------------------------------
 Center     Atomic      Atomic             Coordinates (Angstroms)
 Number     Number       Type             X           Y           Z
 ---------------------------------------------------------------------
      1          1           0        5.005219   -3.565698   -0.466604
      2          6           0        5.210302   -2.627538   -0.992261
      3          1           0        4.661531   -2.622677   -1.939031
      4          1           0        6.284030   -2.599264   -1.201242
      5          6           0        4.857185   -1.465158   -0.075205
      6          8           0        5.416257   -1.296285    1.005494
      7          7           0        3.889023   -0.626487   -0.537847
      8          1           0        3.349560   -0.835049   -1.370542
      9          6           0        3.361753    0.455035    0.270383
     10          1           0        3.238063    0.090499    1.298993
     11          6           0        4.306813    1.672391    0.291766
     12          1           0        4.439304    2.071500   -0.719262
     13          1           0        3.917382    2.471764    0.931714
     14          1           0        5.276984    1.354457    0.680854
     15          6           0        1.981096    0.811638   -0.306125
     16          8           0        1.601989    0.367860   -1.384312
     17          7           0        1.265288    1.718621    0.435111
     18          1           0        1.570405    1.798451    1.397194
     19          6           0       -0.173914    1.885708    0.248400
     20          1           0       -0.492489    2.585314    1.031821
     21          6           0       -0.519268    2.513055   -1.112595
     22          1           0       -0.296953    1.821065   -1.925449
     23          1           0       -1.575704    2.798079   -1.159802
     24          1           0        0.076013    3.420305   -1.253417
     25          6           0       -0.906913    0.546042    0.537419
     26          8           0       -0.313491   -0.443242    0.953308
     27          7           0       -2.256898    0.586459    0.393638
     28          1           0       -2.737099    1.366861   -0.041534
     29          6           0       -3.085899   -0.588891    0.592122
     30          1           0       -2.559505   -1.457813    0.177165
     31          6           0       -3.364572   -0.850814    2.084726
     32          1           0       -3.901856   -0.005854    2.527629
     33          1           0       -3.964636   -1.756717    2.226819
     34          1           0       -2.412268   -0.982196    2.604300
     35          6           0       -4.387943   -0.344107   -0.190644
     36          8           0       -4.695165    0.779639   -0.583536
     37          7           0       -5.160926   -1.444589   -0.381776
     38          1           0       -4.814596   -2.336725   -0.058056
     39          6           0       -6.443179   -1.403518   -1.065771
     40          1           0       -6.639000   -0.364419   -1.332052
     41          1           0       -6.422511   -2.009489   -1.978800
     42          1           0       -7.246766   -1.767258   -0.415503
 ---------------------------------------------------------------------

 The electronic state is 1-A.
 Alpha  occ. eigenvalues --  -19.13160 -19.12264 -19.11560 -19.09153 -14.38079
 Alpha  occ. eigenvalues --  -14.36331 -14.35920 -14.34126 -10.30283 -10.29082
 Alpha  occ. eigenvalues --  -10.28796 -10.27127 -10.24510 -10.24509 -10.23154
 Alpha  occ. eigenvalues --  -10.22823 -10.19237 -10.18544 -10.17879 -10.17702
 Alpha  occ. eigenvalues --   -1.05194  -1.04415  -1.03143  -1.01122  -0.93859
 Alpha  occ. eigenvalues --   -0.92889  -0.92583  -0.90675  -0.79541  -0.77407
 Alpha  occ. eigenvalues --   -0.75185  -0.72056  -0.71395  -0.67182  -0.65869
 Alpha  occ. eigenvalues --   -0.63476  -0.60655  -0.58552  -0.57909  -0.56474
 Alpha  occ. eigenvalues --   -0.54968  -0.52689  -0.49735  -0.49025  -0.47674
 Alpha  occ. eigenvalues --   -0.46914  -0.46644  -0.46059  -0.44610  -0.44176
 Alpha  occ. eigenvalues --   -0.43949  -0.43000  -0.42716  -0.42456  -0.40883
 Alpha  occ. eigenvalues --   -0.40664  -0.40341  -0.40243  -0.39340  -0.39153
 Alpha  occ. eigenvalues --   -0.38489  -0.38115  -0.37853  -0.37437  -0.36971
 Alpha  occ. eigenvalues --   -0.36291  -0.35735  -0.34894  -0.33089  -0.27691
 Alpha  occ. eigenvalues --   -0.27263  -0.26995  -0.25877  -0.25466  -0.24882
 Alpha  occ. eigenvalues --   -0.23679  -0.23133
 Alpha virt. eigenvalues --    0.01003   0.01707   0.02468   0.04488   0.05883
 Alpha virt. eigenvalues --    0.06611   0.09385   0.10592   0.11102   0.13129
 Alpha virt. eigenvalues --    0.13274   0.13300   0.13750   0.14475   0.15007

 Mulliken atomic charges:
              1
     1  H    0.180583
     2  C   -0.532848
     3  H    0.147226
     4  H    0.179750
     5  C    0.596802
     6  O   -0.525980
     7  N   -0.604584
     8  H    0.347181
     9  C   -0.037621
    10  H    0.176031
    11  C   -0.443146
    12  H    0.153938
    13  H    0.135876
    14  H    0.190071
    15  C    0.626615
    16  O   -0.528700
    17  N   -0.585344
    18  H    0.332762
    19  C   -0.076115
    20  H    0.161591
    21  C   -0.457125
    22  H    0.201223
    23  H    0.146140
    24  H    0.161006
    25  C    0.634025
    26  O   -0.530523
    27  N   -0.628132
    28  H    0.356574
    29  C   -0.030934
    30  H    0.173886
    31  C   -0.443998
    32  H    0.158930
    33  H    0.136665
    34  H    0.189816
    35  C    0.605756
    36  O   -0.530974
    37  N   -0.592073
    38  H    0.332855
    39  C   -0.313942
    40  H    0.208059
    41  H    0.165369
    42  H    0.163308
 Sum of Mulliken atomic charges =   0.00000

 Dipole moment (field-independent basis, Debye):
    X=             -5.7786    Y=             -0.3177    Z=             -0.2516  Tot=              5.7928
 Quadrupole moment (field-independent basis, Debye-Ang):
   XX=           -120.0259   YY=           -107.0592   ZZ=           -120.1998
   XY=             20.1751   XZ=            -10.5028   YZ=              9.0053

 Normal termination of Gaussian 09 at Fri Dec 30 05:07:51 2016.
