 Gaussian 09, Revision A.02,
 Gaussian 09:  EM64L-G09RevA.02 11-Jun-2009

 ----------------------------------------------------------------------
 # b3lyp/6-31G* Opt=(ModRedundant, maxcycles=1000, calcfc) geom=nocrowd
 ----------------------------------------------------------------------

 ------------------
 Phi Psi fixed scan
 ------------------
 Symbolic Z-matrix:
 Charge =  0 Multiplicity = 1

 SCF Done:  E(RB3LYP) =  -990.474643893     A.U. after   15 cycles

  Exact polarizability:   0.000   0.000   0.000   0.000   0.000   0.000
 Approx polarizability: 216.608  -0.134 189.338  -0.166   4.672 261.417

 SCF Done:  E(RB3LYP) =  -990.482881319     A.U. after   12 cycles
 SCF Done:  E(RB3LYP) =  -990.492018272     A.U. after   13 cycles
 SCF Done:  E(RB3LYP) =  -990.494172406     A.U. after   13 cycles
 SCF Done:  E(RB3LYP) =  -990.495290233     A.U. after   13 cycles
 SCF Done:  E(RB3LYP) =  -990.495665694     A.U. after   13 cycles
 SCF Done:  E(RB3LYP) =  -990.495912198     A.U. after   13 cycles
 SCF Done:  E(RB3LYP) =  -990.487038846     A.U. after   14 cycles
 SCF Done:  E(RB3LYP) =  -990.495970865     A.U. after   14 cycles
 SCF Done:  E(RB3LYP) =  -990.496044136     A.U. after   11 cycles
 SCF Done:  E(RB3LYP) =  -990.496145715     A.U. after    9 cycles
 SCF Done:  E(RB3LYP) =  -990.496148125     A.U. after   10 cycles
 SCF Done:  E(RB3LYP) =  -990.496150267     A.U. after   10 cycles
 SCF Done:  E(RB3LYP) =  -990.496152047     A.U. after    9 cycles
 SCF Done:  E(RB3LYP) =  -990.496153442     A.U. after    9 cycles
 SCF Done:  E(RB3LYP) =  -990.496155100     A.U. after    9 cycles
 SCF Done:  E(RB3LYP) =  -990.496156172     A.U. after    9 cycles
 SCF Done:  E(RB3LYP) =  -990.496156399     A.U. after    7 cycles
 SCF Done:  E(RB3LYP) =  -990.496156455     A.U. after    7 cycles
 SCF Done:  E(RB3LYP) =  -990.496156498     A.U. after    6 cycles
 Optimization completed.
    -- Stationary point found.

                         Standard orientation:
 ---------------------------------------------------------------------
 Center     Atomic      Atomic             Coordinates (Angstroms)
 Number     Number       Type             X           Y           Z
 ---------------------------------------------------------------------
      1          1           0        6.245589   -2.428515   -0.986910
      2          6           0        5.165669   -2.416871   -1.165763
      3          1           0        4.834597   -3.458204   -1.224762
      4          1           0        4.969515   -1.923255   -2.122438
      5          6           0        4.478634   -1.750617    0.017355
      6          8           0        4.562588   -2.199633    1.157806
      7          7           0        3.776753   -0.620033   -0.272470
      8          1           0        3.630369   -0.300197   -1.223457
      9          6           0        3.010051    0.086722    0.733333
     10          1           0        2.524456   -0.656786    1.379179
     11          6           0        3.902024    0.985533    1.612473
     12          1           0        4.391407    1.751768    1.002366
     13          1           0        3.321275    1.484800    2.396326
     14          1           0        4.665258    0.364179    2.087263
     15          6           0        1.942411    0.907664   -0.018488
     16          8           0        2.024097    1.105996   -1.224325
     17          7           0        0.963698    1.421556    0.784264
     18          1           0        0.947921    1.080864    1.735864
     19          6           0       -0.245573    2.137028    0.335971
     20          1           0       -0.803535    2.346342    1.255353
     21          6           0        0.092876    3.455065   -0.363456
     22          1           0        0.601449    3.251888   -1.306459
     23          1           0       -0.825394    4.012588   -0.576370
     24          1           0        0.735637    4.066198    0.277736
     25          6           0       -1.129879    1.255439   -0.585298
     26          8           0       -1.024176    1.246124   -1.804406
     27          7           0       -2.063800    0.519536    0.078662
     28          1           0       -2.193262    0.570167    1.083295
     29          6           0       -3.000348   -0.349004   -0.607764
     30          1           0       -3.393764    0.190855   -1.478768
     31          6           0       -2.335718   -1.650881   -1.097523
     32          1           0       -1.950325   -2.226618   -0.249619
     33          1           0       -3.045391   -2.278347   -1.648658
     34          1           0       -1.508189   -1.396631   -1.764224
     35          6           0       -4.136811   -0.639107    0.387602
     36          8           0       -4.000382   -0.429613    1.591626
     37          7           0       -5.265755   -1.157576   -0.161597
     38          1           0       -5.299577   -1.279972   -1.163871
     39          6           0       -6.423452   -1.548723    0.626073
     40          1           0       -6.205199   -1.312336    1.667932
     41          1           0       -7.315826   -0.996381    0.311131
     42          1           0       -6.619592   -2.623278    0.534381
 ---------------------------------------------------------------------

 The electronic state is 1-A.
 Alpha  occ. eigenvalues --  -19.13206 -19.12330 -19.11175 -19.09587 -14.38129
 Alpha  occ. eigenvalues --  -14.37313 -14.35975 -14.34624 -10.30332 -10.29431
 Alpha  occ. eigenvalues --  -10.28561 -10.27577 -10.24602 -10.24488 -10.23398
 Alpha  occ. eigenvalues --  -10.23207 -10.19079 -10.18225 -10.18224 -10.17511
 Alpha  occ. eigenvalues --   -1.05206  -1.04411  -1.03032  -1.01564  -0.93906
 Alpha  occ. eigenvalues --   -0.93472  -0.92346  -0.91144  -0.79422  -0.77617
 Alpha  occ. eigenvalues --   -0.75499  -0.72085  -0.71786  -0.67395  -0.65850
 Alpha  occ. eigenvalues --   -0.63333  -0.60747  -0.58962  -0.58107  -0.57113
 Alpha  occ. eigenvalues --   -0.55116  -0.52710  -0.49844  -0.49028  -0.47833
 Alpha  occ. eigenvalues --   -0.47140  -0.46780  -0.45992  -0.45062  -0.44593
 Alpha  occ. eigenvalues --   -0.44252  -0.43483  -0.42927  -0.41356  -0.41132
 Alpha  occ. eigenvalues --   -0.40884  -0.40643  -0.40322  -0.39319  -0.38569
 Alpha  occ. eigenvalues --   -0.38327  -0.38037  -0.37710  -0.37352  -0.36676
 Alpha  occ. eigenvalues --   -0.36573  -0.35927  -0.35501  -0.33584  -0.28351
 Alpha  occ. eigenvalues --   -0.27273  -0.27101  -0.26106  -0.25300  -0.24452
 Alpha  occ. eigenvalues --   -0.23634  -0.23424
 Alpha virt. eigenvalues --    0.00672   0.01309   0.02712   0.04058   0.05448
 Alpha virt. eigenvalues --    0.05960   0.10156   0.10211   0.11011   0.12859
 Alpha virt. eigenvalues --    0.13259   0.13467   0.13603   0.14443   0.14851

 Mulliken atomic charges:
              1
     1  H    0.181358
     2  C   -0.532926
     3  H    0.180606
     4  H    0.149541
     5  C    0.594990
     6  O   -0.526185
     7  N   -0.603881
     8  H    0.348419
     9  C   -0.034852
    10  H    0.165929
    11  C   -0.441806
    12  H    0.157802
    13  H    0.134174
    14  H    0.189680
    15  C    0.609766
    16  O   -0.509165
    17  N   -0.613294
    18  H    0.329753
    19  C   -0.050184
    20  H    0.142642
    21  C   -0.445501
    22  H    0.212733
    23  H    0.148360
    24  H    0.142630
    25  C    0.643052
    26  O   -0.513162
    27  N   -0.627710
    28  H    0.344312
    29  C   -0.029247
    30  H    0.170058
    31  C   -0.447218
    32  H    0.158907
    33  H    0.135784
    34  H    0.197899
    35  C    0.605962
    36  O   -0.532644
    37  N   -0.592152
    38  H    0.333028
    39  C   -0.314049
    40  H    0.207825
    41  H    0.164255
    42  H    0.164509
 Sum of Mulliken atomic charges =   0.00000

 Dipole moment (field-independent basis, Debye):
    X=             -5.2091    Y=             -0.1023    Z=              0.0757  Tot=              5.2106
 Quadrupole moment (field-independent basis, Debye-Ang):
   XX=           -100.2194   YY=           -118.9163   ZZ=           -125.8090
   XY=             14.6679   XZ=              0.7811   YZ=             15.5177

 Normal termination of Gaussian 09 at Fri Dec 30 08:22:40 2016.
