 Gaussian 09, Revision A.02,
 Gaussian 09:  EM64L-G09RevA.02 11-Jun-2009

 ----------------------------------------------------------------------
 # b3lyp/6-31G* Opt=(ModRedundant, maxcycles=1000, calcfc) geom=nocrowd
 ----------------------------------------------------------------------

 ------------------
 Phi Psi fixed scan
 ------------------
 Symbolic Z-matrix:
 Charge =  0 Multiplicity = 1

 SCF Done:  E(RB3LYP) =  -990.481100863     A.U. after   15 cycles

  Exact polarizability:   0.000   0.000   0.000   0.000   0.000   0.000
 Approx polarizability: 207.581   3.073 203.857  14.451  14.502 255.298

 SCF Done:  E(RB3LYP) =  -990.488580180     A.U. after   12 cycles
 SCF Done:  E(RB3LYP) =  -990.496724567     A.U. after   13 cycles
 SCF Done:  E(RB3LYP) =  -990.498624790     A.U. after   12 cycles
 SCF Done:  E(RB3LYP) =  -990.499820563     A.U. after   13 cycles
 SCF Done:  E(RB3LYP) =  -990.500429689     A.U. after   15 cycles
 SCF Done:  E(RB3LYP) =  -990.500781277     A.U. after   13 cycles
 SCF Done:  E(RB3LYP) =  -990.413126825     A.U. after   16 cycles
 SCF Done:  E(RB3LYP) =  -990.500827732     A.U. after   16 cycles
 SCF Done:  E(RB3LYP) =  -990.500905428     A.U. after   12 cycles
 SCF Done:  E(RB3LYP) =  -990.501002176     A.U. after    9 cycles
 SCF Done:  E(RB3LYP) =  -990.501008177     A.U. after    9 cycles
 SCF Done:  E(RB3LYP) =  -990.501011554     A.U. after    9 cycles
 SCF Done:  E(RB3LYP) =  -990.501014249     A.U. after    9 cycles
 SCF Done:  E(RB3LYP) =  -990.501016012     A.U. after    9 cycles
 SCF Done:  E(RB3LYP) =  -990.501017103     A.U. after    9 cycles
 SCF Done:  E(RB3LYP) =  -990.501018260     A.U. after    9 cycles
 SCF Done:  E(RB3LYP) =  -990.501018639     A.U. after    8 cycles
 SCF Done:  E(RB3LYP) =  -990.501018576     A.U. after    7 cycles
 SCF Done:  E(RB3LYP) =  -990.501018531     A.U. after    6 cycles
 Optimization completed.
    -- Stationary point found.

                         Standard orientation:
 ---------------------------------------------------------------------
 Center     Atomic      Atomic             Coordinates (Angstroms)
 Number     Number       Type             X           Y           Z
 ---------------------------------------------------------------------
      1          1           0       -5.538016   -2.898317    1.350673
      2          6           0       -4.448052   -2.810921    1.306953
      3          1           0       -4.046644   -3.818373    1.158507
      4          1           0       -4.083202   -2.418086    2.260882
      5          6           0       -4.072189   -1.951786    0.108771
      6          8           0       -4.418649   -2.237458   -1.034263
      7          7           0       -3.330297   -0.843996    0.390252
      8          1           0       -2.981922   -0.646264    1.321223
      9          6           0       -2.834982    0.032722   -0.651326
     10          1           0       -2.493867   -0.586400   -1.491001
     11          6           0       -3.927803    0.991595   -1.166064
     12          1           0       -4.282372    1.639035   -0.357414
     13          1           0       -3.558724    1.624164   -1.982043
     14          1           0       -4.763997    0.397505   -1.542353
     15          6           0       -1.646641    0.806221   -0.055785
     16          8           0       -1.448968    0.854606    1.154535
     17          7           0       -0.836319    1.418544   -0.965749
     18          1           0       -1.129270    1.399218   -1.933547
     19          6           0        0.196046    2.402813   -0.599054
     20          1           0        0.722583    2.627226   -1.534191
     21          6           0       -0.389232    3.689663   -0.016433
     22          1           0       -0.910386    3.476988    0.918867
     23          1           0        0.411131    4.402362    0.198812
     24          1           0       -1.086675    4.142444   -0.729406
     25          6           0        1.244384    1.781945    0.360823
     26          8           0        1.534855    2.294190    1.433687
     27          7           0        1.906500    0.713074   -0.157391
     28          1           0        1.588981    0.252551   -1.003447
     29          6           0        2.892367   -0.029590    0.604925
     30          1           0        3.593057    0.690592    1.044383
     31          6           0        2.258130   -0.861099    1.738684
     32          1           0        1.575843   -1.610102    1.323666
     33          1           0        3.025838   -1.377323    2.326481
     34          1           0        1.696761   -0.196118    2.398978
     35          6           0        3.618318   -0.943027   -0.394590
     36          8           0        3.081665   -1.291439   -1.443932
     37          7           0        4.854653   -1.355507   -0.007761
     38          1           0        5.231048   -0.996683    0.858355
     39          6           0        5.660552   -2.280858   -0.786655
     40          1           0        5.079145   -2.559618   -1.666147
     41          1           0        6.597515   -1.812849   -1.109956
     42          1           0        5.894809   -3.182022   -0.208476
 ---------------------------------------------------------------------

 The electronic state is 1-A.
 Alpha  occ. eigenvalues --  -19.13045 -19.12570 -19.10897 -19.09903 -14.37740
 Alpha  occ. eigenvalues --  -14.37661 -14.35289 -14.35027 -10.29958 -10.29738
 Alpha  occ. eigenvalues --  -10.28340 -10.27900 -10.24468 -10.23943 -10.23858
 Alpha  occ. eigenvalues --  -10.22829 -10.18713 -10.18497 -10.18357 -10.17686
 Alpha  occ. eigenvalues --   -1.05072  -1.04578  -1.02749  -1.01912  -0.93908
 Alpha  occ. eigenvalues --   -0.93389  -0.91841  -0.91539  -0.79314  -0.77430
 Alpha  occ. eigenvalues --   -0.75617  -0.72128  -0.71647  -0.67335  -0.65903
 Alpha  occ. eigenvalues --   -0.63347  -0.60653  -0.59205  -0.57651  -0.57474
 Alpha  occ. eigenvalues --   -0.54818  -0.52894  -0.49558  -0.48354  -0.48092
 Alpha  occ. eigenvalues --   -0.47315  -0.46456  -0.45816  -0.45344  -0.44903
 Alpha  occ. eigenvalues --   -0.43975  -0.43328  -0.42745  -0.41759  -0.41472
 Alpha  occ. eigenvalues --   -0.40909  -0.40184  -0.40132  -0.39377  -0.38848
 Alpha  occ. eigenvalues --   -0.38439  -0.38018  -0.37326  -0.37104  -0.37077
 Alpha  occ. eigenvalues --   -0.36685  -0.36131  -0.35212  -0.33937  -0.28141
 Alpha  occ. eigenvalues --   -0.26737  -0.26692  -0.26510  -0.24754  -0.24620
 Alpha  occ. eigenvalues --   -0.24218  -0.23895
 Alpha virt. eigenvalues --    0.00955   0.01348   0.02371   0.03768   0.06065
 Alpha virt. eigenvalues --    0.06497   0.09800   0.10974   0.11313   0.12642
 Alpha virt. eigenvalues --    0.13115   0.13326   0.13650   0.14635   0.14970

 Mulliken atomic charges:
              1
     1  H    0.182549
     2  C   -0.533430
     3  H    0.182267
     4  H    0.148824
     5  C    0.597212
     6  O   -0.524069
     7  N   -0.605618
     8  H    0.347568
     9  C   -0.034572
    10  H    0.173864
    11  C   -0.447178
    12  H    0.159501
    13  H    0.131477
    14  H    0.194295
    15  C    0.612972
    16  O   -0.520672
    17  N   -0.613633
    18  H    0.333554
    19  C   -0.068683
    20  H    0.158300
    21  C   -0.435416
    22  H    0.193276
    23  H    0.165383
    24  H    0.130785
    25  C    0.653171
    26  O   -0.526975
    27  N   -0.613048
    28  H    0.344689
    29  C   -0.031070
    30  H    0.163252
    31  C   -0.446948
    32  H    0.159495
    33  H    0.134166
    34  H    0.201692
    35  C    0.607975
    36  O   -0.532891
    37  N   -0.592725
    38  H    0.331399
    39  C   -0.313546
    40  H    0.207405
    41  H    0.162936
    42  H    0.162468
 Sum of Mulliken atomic charges =   0.00000

 Dipole moment (field-independent basis, Debye):
    X=              3.9468    Y=              0.1977    Z=             -0.2586  Tot=              3.9602
 Quadrupole moment (field-independent basis, Debye-Ang):
   XX=           -102.1038   YY=           -121.4790   ZZ=           -121.8649
   XY=            -16.1369   XZ=             -2.9320   YZ=            -19.3147

 Normal termination of Gaussian 09 at Fri Dec 30 07:22:08 2016.
