 Gaussian 09, Revision A.02,
 Gaussian 09:  EM64L-G09RevA.02 11-Jun-2009

 ----------------------------------------------------------------------
 # b3lyp/6-31G* Opt=(ModRedundant, maxcycles=1000, calcfc) geom=nocrowd
 ----------------------------------------------------------------------

 ------------------
 Phi Psi fixed scan
 ------------------
 Symbolic Z-matrix:
 Charge =  0 Multiplicity = 1

 SCF Done:  E(RB3LYP) =  -990.466184849     A.U. after   15 cycles

  Exact polarizability:   0.000   0.000   0.000   0.000   0.000   0.000
 Approx polarizability: 230.493  -6.868 203.553  -2.464  32.676 234.502

 SCF Done:  E(RB3LYP) =  -990.477670036     A.U. after   12 cycles
 SCF Done:  E(RB3LYP) =  -990.489233519     A.U. after   13 cycles
 SCF Done:  E(RB3LYP) =  -990.491522994     A.U. after   13 cycles
 SCF Done:  E(RB3LYP) =  -990.493272966     A.U. after   13 cycles
 SCF Done:  E(RB3LYP) =  -990.493706608     A.U. after   15 cycles
 SCF Done:  E(RB3LYP) =  -990.494598647     A.U. after   15 cycles
 SCF Done:  E(RB3LYP) =  -990.494452402     A.U. after   12 cycles
 SCF Done:  E(RB3LYP) =  -990.494855640     A.U. after   12 cycles
 SCF Done:  E(RB3LYP) =  -990.494886004     A.U. after   12 cycles
 SCF Done:  E(RB3LYP) =  -990.494976382     A.U. after   10 cycles
 SCF Done:  E(RB3LYP) =  -990.494980423     A.U. after    9 cycles
 SCF Done:  E(RB3LYP) =  -990.494984994     A.U. after    9 cycles
 SCF Done:  E(RB3LYP) =  -990.494989838     A.U. after    9 cycles
 SCF Done:  E(RB3LYP) =  -990.494996868     A.U. after   10 cycles
 SCF Done:  E(RB3LYP) =  -990.495002812     A.U. after    9 cycles
 SCF Done:  E(RB3LYP) =  -990.495004956     A.U. after    9 cycles
 SCF Done:  E(RB3LYP) =  -990.495005100     A.U. after    7 cycles
 SCF Done:  E(RB3LYP) =  -990.495005152     A.U. after    7 cycles
 SCF Done:  E(RB3LYP) =  -990.495005173     A.U. after    6 cycles
 Optimization completed.
    -- Stationary point found.

                         Standard orientation:
 ---------------------------------------------------------------------
 Center     Atomic      Atomic             Coordinates (Angstroms)
 Number     Number       Type             X           Y           Z
 ---------------------------------------------------------------------
      1          1           0        5.276258   -3.185732   -1.126879
      2          6           0        5.590904   -2.139561   -1.057112
      3          1           0        5.444000   -1.657511   -2.028375
      4          1           0        6.657942   -2.136097   -0.814284
      5          6           0        4.826690   -1.472330    0.077203
      6          8           0        4.906288   -1.867583    1.237780
      7          7           0        4.057800   -0.406705   -0.280821
      8          1           0        3.900413   -0.155793   -1.250773
      9          6           0        3.190310    0.262930    0.666882
     10          1           0        2.732804   -0.499275    1.312037
     11          6           0        3.966854    1.252612    1.558097
     12          1           0        4.425762    2.036521    0.946915
     13          1           0        3.313635    1.728568    2.298089
     14          1           0        4.751060    0.706191    2.087806
     15          6           0        2.093222    0.970751   -0.155571
     16          8           0        2.199066    1.106057   -1.366163
     17          7           0        1.079307    1.502355    0.607677
     18          1           0        1.083457    1.176689    1.567057
     19          6           0       -0.266714    1.853090    0.123352
     20          1           0       -0.799580    2.215859    1.009292
     21          6           0       -0.225914    2.974728   -0.923562
     22          1           0        0.282249    2.625143   -1.822866
     23          1           0       -1.245939    3.281015   -1.181364
     24          1           0        0.309314    3.841136   -0.522778
     25          6           0       -1.015673    0.629078   -0.455577
     26          8           0       -0.600615   -0.023113   -1.405199
     27          7           0       -2.182264    0.336021    0.184543
     28          1           0       -2.570552    0.924934    0.914030
     29          6           0       -3.080297   -0.700716   -0.289563
     30          1           0       -3.106303   -0.658936   -1.386214
     31          6           0       -2.611006   -2.105697    0.135061
     32          1           0       -2.587881   -2.188429    1.226582
     33          1           0       -3.273711   -2.884950   -0.257955
     34          1           0       -1.606164   -2.276012   -0.258960
     35          6           0       -4.471514   -0.371453    0.280172
     36          8           0       -4.611580    0.436989    1.196020
     37          7           0       -5.501965   -1.051975   -0.285193
     38          1           0       -5.301295   -1.675955   -1.053990
     39          6           0       -6.881772   -0.905752    0.149320
     40          1           0       -6.889412   -0.205327    0.984945
     41          1           0       -7.508757   -0.508591   -0.657099
     42          1           0       -7.293253   -1.866185    0.479626
 ---------------------------------------------------------------------

 The electronic state is 1-A.
 Alpha  occ. eigenvalues --  -19.13336 -19.12224 -19.11313 -19.09369 -14.38239
 Alpha  occ. eigenvalues --  -14.36866 -14.36222 -14.34340 -10.30461 -10.29263
 Alpha  occ. eigenvalues --  -10.28734 -10.27336 -10.24635 -10.24635 -10.23294
 Alpha  occ. eigenvalues --  -10.23137 -10.19309 -10.18026 -10.18005 -10.17925
 Alpha  occ. eigenvalues --   -1.05343  -1.04287  -1.03158  -1.01332  -0.94018
 Alpha  occ. eigenvalues --   -0.93176  -0.92601  -0.90885  -0.79550  -0.77591
 Alpha  occ. eigenvalues --   -0.75394  -0.72198  -0.71567  -0.67378  -0.65799
 Alpha  occ. eigenvalues --   -0.63367  -0.60772  -0.58669  -0.58099  -0.56754
 Alpha  occ. eigenvalues --   -0.54988  -0.52501  -0.50072  -0.49135  -0.47753
 Alpha  occ. eigenvalues --   -0.47021  -0.46835  -0.45998  -0.45000  -0.44459
 Alpha  occ. eigenvalues --   -0.44162  -0.43469  -0.42803  -0.41419  -0.41087
 Alpha  occ. eigenvalues --   -0.40996  -0.40761  -0.40273  -0.39317  -0.38560
 Alpha  occ. eigenvalues --   -0.38289  -0.38149  -0.37694  -0.37485  -0.36774
 Alpha  occ. eigenvalues --   -0.36497  -0.35942  -0.35261  -0.33318  -0.28542
 Alpha  occ. eigenvalues --   -0.27412  -0.27260  -0.26012  -0.25604  -0.24298
 Alpha  occ. eigenvalues --   -0.23426  -0.23152
 Alpha virt. eigenvalues --    0.00401   0.01157   0.03204   0.04267   0.05641
 Alpha virt. eigenvalues --    0.05831   0.09607   0.10499   0.10947   0.12835
 Alpha virt. eigenvalues --    0.13205   0.13564   0.14131   0.14397   0.14675

 Mulliken atomic charges:
              1
     1  H    0.180545
     2  C   -0.532786
     3  H    0.149567
     4  H    0.180381
     5  C    0.594672
     6  O   -0.526733
     7  N   -0.602800
     8  H    0.349417
     9  C   -0.037122
    10  H    0.166601
    11  C   -0.442100
    12  H    0.157357
    13  H    0.134425
    14  H    0.189555
    15  C    0.615150
    16  O   -0.504546
    17  N   -0.603646
    18  H    0.327595
    19  C   -0.050159
    20  H    0.138044
    21  C   -0.450798
    22  H    0.212918
    23  H    0.144672
    24  H    0.153882
    25  C    0.622701
    26  O   -0.514773
    27  N   -0.625083
    28  H    0.350250
    29  C   -0.033425
    30  H    0.172311
    31  C   -0.444319
    32  H    0.158938
    33  H    0.136795
    34  H    0.193538
    35  C    0.605286
    36  O   -0.531099
    37  N   -0.591821
    38  H    0.333259
    39  C   -0.314075
    40  H    0.208053
    41  H    0.165185
    42  H    0.164189
 Sum of Mulliken atomic charges =   0.00000

 Dipole moment (field-independent basis, Debye):
    X=             -5.8283    Y=             -0.1094    Z=             -0.2514  Tot=              5.8348
 Quadrupole moment (field-independent basis, Debye-Ang):
   XX=           -103.9149   YY=           -116.1318   ZZ=           -124.3869
   XY=             17.3043   XZ=              0.8245   YZ=              9.2976

 Normal termination of Gaussian 09 at Fri Dec 30 04:18:47 2016.
