 Gaussian 09, Revision A.02,
 Gaussian 09:  EM64L-G09RevA.02 11-Jun-2009

 -------------------------------------------
 # HF/6-31G* Opt=(ModRedundant) geom=nocrowd
 -------------------------------------------

 ------------------
 Phi Psi fixed scan
 ------------------
 Symbolic Z-matrix:
 Charge =  0 Multiplicity = 1

 SCF Done:  E(RHF) =  -492.314661181     A.U. after   18 cycles
 SCF Done:  E(RHF) =  -492.497552073     A.U. after   15 cycles
 SCF Done:  E(RHF) =  -492.697141221     A.U. after   14 cycles
 SCF Done:  E(RHF) =  -492.783267359     A.U. after   14 cycles
 SCF Done:  E(RHF) =  -492.808491791     A.U. after   14 cycles
 SCF Done:  E(RHF) =  -492.822592332     A.U. after   14 cycles
 SCF Done:  E(RHF) =  -492.833001328     A.U. after   13 cycles
 SCF Done:  E(RHF) =  -492.840065736     A.U. after   13 cycles
 SCF Done:  E(RHF) =  -492.843192233     A.U. after   12 cycles
 SCF Done:  E(RHF) =  -492.845309499     A.U. after   13 cycles
 SCF Done:  E(RHF) =  -492.847055340     A.U. after   11 cycles
 SCF Done:  E(RHF) =  -492.847060950     A.U. after    9 cycles
 SCF Done:  E(RHF) =  -492.847063702     A.U. after   10 cycles
 SCF Done:  E(RHF) =  -492.847064354     A.U. after    9 cycles
 SCF Done:  E(RHF) =  -492.847064626     A.U. after    8 cycles
 SCF Done:  E(RHF) =  -492.847064709     A.U. after    7 cycles
 SCF Done:  E(RHF) =  -492.847064890     A.U. after    9 cycles
 SCF Done:  E(RHF) =  -492.847064949     A.U. after    8 cycles
 SCF Done:  E(RHF) =  -492.847065017     A.U. after    8 cycles
 SCF Done:  E(RHF) =  -492.847065050     A.U. after    8 cycles
 Optimization completed.
    -- Stationary point found.

                         Standard orientation:
 ---------------------------------------------------------------------
 Center     Atomic      Atomic             Coordinates (Angstroms)
 Number     Number       Type             X           Y           Z
 ---------------------------------------------------------------------
      1          1           0       -3.850084   -1.095913    0.373551
      2          6           0       -3.294558   -0.580083   -0.396290
      3          1           0       -3.779784    0.361021   -0.625875
      4          1           0       -3.300127   -1.197638   -1.288890
      5          6           0       -1.861742   -0.418690    0.070605
      6          8           0       -1.361918   -1.251826    0.786199
      7          7           0       -1.247831    0.696595   -0.372228
      8          1           0       -1.811624    1.260063   -0.966826
      9          6           0        0.135155    1.200523   -0.308791
     10          1           0        0.275102    1.739815   -1.234590
     11          6           0        0.259149    2.193534    0.856816
     12          1           0        0.118643    1.680381    1.802358
     13          1           0        1.233402    2.661752    0.849877
     14          1           0       -0.502598    2.961448    0.773889
     15          6           0        1.366435    0.275443   -0.272619
     16          8           0        2.416165    0.817952   -0.517544
     17          7           0        1.266045   -1.025732   -0.003431
     18          1           0        0.406158   -1.376842    0.359552
     19          6           0        2.457309   -1.843384    0.076271
     20          1           0        3.030887   -1.764039   -0.836844
     21          1           0        3.093844   -1.546776    0.902483
     22          1           0        2.154224   -2.872387    0.215750
 ---------------------------------------------------------------------

 The electronic state is 1-A.
 Alpha  occ. eigenvalues --  -20.53980 -20.50904 -15.60580 -15.56502 -11.37000
 Alpha  occ. eigenvalues --  -11.33934 -11.29084 -11.24543 -11.24418 -11.22206
 Alpha  occ. eigenvalues --   -1.40816  -1.38077  -1.25450  -1.21863  -1.06206
 Alpha  occ. eigenvalues --   -1.00115  -0.94955  -0.88398  -0.81691  -0.77256
 Alpha  occ. eigenvalues --   -0.72055  -0.70567  -0.64746  -0.64263  -0.62148
 Alpha  occ. eigenvalues --   -0.61540  -0.60595  -0.58987  -0.58352  -0.56562
 Alpha  occ. eigenvalues --   -0.54420  -0.54352  -0.52315  -0.52049  -0.49693
 Alpha  occ. eigenvalues --   -0.43480  -0.42167  -0.39445  -0.37481
 Alpha virt. eigenvalues --    0.18195   0.19513   0.21140   0.25771   0.26743
 Alpha virt. eigenvalues --    0.28348   0.28986   0.30701   0.31453   0.31654
 Alpha virt. eigenvalues --    0.33373   0.34009   0.34888   0.35217   0.37974

 Mulliken atomic charges:
              1
     1  H    0.218964
     2  C   -0.585905
     3  H    0.174456
     4  H    0.206662
     5  C    0.776432
     6  O   -0.644695
     7  N   -0.827513
     8  H    0.389186
     9  C   -0.012646
    10  H    0.215250
    11  C   -0.480181
    12  H    0.180737
    13  H    0.209653
    14  H    0.159871
    15  C    0.749689
    16  O   -0.635308
    17  N   -0.835400
    18  H    0.475613
    19  C   -0.271028
    20  H    0.189901
    21  H    0.177426
    22  H    0.168839
 Sum of Mulliken atomic charges =   0.00000

 Dipole moment (field-independent basis, Debye):
    X=             -4.3148    Y=              0.6509    Z=             -1.3127  Tot=              4.5568
 Quadrupole moment (field-independent basis, Debye-Ang):
   XX=            -61.4254   YY=            -58.7814   ZZ=            -60.8554
   XY=             -8.9739   XZ=              7.1816   YZ=              1.2470

 Normal termination of Gaussian 09 at Thu Feb  9 16:52:39 2017.
