 Gaussian 09, Revision A.02,
 Gaussian 09:  EM64L-G09RevA.02 11-Jun-2009

 -------------------------------------------
 # HF/6-31G* Opt=(ModRedundant) geom=nocrowd
 -------------------------------------------

 ------------------
 Phi Psi fixed scan
 ------------------
 Symbolic Z-matrix:
 Charge =  0 Multiplicity = 1

 SCF Done:  E(RHF) =  -492.830052060     A.U. after   15 cycles
 SCF Done:  E(RHF) =  -492.841850214     A.U. after   14 cycles
 SCF Done:  E(RHF) =  -492.844280545     A.U. after   13 cycles
 SCF Done:  E(RHF) =  -492.844908608     A.U. after   13 cycles
 SCF Done:  E(RHF) =  -492.845428739     A.U. after   14 cycles
 SCF Done:  E(RHF) =  -492.845705139     A.U. after   13 cycles
 SCF Done:  E(RHF) =  -492.846040336     A.U. after   12 cycles
 SCF Done:  E(RHF) =  -492.846243635     A.U. after   12 cycles
 SCF Done:  E(RHF) =  -492.846409342     A.U. after   12 cycles
 SCF Done:  E(RHF) =  -492.846558670     A.U. after   12 cycles
 SCF Done:  E(RHF) =  -492.847065701     A.U. after   13 cycles
 SCF Done:  E(RHF) =  -492.847120103     A.U. after   11 cycles
 SCF Done:  E(RHF) =  -492.847123279     A.U. after   10 cycles
 SCF Done:  E(RHF) =  -492.847124421     A.U. after    9 cycles
 SCF Done:  E(RHF) =  -492.847124855     A.U. after    9 cycles
 SCF Done:  E(RHF) =  -492.847125179     A.U. after    9 cycles
 SCF Done:  E(RHF) =  -492.847125403     A.U. after    8 cycles
 SCF Done:  E(RHF) =  -492.847125552     A.U. after    8 cycles
 SCF Done:  E(RHF) =  -492.847125676     A.U. after    8 cycles
 SCF Done:  E(RHF) =  -492.847125693     A.U. after    8 cycles
 Optimization completed.
    -- Stationary point found.

                         Standard orientation:
 ---------------------------------------------------------------------
 Center     Atomic      Atomic             Coordinates (Angstroms)
 Number     Number       Type             X           Y           Z
 ---------------------------------------------------------------------
      1          1           0       -3.197457   -2.052999    0.371292
      2          6           0       -3.075031   -1.057367   -0.029018
      3          1           0       -3.710543   -0.378548    0.531606
      4          1           0       -3.390647   -1.039230   -1.066320
      5          6           0       -1.629239   -0.638014    0.139465
      6          8           0       -0.905785   -1.156083    0.941101
      7          7           0       -1.226284    0.358898   -0.693599
      8          1           0       -1.926404    0.767830   -1.270865
      9          6           0        0.003529    1.141294   -0.583771
     10          1           0        0.313827    1.365538   -1.598931
     11          6           0       -0.237705    2.446227    0.168887
     12          1           0       -0.508327    2.243550    1.196367
     13          1           0        0.655426    3.058751    0.170514
     14          1           0       -1.038041    3.006798   -0.305978
     15          6           0        1.159412    0.355920    0.061242
     16          8           0        1.617017    0.666706    1.119957
     17          7           0        1.730243   -0.570226   -0.753279
     18          1           0        1.147147   -0.929728   -1.476471
     19          6           0        2.704632   -1.493894   -0.205515
     20          1           0        3.489672   -0.935776    0.281655
     21          1           0        2.260405   -2.170307    0.516843
     22          1           0        3.133783   -2.066567   -1.017764
 ---------------------------------------------------------------------

 The electronic state is 1-A.
 Alpha  occ. eigenvalues --  -20.52979 -20.51633 -15.59632 -15.57223 -11.35665
 Alpha  occ. eigenvalues --  -11.33902 -11.28435 -11.24334 -11.23947 -11.21662
 Alpha  occ. eigenvalues --   -1.40126  -1.38426  -1.24757  -1.21940  -1.05578
 Alpha  occ. eigenvalues --   -0.99559  -0.95108  -0.87290  -0.81116  -0.76665
 Alpha  occ. eigenvalues --   -0.70936  -0.69347  -0.65584  -0.63928  -0.62448
 Alpha  occ. eigenvalues --   -0.61072  -0.60188  -0.58455  -0.57887  -0.55978
 Alpha  occ. eigenvalues --   -0.53958  -0.53051  -0.52413  -0.51425  -0.51041
 Alpha  occ. eigenvalues --   -0.42288  -0.41155  -0.39660  -0.38173
 Alpha virt. eigenvalues --    0.18807   0.19792   0.22344   0.24206   0.26092
 Alpha virt. eigenvalues --    0.27868   0.28545   0.29852   0.31382   0.31646
 Alpha virt. eigenvalues --    0.32533   0.33515   0.33888   0.35078   0.38093

 Mulliken atomic charges:
              1
     1  H    0.218103
     2  C   -0.589285
     3  H    0.201000
     4  H    0.175309
     5  C    0.746935
     6  O   -0.591541
     7  N   -0.817060
     8  H    0.381057
     9  C   -0.048222
    10  H    0.196230
    11  C   -0.463215
    12  H    0.202303
    13  H    0.183161
    14  H    0.143775
    15  C    0.793712
    16  O   -0.599679
    17  N   -0.772416
    18  H    0.374805
    19  C   -0.287150
    20  H    0.202182
    21  H    0.187658
    22  H    0.162340
 Sum of Mulliken atomic charges =   0.00000

 Dipole moment (field-independent basis, Debye):
    X=             -3.2975    Y=              0.3198    Z=             -5.0238  Tot=              6.0179
 Quadrupole moment (field-independent basis, Debye-Ang):
   XX=            -53.3290   YY=            -58.5730   ZZ=            -63.2596
   XY=             -4.7718   XZ=             -1.0944   YZ=              0.6185

 Normal termination of Gaussian 09 at Thu Feb  9 15:46:52 2017.
