 Gaussian 09, Revision A.02,
 Gaussian 09:  EM64L-G09RevA.02 11-Jun-2009

 -------------------------------------------
 # HF/6-31G* Opt=(ModRedundant) geom=nocrowd
 -------------------------------------------

 ------------------
 Phi Psi fixed scan
 ------------------
 Symbolic Z-matrix:
 Charge =  0 Multiplicity = 1

 SCF Done:  E(RHF) =  -492.691635371     A.U. after   17 cycles
 SCF Done:  E(RHF) =  -492.749845820     A.U. after   15 cycles
 SCF Done:  E(RHF) =  -492.804600492     A.U. after   14 cycles
 SCF Done:  E(RHF) =  -492.812897277     A.U. after   14 cycles
 SCF Done:  E(RHF) =  -492.824569572     A.U. after   14 cycles
 SCF Done:  E(RHF) =  -492.827225203     A.U. after   13 cycles
 SCF Done:  E(RHF) =  -492.829523900     A.U. after   13 cycles
 SCF Done:  E(RHF) =  -492.830989808     A.U. after   14 cycles
 SCF Done:  E(RHF) =  -492.832294683     A.U. after   15 cycles
 SCF Done:  E(RHF) =  -492.833131435     A.U. after   13 cycles
 SCF Done:  E(RHF) =  -492.834483679     A.U. after   15 cycles
 SCF Done:  E(RHF) =  -492.834363452     A.U. after   14 cycles
 SCF Done:  E(RHF) =  -492.834530457     A.U. after   14 cycles
 SCF Done:  E(RHF) =  -492.834514318     A.U. after   11 cycles
 SCF Done:  E(RHF) =  -492.834553901     A.U. after   11 cycles
 SCF Done:  E(RHF) =  -492.834561229     A.U. after   10 cycles
 SCF Done:  E(RHF) =  -492.834562129     A.U. after   10 cycles
 SCF Done:  E(RHF) =  -492.834562768     A.U. after    9 cycles
 SCF Done:  E(RHF) =  -492.834562824     A.U. after    8 cycles
 SCF Done:  E(RHF) =  -492.834562865     A.U. after    7 cycles
 Optimization completed.
    -- Stationary point found.

                         Standard orientation:
 ---------------------------------------------------------------------
 Center     Atomic      Atomic             Coordinates (Angstroms)
 Number     Number       Type             X           Y           Z
 ---------------------------------------------------------------------
      1          1           0       -3.547947   -1.599861    0.145471
      2          6           0       -2.907374   -1.099401   -0.565266
      3          1           0       -3.514647   -0.547496   -1.276323
      4          1           0       -2.331969   -1.840612   -1.110998
      5          6           0       -1.957529   -0.189983    0.179348
      6          8           0       -1.844349   -0.209284    1.364062
      7          7           0       -1.299818    0.749210   -0.617508
      8          1           0       -1.556014    0.629111   -1.574572
      9          6           0        0.134079    1.012157   -0.529627
     10          1           0        0.456052    1.283108   -1.527864
     11          6           0        0.376770    2.202644    0.413473
     12          1           0        0.041746    1.948528    1.411145
     13          1           0        1.421942    2.492043    0.459745
     14          1           0       -0.196687    3.054062    0.068927
     15          6           0        0.986382   -0.192767   -0.098357
     16          8           0        0.533018   -1.236611    0.270671
     17          7           0        2.314885   -0.032143   -0.329943
     18          1           0        2.662737    0.882495   -0.501941
     19          6           0        3.268134   -1.040946    0.086107
     20          1           0        2.943775   -2.009501   -0.263585
     21          1           0        4.229187   -0.810622   -0.354671
     22          1           0        3.374245   -1.083802    1.164888
 ---------------------------------------------------------------------

 The electronic state is 1-A.
 Alpha  occ. eigenvalues --  -20.52873 -20.51569 -15.58791 -15.57474 -11.34830
 Alpha  occ. eigenvalues --  -11.33868 -11.28865 -11.25897 -11.22474 -11.22294
 Alpha  occ. eigenvalues --   -1.40120  -1.38025  -1.23659  -1.22719  -1.05237
 Alpha  occ. eigenvalues --   -0.98701  -0.95609  -0.87908  -0.79941  -0.77202
 Alpha  occ. eigenvalues --   -0.70445  -0.69146  -0.65099  -0.63552  -0.62151
 Alpha  occ. eigenvalues --   -0.61707  -0.59874  -0.58402  -0.56555  -0.56172
 Alpha  occ. eigenvalues --   -0.55497  -0.53811  -0.53492  -0.51252  -0.48673
 Alpha  occ. eigenvalues --   -0.43597  -0.40874  -0.39390  -0.37835
 Alpha virt. eigenvalues --    0.18466   0.20510   0.21097   0.22637   0.26274
 Alpha virt. eigenvalues --    0.27516   0.29778   0.30737   0.31639   0.32062
 Alpha virt. eigenvalues --    0.32618   0.33649   0.34447   0.35105   0.36868

 Mulliken atomic charges:
              1
     1  H    0.213744
     2  C   -0.602928
     3  H    0.172844
     4  H    0.201560
     5  C    0.768598
     6  O   -0.564859
     7  N   -0.776458
     8  H    0.364614
     9  C   -0.064269
    10  H    0.192343
    11  C   -0.477614
    12  H    0.218062
    13  H    0.141730
    14  H    0.184396
    15  C    0.758994
    16  O   -0.597036
    17  N   -0.793198
    18  H    0.381971
    19  C   -0.275256
    20  H    0.205913
    21  H    0.167347
    22  H    0.179503
 Sum of Mulliken atomic charges =   0.00000

 Dipole moment (field-independent basis, Debye):
    X=              2.7253    Y=              2.2616    Z=             -4.3981  Tot=              5.6467
 Quadrupole moment (field-independent basis, Debye-Ang):
   XX=            -50.0992   YY=            -61.1829   ZZ=            -62.3266
   XY=              3.4812   XZ=              6.5441   YZ=              0.6620

 Normal termination of Gaussian 09 at Thu Feb  9 16:09:19 2017.
