 Gaussian 09, Revision A.02,
 Gaussian 09:  EM64L-G09RevA.02 11-Jun-2009

 -------------------------------------------
 # HF/6-31G* Opt=(ModRedundant) geom=nocrowd
 -------------------------------------------

 ------------------
 Phi Psi fixed scan
 ------------------
 Symbolic Z-matrix:
 Charge =  0 Multiplicity = 1

 SCF Done:  E(RHF) =  -492.705810066     A.U. after   17 cycles
 SCF Done:  E(RHF) =  -492.819271236     A.U. after   16 cycles
 SCF Done:  E(RHF) =  -492.823564094     A.U. after   14 cycles
 SCF Done:  E(RHF) =  -492.827287925     A.U. after   13 cycles
 SCF Done:  E(RHF) =  -492.827823531     A.U. after   13 cycles
 SCF Done:  E(RHF) =  -492.828162204     A.U. after   12 cycles
 SCF Done:  E(RHF) =  -492.828255614     A.U. after   12 cycles
 SCF Done:  E(RHF) =  -492.828364396     A.U. after   12 cycles
 SCF Done:  E(RHF) =  -492.828633701     A.U. after   14 cycles
 SCF Done:  E(RHF) =  -492.828760867     A.U. after   15 cycles
 SCF Done:  E(RHF) =  -492.829750091     A.U. after    8 cycles
 SCF Done:  E(RHF) =  -492.829750185     A.U. after    9 cycles
 SCF Done:  E(RHF) =  -492.829750424     A.U. after   10 cycles
 SCF Done:  E(RHF) =  -492.829750608     A.U. after   10 cycles
 SCF Done:  E(RHF) =  -492.829750434     A.U. after   10 cycles
 SCF Done:  E(RHF) =  -492.829750688     A.U. after   10 cycles
 SCF Done:  E(RHF) =  -492.829750699     A.U. after    9 cycles
 SCF Done:  E(RHF) =  -492.829750460     A.U. after    9 cycles
 SCF Done:  E(RHF) =  -492.829750785     A.U. after    9 cycles
 SCF Done:  E(RHF) =  -492.829750783     A.U. after    8 cycles
 Optimization completed.
    -- Stationary point found.

                         Standard orientation:
 ---------------------------------------------------------------------
 Center     Atomic      Atomic             Coordinates (Angstroms)
 Number     Number       Type             X           Y           Z
 ---------------------------------------------------------------------
      1          1           0       -3.770361   -1.509535   -0.065413
      2          6           0       -3.101995   -0.983103   -0.730112
      3          1           0       -3.665404   -0.257878   -1.309013
      4          1           0       -2.657425   -1.692990   -1.421705
      5          6           0       -2.018982   -0.312996    0.095849
      6          8           0       -1.895293   -0.520550    1.259889
      7          7           0       -1.273534    0.604729   -0.621821
      8          1           0       -1.526220    0.605516   -1.585257
      9          6           0        0.133169    0.981922   -0.458944
     10          1           0        0.458827    1.275815   -1.448873
     11          6           0        0.245334    2.194105    0.476682
     12          1           0       -0.117071    1.920852    1.459025
     13          1           0        1.274351    2.529405    0.563415
     14          1           0       -0.357562    3.009679    0.094878
     15          6           0        1.098622   -0.086033    0.077875
     16          8           0        0.908019   -0.747529    1.053202
     17          7           0        2.267615   -0.147171   -0.609479
     18          1           0        2.365654    0.342469   -1.466719
     19          6           0        3.329109   -1.041150   -0.198703
     20          1           0        3.558875   -0.891928    0.847010
     21          1           0        3.053601   -2.079879   -0.340779
     22          1           0        4.210805   -0.826262   -0.788073
 ---------------------------------------------------------------------

 The electronic state is 1-A.
 Alpha  occ. eigenvalues --  -20.51921 -20.51761 -15.58645 -15.58204 -11.34328
 Alpha  occ. eigenvalues --  -11.34146 -11.28962 -11.25765 -11.22849 -11.21812
 Alpha  occ. eigenvalues --   -1.39418  -1.38255  -1.23673  -1.22762  -1.05469
 Alpha  occ. eigenvalues --   -0.98859  -0.95697  -0.87425  -0.80479  -0.77235
 Alpha  occ. eigenvalues --   -0.70537  -0.68874  -0.65082  -0.63590  -0.62029
 Alpha  occ. eigenvalues --   -0.61598  -0.59974  -0.58409  -0.56754  -0.56264
 Alpha  occ. eigenvalues --   -0.55417  -0.53573  -0.52347  -0.50941  -0.49639
 Alpha  occ. eigenvalues --   -0.43307  -0.40893  -0.38828  -0.37186
 Alpha virt. eigenvalues --    0.19003   0.19745   0.21109   0.23120   0.26285
 Alpha virt. eigenvalues --    0.27464   0.28603   0.30593   0.31352   0.32095
 Alpha virt. eigenvalues --    0.33177   0.33348   0.34138   0.35051   0.38126

 Mulliken atomic charges:
              1
     1  H    0.217779
     2  C   -0.599709
     3  H    0.178988
     4  H    0.184901
     5  C    0.745992
     6  O   -0.542524
     7  N   -0.809511
     8  H    0.369951
     9  C   -0.022199
    10  H    0.166520
    11  C   -0.478030
    12  H    0.222955
    13  H    0.161047
    14  H    0.171812
    15  C    0.751445
    16  O   -0.572975
    17  N   -0.805244
    18  H    0.380618
    19  C   -0.268608
    20  H    0.200949
    21  H    0.182067
    22  H    0.163776
 Sum of Mulliken atomic charges =   0.00000

 Dipole moment (field-independent basis, Debye):
    X=              1.7487    Y=              1.8472    Z=             -6.5417  Tot=              7.0188
 Quadrupole moment (field-independent basis, Debye-Ang):
   XX=            -51.2372   YY=            -60.3023   ZZ=            -61.8192
   XY=              0.7017   XZ=              2.7410   YZ=              2.5155

 Normal termination of Gaussian 09 at Thu Feb  9 16:01:42 2017.
