 Gaussian 09, Revision A.02,
 Gaussian 09:  EM64L-G09RevA.02 11-Jun-2009

 -------------------------------------------
 # HF/6-31G* Opt=(ModRedundant) geom=nocrowd
 -------------------------------------------

 ------------------
 Phi Psi fixed scan
 ------------------
 Symbolic Z-matrix:
 Charge =  0 Multiplicity = 1

 SCF Done:  E(RHF) =  -492.815448711     A.U. after   15 cycles
 SCF Done:  E(RHF) =  -492.836163459     A.U. after   15 cycles
 SCF Done:  E(RHF) =  -492.842164206     A.U. after   13 cycles
 SCF Done:  E(RHF) =  -492.844296184     A.U. after   13 cycles
 SCF Done:  E(RHF) =  -492.845489790     A.U. after   13 cycles
 SCF Done:  E(RHF) =  -492.846051875     A.U. after   14 cycles
 SCF Done:  E(RHF) =  -492.846559015     A.U. after   13 cycles
 SCF Done:  E(RHF) =  -492.846790354     A.U. after   13 cycles
 SCF Done:  E(RHF) =  -492.847035875     A.U. after   12 cycles
 SCF Done:  E(RHF) =  -492.847299953     A.U. after   12 cycles
 SCF Done:  E(RHF) =  -492.847589065     A.U. after   12 cycles
 SCF Done:  E(RHF) =  -492.847714467     A.U. after   12 cycles
 SCF Done:  E(RHF) =  -492.847772282     A.U. after   11 cycles
 SCF Done:  E(RHF) =  -492.847784162     A.U. after   11 cycles
 SCF Done:  E(RHF) =  -492.847788164     A.U. after   10 cycles
 SCF Done:  E(RHF) =  -492.847792269     A.U. after   11 cycles
 SCF Done:  E(RHF) =  -492.847792687     A.U. after    9 cycles
 SCF Done:  E(RHF) =  -492.847793240     A.U. after    9 cycles
 SCF Done:  E(RHF) =  -492.847793592     A.U. after    8 cycles
 SCF Done:  E(RHF) =  -492.847793715     A.U. after    8 cycles
 Optimization completed.
    -- Stationary point found.

                         Standard orientation:
 ---------------------------------------------------------------------
 Center     Atomic      Atomic             Coordinates (Angstroms)
 Number     Number       Type             X           Y           Z
 ---------------------------------------------------------------------
      1          1           0        3.486128   -1.667468   -0.380215
      2          6           0        3.121499   -0.903981    0.291120
      3          1           0        3.810570   -0.067143    0.301270
      4          1           0        3.073388   -1.318857    1.293298
      5          6           0        1.728911   -0.497962   -0.140724
      6          8           0        1.033381   -1.227905   -0.795433
      7          7           0        1.346221    0.741369    0.252411
      8          1           0        1.976116    1.209718    0.863526
      9          6           0       -0.016880    1.281231    0.279658
     10          1           0       -0.067697    1.898134    1.164280
     11          6           0       -0.273784    2.152164   -0.952096
     12          1           0       -0.166965    1.582313   -1.867212
     13          1           0       -1.271871    2.575386   -0.926343
     14          1           0        0.444401    2.964516   -0.980905
     15          6           0       -1.127317    0.237653    0.522811
     16          8           0       -1.524500    0.074318    1.644534
     17          7           0       -1.679509   -0.369077   -0.551701
     18          1           0       -1.055377   -0.513073   -1.313588
     19          6           0       -2.644226   -1.428608   -0.333667
     20          1           0       -3.447100   -1.065183    0.290136
     21          1           0       -3.050388   -1.725366   -1.291781
     22          1           0       -2.198458   -2.293315    0.147148
 ---------------------------------------------------------------------

 The electronic state is 1-A.
 Alpha  occ. eigenvalues --  -20.53480 -20.52130 -15.59790 -15.56586 -11.36115
 Alpha  occ. eigenvalues --  -11.33914 -11.28579 -11.24159 -11.24038 -11.22525
 Alpha  occ. eigenvalues --   -1.40397  -1.38664  -1.24764  -1.21894  -1.05962
 Alpha  occ. eigenvalues --   -0.99918  -0.94221  -0.88551  -0.81027  -0.76296
 Alpha  occ. eigenvalues --   -0.71742  -0.69879  -0.64817  -0.64070  -0.62912
 Alpha  occ. eigenvalues --   -0.61568  -0.60168  -0.58052  -0.57360  -0.56617
 Alpha  occ. eigenvalues --   -0.54485  -0.53744  -0.52323  -0.51850  -0.50955
 Alpha  occ. eigenvalues --   -0.43269  -0.42776  -0.39417  -0.37528
 Alpha virt. eigenvalues --    0.18446   0.19075   0.22088   0.24934   0.25898
 Alpha virt. eigenvalues --    0.27961   0.29190   0.30088   0.31261   0.31916
 Alpha virt. eigenvalues --    0.32570   0.33874   0.34156   0.35641   0.37832

 Mulliken atomic charges:
              1
     1  H    0.217121
     2  C   -0.591926
     3  H    0.178767
     4  H    0.206151
     5  C    0.758439
     6  O   -0.623677
     7  N   -0.807169
     8  H    0.387706
     9  C   -0.036758
    10  H    0.218652
    11  C   -0.467290
    12  H    0.174685
    13  H    0.179032
    14  H    0.165772
    15  C    0.743763
    16  O   -0.608315
    17  N   -0.760525
    18  H    0.410117
    19  C   -0.283382
    20  H    0.194999
    21  H    0.166859
    22  H    0.176980
 Sum of Mulliken atomic charges =   0.00000

 Dipole moment (field-independent basis, Debye):
    X=              3.0533    Y=              1.9161    Z=             -0.8990  Tot=              3.7152
 Quadrupole moment (field-independent basis, Debye-Ang):
   XX=            -53.3715   YY=            -58.5032   ZZ=            -65.5924
   XY=              3.4608   XZ=              8.8872   YZ=              0.2162

 Normal termination of Gaussian 09 at Thu Feb  9 16:30:54 2017.
