 Gaussian 09, Revision A.02,
 Gaussian 09:  EM64L-G09RevA.02 11-Jun-2009

 -------------------------------------------
 # HF/6-31G* Opt=(ModRedundant) geom=nocrowd
 -------------------------------------------

 ------------------
 Phi Psi fixed scan
 ------------------
 Symbolic Z-matrix:
 Charge =  0 Multiplicity = 1

 SCF Done:  E(RHF) =  -492.620676081     A.U. after   17 cycles
 SCF Done:  E(RHF) =  -492.721466502     A.U. after   14 cycles
 SCF Done:  E(RHF) =  -492.801291464     A.U. after   14 cycles
 SCF Done:  E(RHF) =  -492.834130815     A.U. after   14 cycles
 SCF Done:  E(RHF) =  -492.842939745     A.U. after   14 cycles
 SCF Done:  E(RHF) =  -492.844499259     A.U. after   13 cycles
 SCF Done:  E(RHF) =  -492.844982323     A.U. after   11 cycles
 SCF Done:  E(RHF) =  -492.845269923     A.U. after   13 cycles
 SCF Done:  E(RHF) =  -492.845526187     A.U. after   12 cycles
 SCF Done:  E(RHF) =  -492.845719036     A.U. after   12 cycles
 SCF Done:  E(RHF) =  -492.846724174     A.U. after    9 cycles
 SCF Done:  E(RHF) =  -492.846727258     A.U. after   10 cycles
 SCF Done:  E(RHF) =  -492.846730138     A.U. after   10 cycles
 SCF Done:  E(RHF) =  -492.846732388     A.U. after   10 cycles
 SCF Done:  E(RHF) =  -492.846733032     A.U. after    9 cycles
 SCF Done:  E(RHF) =  -492.846733305     A.U. after    8 cycles
 SCF Done:  E(RHF) =  -492.846733512     A.U. after    8 cycles
 SCF Done:  E(RHF) =  -492.846733756     A.U. after    9 cycles
 SCF Done:  E(RHF) =  -492.846733963     A.U. after    9 cycles
 SCF Done:  E(RHF) =  -492.846734025     A.U. after    8 cycles
 Optimization completed.
    -- Stationary point found.

                         Standard orientation:
 ---------------------------------------------------------------------
 Center     Atomic      Atomic             Coordinates (Angstroms)
 Number     Number       Type             X           Y           Z
 ---------------------------------------------------------------------
      1          1           0       -3.835806   -1.038883    0.491802
      2          6           0       -3.281568   -0.622326   -0.337205
      3          1           0       -3.761665    0.288728   -0.673438
      4          1           0       -3.298971   -1.342547   -1.148811
      5          6           0       -1.843954   -0.423164    0.098824
      6          8           0       -1.326726   -1.206921    0.856755
      7          7           0       -1.238833    0.661402   -0.422831
      8          1           0       -1.807412    1.190532   -1.043690
      9          6           0        0.134851    1.185631   -0.361570
     10          1           0        0.300647    1.640397   -1.329595
     11          6           0        0.205343    2.283161    0.709299
     12          1           0        0.035830    1.856736    1.692381
     13          1           0        1.172495    2.763475    0.695211
     14          1           0       -0.563287    3.027293    0.528209
     15          6           0        1.368465    0.273742   -0.211447
     16          8           0        2.432007    0.838240   -0.263929
     17          7           0        1.254102   -1.056094   -0.128071
     18          1           0        0.389600   -1.426560    0.202007
     19          6           0        2.445812   -1.864945    0.023804
     20          1           0        3.138562   -1.660623   -0.779949
     21          1           0        2.950713   -1.672153    0.964307
     22          1           0        2.156465   -2.906693   -0.014958
 ---------------------------------------------------------------------

 The electronic state is 1-A.
 Alpha  occ. eigenvalues --  -20.53824 -20.51224 -15.60586 -15.56512 -11.36928
 Alpha  occ. eigenvalues --  -11.34108 -11.29147 -11.24537 -11.24362 -11.21983
 Alpha  occ. eigenvalues --   -1.40747  -1.38354  -1.25467  -1.21870  -1.06139
 Alpha  occ. eigenvalues --   -1.00054  -0.94938  -0.88270  -0.81719  -0.77087
 Alpha  occ. eigenvalues --   -0.72042  -0.70499  -0.64926  -0.64343  -0.62330
 Alpha  occ. eigenvalues --   -0.61361  -0.60552  -0.59096  -0.58317  -0.56330
 Alpha  occ. eigenvalues --   -0.54447  -0.54147  -0.52281  -0.51858  -0.49824
 Alpha  occ. eigenvalues --   -0.43397  -0.41994  -0.39800  -0.37677
 Alpha virt. eigenvalues --    0.18006   0.19295   0.21300   0.25824   0.26775
 Alpha virt. eigenvalues --    0.28533   0.28948   0.30674   0.31485   0.31693
 Alpha virt. eigenvalues --    0.33686   0.33873   0.34531   0.35269   0.38089

 Mulliken atomic charges:
              1
     1  H    0.218553
     2  C   -0.583917
     3  H    0.173019
     4  H    0.206953
     5  C    0.772340
     6  O   -0.643538
     7  N   -0.826266
     8  H    0.389005
     9  C   -0.016514
    10  H    0.214149
    11  C   -0.477287
    12  H    0.180267
    13  H    0.213389
    14  H    0.155739
    15  C    0.755997
    16  O   -0.629419
    17  N   -0.827889
    18  H    0.464408
    19  C   -0.275347
    20  H    0.191834
    21  H    0.176449
    22  H    0.168074
 Sum of Mulliken atomic charges =   0.00000

 Dipole moment (field-independent basis, Debye):
    X=             -4.3231    Y=              0.5046    Z=             -1.9433  Tot=              4.7666
 Quadrupole moment (field-independent basis, Debye-Ang):
   XX=            -61.3065   YY=            -58.7135   ZZ=            -60.7560
   XY=             -8.5421   XZ=              5.6880   YZ=              0.7396

 Normal termination of Gaussian 09 at Thu Feb  9 15:23:58 2017.
