 Gaussian 09, Revision A.02,
 Gaussian 09:  EM64L-G09RevA.02 11-Jun-2009

 -------------------------------------------
 # HF/6-31G* Opt=(ModRedundant) geom=nocrowd
 -------------------------------------------

 ------------------
 Phi Psi fixed scan
 ------------------
 Symbolic Z-matrix:
 Charge =  0 Multiplicity = 1

 SCF Done:  E(RHF) =  -492.742095623     A.U. after   16 cycles
 SCF Done:  E(RHF) =  -492.818781717     A.U. after   15 cycles
 SCF Done:  E(RHF) =  -492.820501050     A.U. after   15 cycles
 SCF Done:  E(RHF) =  -492.823487572     A.U. after   14 cycles
 SCF Done:  E(RHF) =  -492.827446910     A.U. after   13 cycles
 SCF Done:  E(RHF) =  -492.831533532     A.U. after   14 cycles
 SCF Done:  E(RHF) =  -492.833744058     A.U. after   14 cycles
 SCF Done:  E(RHF) =  -492.835875991     A.U. after   15 cycles
 SCF Done:  E(RHF) =  -492.836811780     A.U. after   14 cycles
 SCF Done:  E(RHF) =  -492.837771699     A.U. after   13 cycles
 SCF Done:  E(RHF) =  -492.838474033     A.U. after   13 cycles
 SCF Done:  E(RHF) =  -492.838340107     A.U. after   14 cycles
 SCF Done:  E(RHF) =  -492.838708652     A.U. after   13 cycles
 SCF Done:  E(RHF) =  -492.838637833     A.U. after   12 cycles
 SCF Done:  E(RHF) =  -492.838750217     A.U. after   11 cycles
 SCF Done:  E(RHF) =  -492.838751411     A.U. after   10 cycles
 SCF Done:  E(RHF) =  -492.838758771     A.U. after   11 cycles
 SCF Done:  E(RHF) =  -492.838763048     A.U. after   11 cycles
 SCF Done:  E(RHF) =  -492.838764379     A.U. after   10 cycles
 SCF Done:  E(RHF) =  -492.838764435     A.U. after    8 cycles
 Optimization completed.
    -- Stationary point found.

                         Standard orientation:
 ---------------------------------------------------------------------
 Center     Atomic      Atomic             Coordinates (Angstroms)
 Number     Number       Type             X           Y           Z
 ---------------------------------------------------------------------
      1          1           0       -3.540818   -1.542121    0.350740
      2          6           0       -2.966840   -1.037575   -0.412210
      3          1           0       -3.627976   -0.435119   -1.027290
      4          1           0       -2.487846   -1.777352   -1.045556
      5          6           0       -1.898072   -0.198427    0.246122
      6          8           0       -1.617740   -0.296081    1.401043
      7          7           0       -1.323713    0.769772   -0.569784
      8          1           0       -1.648085    0.684572   -1.509353
      9          6           0        0.110578    1.036818   -0.550953
     10          1           0        0.390847    1.297963   -1.565114
     11          6           0        0.393285    2.236633    0.365646
     12          1           0        0.162799    1.980548    1.392183
     13          1           0        1.421712    2.579307    0.309848
     14          1           0       -0.243095    3.061629    0.071794
     15          6           0        0.956732   -0.198951   -0.194814
     16          8           0        0.495076   -1.303574   -0.148654
     17          7           0        2.295560    0.012628   -0.167899
     18          1           0        2.633349    0.937137   -0.042103
     19          6           0        3.203321   -1.074116    0.141891
     20          1           0        3.000426   -1.912848   -0.507248
     21          1           0        4.216597   -0.734190   -0.027255
     22          1           0        3.106449   -1.405378    1.169929
 ---------------------------------------------------------------------

 The electronic state is 1-A.
 Alpha  occ. eigenvalues --  -20.52672 -20.51514 -15.58660 -15.57481 -11.34727
 Alpha  occ. eigenvalues --  -11.33861 -11.28788 -11.25729 -11.22629 -11.22188
 Alpha  occ. eigenvalues --   -1.40044  -1.37950  -1.23488  -1.22798  -1.05196
 Alpha  occ. eigenvalues --   -0.98653  -0.95423  -0.88172  -0.79819  -0.77294
 Alpha  occ. eigenvalues --   -0.70583  -0.69198  -0.64905  -0.63778  -0.61954
 Alpha  occ. eigenvalues --   -0.61536  -0.59882  -0.58168  -0.56358  -0.56225
 Alpha  occ. eigenvalues --   -0.55382  -0.53897  -0.53525  -0.51313  -0.48577
 Alpha  occ. eigenvalues --   -0.43089  -0.40935  -0.39431  -0.38200
 Alpha virt. eigenvalues --    0.18706   0.20383   0.21481   0.22963   0.26334
 Alpha virt. eigenvalues --    0.27535   0.30091   0.30932   0.31548   0.32041
 Alpha virt. eigenvalues --    0.32489   0.33974   0.34576   0.35361   0.36900

 Mulliken atomic charges:
              1
     1  H    0.212313
     2  C   -0.602855
     3  H    0.172818
     4  H    0.207290
     5  C    0.770680
     6  O   -0.580369
     7  N   -0.770770
     8  H    0.367491
     9  C   -0.061497
    10  H    0.201698
    11  C   -0.483032
    12  H    0.213052
    13  H    0.138297
    14  H    0.187252
    15  C    0.770737
    16  O   -0.610549
    17  N   -0.797281
    18  H    0.387516
    19  C   -0.274758
    20  H    0.202631
    21  H    0.166289
    22  H    0.183046
 Sum of Mulliken atomic charges =   0.00000

 Dipole moment (field-independent basis, Debye):
    X=              2.2061    Y=              2.6236    Z=             -3.4841  Tot=              4.8877
 Quadrupole moment (field-independent basis, Debye-Ang):
   XX=            -48.8354   YY=            -61.5578   ZZ=            -62.4013
   XY=              2.9279   XZ=              7.2217   YZ=             -0.0071

 Normal termination of Gaussian 09 at Thu Feb  9 16:13:06 2017.
