 Gaussian 09, Revision A.02,
 Gaussian 09:  EM64L-G09RevA.02 11-Jun-2009

 -------------------------------------------
 # HF/6-31G* Opt=(ModRedundant) geom=nocrowd
 -------------------------------------------

 ------------------
 Phi Psi fixed scan
 ------------------
 Symbolic Z-matrix:
 Charge =  0 Multiplicity = 1

 SCF Done:  E(RHF) =  -492.817624411     A.U. after   15 cycles
 SCF Done:  E(RHF) =  -492.836177637     A.U. after   14 cycles
 SCF Done:  E(RHF) =  -492.840068604     A.U. after   13 cycles
 SCF Done:  E(RHF) =  -492.840624343     A.U. after   13 cycles
 SCF Done:  E(RHF) =  -492.841058610     A.U. after   14 cycles
 SCF Done:  E(RHF) =  -492.841481867     A.U. after   13 cycles
 SCF Done:  E(RHF) =  -492.841809573     A.U. after   12 cycles
 SCF Done:  E(RHF) =  -492.842019690     A.U. after   13 cycles
 SCF Done:  E(RHF) =  -492.842132699     A.U. after   11 cycles
 SCF Done:  E(RHF) =  -492.842300844     A.U. after   11 cycles
 SCF Done:  E(RHF) =  -492.842531315     A.U. after   12 cycles
 SCF Done:  E(RHF) =  -492.842719059     A.U. after   13 cycles
 SCF Done:  E(RHF) =  -492.842844186     A.U. after   11 cycles
 SCF Done:  E(RHF) =  -492.842867465     A.U. after   11 cycles
 SCF Done:  E(RHF) =  -492.842875164     A.U. after   10 cycles
 SCF Done:  E(RHF) =  -492.842879374     A.U. after   10 cycles
 SCF Done:  E(RHF) =  -492.842882212     A.U. after   10 cycles
 SCF Done:  E(RHF) =  -492.842884288     A.U. after   10 cycles
 SCF Done:  E(RHF) =  -492.842884828     A.U. after    9 cycles
 SCF Done:  E(RHF) =  -492.842884910     A.U. after    8 cycles
 Optimization completed.
    -- Stationary point found.

                         Standard orientation:
 ---------------------------------------------------------------------
 Center     Atomic      Atomic             Coordinates (Angstroms)
 Number     Number       Type             X           Y           Z
 ---------------------------------------------------------------------
      1          1           0       -3.399663   -1.920871    0.308913
      2          6           0       -3.183346   -0.941430   -0.091111
      3          1           0       -3.751974   -0.202819    0.465998
      4          1           0       -3.494394   -0.894927   -1.129263
      5          6           0       -1.702153   -0.664332    0.069933
      6          8           0       -1.011670   -1.303731    0.807448
      7          7           0       -1.231194    0.345212   -0.717734
      8          1           0       -1.921054    0.841341   -1.237225
      9          6           0        0.010474    1.098451   -0.546434
     10          1           0        0.350343    1.352191   -1.544599
     11          6           0       -0.230993    2.385626    0.238677
     12          1           0       -0.529141    2.155599    1.252393
     13          1           0        0.670956    2.985408    0.279119
     14          1           0       -1.009505    2.974291   -0.238616
     15          6           0        1.137739    0.289927    0.122510
     16          8           0        1.398757    0.409296    1.281842
     17          7           0        1.932827   -0.386440   -0.746941
     18          1           0        1.525412   -0.630366   -1.622290
     19          6           0        2.950686   -1.284481   -0.237165
     20          1           0        3.578446   -0.751252    0.460554
     21          1           0        2.520735   -2.140970    0.270949
     22          1           0        3.557262   -1.626119   -1.065994
 ---------------------------------------------------------------------

 The electronic state is 1-A.
 Alpha  occ. eigenvalues --  -20.52614 -20.51561 -15.59225 -15.57680 -11.35253
 Alpha  occ. eigenvalues --  -11.33979 -11.28491 -11.24639 -11.23613 -11.21899
 Alpha  occ. eigenvalues --   -1.39784  -1.38403  -1.24413  -1.22220  -1.05496
 Alpha  occ. eigenvalues --   -0.99357  -0.95330  -0.87338  -0.80859  -0.76899
 Alpha  occ. eigenvalues --   -0.70451  -0.69068  -0.65688  -0.63785  -0.62370
 Alpha  occ. eigenvalues --   -0.61228  -0.60062  -0.58328  -0.57807  -0.55908
 Alpha  occ. eigenvalues --   -0.54235  -0.53357  -0.52626  -0.51154  -0.50877
 Alpha  occ. eigenvalues --   -0.42089  -0.40832  -0.39401  -0.38316
 Alpha virt. eigenvalues --    0.18909   0.20159   0.21944   0.23576   0.26318
 Alpha virt. eigenvalues --    0.27641   0.28466   0.30287   0.31437   0.31875
 Alpha virt. eigenvalues --    0.32429   0.33416   0.34008   0.35040   0.37957

 Mulliken atomic charges:
              1
     1  H    0.218191
     2  C   -0.592270
     3  H    0.196576
     4  H    0.177171
     5  C    0.745594
     6  O   -0.581668
     7  N   -0.810421
     8  H    0.377088
     9  C   -0.046985
    10  H    0.190719
    11  C   -0.472096
    12  H    0.207531
    13  H    0.178927
    14  H    0.145391
    15  C    0.798534
    16  O   -0.596209
    17  N   -0.780947
    18  H    0.376236
    19  C   -0.285256
    20  H    0.203905
    21  H    0.186393
    22  H    0.163597
 Sum of Mulliken atomic charges =   0.00000

 Dipole moment (field-independent basis, Debye):
    X=             -2.3575    Y=              1.2619    Z=             -5.1792  Tot=              5.8288
 Quadrupole moment (field-independent basis, Debye-Ang):
   XX=            -50.8262   YY=            -59.6840   ZZ=            -63.1299
   XY=             -4.8867   XZ=             -1.7798   YZ=              1.2979

 Normal termination of Gaussian 09 at Thu Feb  9 15:49:25 2017.
