 Gaussian 09, Revision A.02,
 Gaussian 09:  EM64L-G09RevA.02 11-Jun-2009

 -------------------------------------------
 # HF/6-31G* Opt=(ModRedundant) geom=nocrowd
 -------------------------------------------

 ------------------
 Phi Psi fixed scan
 ------------------
 Symbolic Z-matrix:
 Charge =  0 Multiplicity = 1

 SCF Done:  E(RHF) =  -492.757890353     A.U. after   16 cycles
 SCF Done:  E(RHF) =  -492.824854927     A.U. after   15 cycles
 SCF Done:  E(RHF) =  -492.825925394     A.U. after   14 cycles
 SCF Done:  E(RHF) =  -492.828014695     A.U. after   14 cycles
 SCF Done:  E(RHF) =  -492.830692084     A.U. after   13 cycles
 SCF Done:  E(RHF) =  -492.831137836     A.U. after   13 cycles
 SCF Done:  E(RHF) =  -492.831609686     A.U. after   13 cycles
 SCF Done:  E(RHF) =  -492.831747392     A.U. after   12 cycles
 SCF Done:  E(RHF) =  -492.832014558     A.U. after   13 cycles
 SCF Done:  E(RHF) =  -492.832253748     A.U. after   14 cycles
 SCF Done:  E(RHF) =  -492.833095660     A.U. after   13 cycles
 SCF Done:  E(RHF) =  -492.833213801     A.U. after   12 cycles
 SCF Done:  E(RHF) =  -492.833270455     A.U. after   11 cycles
 SCF Done:  E(RHF) =  -492.833320940     A.U. after   13 cycles
 SCF Done:  E(RHF) =  -492.833341695     A.U. after   12 cycles
 SCF Done:  E(RHF) =  -492.833342558     A.U. after   10 cycles
 SCF Done:  E(RHF) =  -492.833342789     A.U. after    7 cycles
 SCF Done:  E(RHF) =  -492.833342956     A.U. after    8 cycles
 SCF Done:  E(RHF) =  -492.833343092     A.U. after    9 cycles
 SCF Done:  E(RHF) =  -492.833343120     A.U. after    8 cycles
 Optimization completed.
    -- Stationary point found.

                         Standard orientation:
 ---------------------------------------------------------------------
 Center     Atomic      Atomic             Coordinates (Angstroms)
 Number     Number       Type             X           Y           Z
 ---------------------------------------------------------------------
      1          1           0       -3.843766   -1.475038    0.015074
      2          6           0       -3.418847   -0.518638   -0.250553
      3          1           0       -3.835163    0.245152    0.399748
      4          1           0       -3.688668   -0.274130   -1.272879
      5          6           0       -1.913109   -0.587055   -0.066791
      6          8           0       -1.389296   -1.494964    0.499928
      7          7           0       -1.249363    0.457849   -0.656538
      8          1           0       -1.853090    1.141575   -1.057096
      9          6           0        0.074072    1.018232   -0.394624
     10          1           0        0.416938    1.408488   -1.346319
     11          6           0       -0.011905    2.178932    0.602348
     12          1           0       -0.333169    1.811730    1.567969
     13          1           0        0.954764    2.657745    0.719111
     14          1           0       -0.717938    2.926183    0.251810
     15          6           0        1.142056    0.045945    0.131244
     16          8           0        1.122175   -0.393799    1.240414
     17          7           0        2.232816   -0.061905   -0.673399
     18          1           0        2.111908    0.116895   -1.643983
     19          6           0        3.327390   -0.933622   -0.296673
     20          1           0        3.646037   -0.694412    0.706732
     21          1           0        3.045230   -1.980673   -0.325027
     22          1           0        4.151771   -0.767779   -0.978033
 ---------------------------------------------------------------------

 The electronic state is 1-A.
 Alpha  occ. eigenvalues --  -20.51745 -20.51737 -15.58588 -15.58323 -11.34476
 Alpha  occ. eigenvalues --  -11.34216 -11.28834 -11.25189 -11.22973 -11.22514
 Alpha  occ. eigenvalues --   -1.39309  -1.38282  -1.23912  -1.22646  -1.05606
 Alpha  occ. eigenvalues --   -0.98947  -0.95613  -0.87640  -0.80697  -0.77238
 Alpha  occ. eigenvalues --   -0.69766  -0.68655  -0.65722  -0.63783  -0.62276
 Alpha  occ. eigenvalues --   -0.61378  -0.59838  -0.58008  -0.57738  -0.55871
 Alpha  occ. eigenvalues --   -0.54784  -0.54077  -0.52827  -0.51358  -0.50101
 Alpha  occ. eigenvalues --   -0.42182  -0.39963  -0.38736  -0.38553
 Alpha virt. eigenvalues --    0.19269   0.20540   0.21002   0.22828   0.26762
 Alpha virt. eigenvalues --    0.27081   0.28509   0.30871   0.31254   0.32180
 Alpha virt. eigenvalues --    0.32666   0.33138   0.34014   0.34869   0.37616

 Mulliken atomic charges:
              1
     1  H    0.217199
     2  C   -0.596159
     3  H    0.189628
     4  H    0.176421
     5  C    0.744176
     6  O   -0.560202
     7  N   -0.809924
     8  H    0.372462
     9  C   -0.024476
    10  H    0.178631
    11  C   -0.486671
    12  H    0.211441
    13  H    0.176046
    14  H    0.152676
    15  C    0.778670
    16  O   -0.579264
    17  N   -0.790446
    18  H    0.377329
    19  C   -0.280770
    20  H    0.205537
    21  H    0.182606
    22  H    0.165091
 Sum of Mulliken atomic charges =   0.00000

 Dipole moment (field-independent basis, Debye):
    X=             -0.4489    Y=              3.8493    Z=             -4.6205  Tot=              6.0306
 Quadrupole moment (field-independent basis, Debye-Ang):
   XX=            -47.8213   YY=            -62.4038   ZZ=            -61.4795
   XY=             -4.8838   XZ=             -2.4505   YZ=              2.3195

 Normal termination of Gaussian 09 at Thu Feb  9 15:54:59 2017.
