 Gaussian 09, Revision A.02,
 Gaussian 09:  EM64L-G09RevA.02 11-Jun-2009

 -------------------------------------------
 # HF/6-31G* Opt=(ModRedundant) geom=nocrowd
 -------------------------------------------

 ------------------
 Phi Psi fixed scan
 ------------------
 Symbolic Z-matrix:
 Charge =  0 Multiplicity = 1

 SCF Done:  E(RHF) =  -492.835053423     A.U. after   15 cycles
 SCF Done:  E(RHF) =  -492.845120257     A.U. after   14 cycles
 SCF Done:  E(RHF) =  -492.846661134     A.U. after   13 cycles
 SCF Done:  E(RHF) =  -492.847089167     A.U. after   13 cycles
 SCF Done:  E(RHF) =  -492.847586462     A.U. after   13 cycles
 SCF Done:  E(RHF) =  -492.847892271     A.U. after   13 cycles
 SCF Done:  E(RHF) =  -492.848113870     A.U. after   12 cycles
 SCF Done:  E(RHF) =  -492.848303116     A.U. after   11 cycles
 SCF Done:  E(RHF) =  -492.848546335     A.U. after   13 cycles
 SCF Done:  E(RHF) =  -492.848702855     A.U. after   12 cycles
 SCF Done:  E(RHF) =  -492.849076278     A.U. after   13 cycles
 SCF Done:  E(RHF) =  -492.849126203     A.U. after   11 cycles
 SCF Done:  E(RHF) =  -492.849139136     A.U. after   11 cycles
 SCF Done:  E(RHF) =  -492.849145516     A.U. after   11 cycles
 SCF Done:  E(RHF) =  -492.849156562     A.U. after   11 cycles
 SCF Done:  E(RHF) =  -492.849164493     A.U. after   11 cycles
 SCF Done:  E(RHF) =  -492.849170378     A.U. after   10 cycles
 SCF Done:  E(RHF) =  -492.849173954     A.U. after   10 cycles
 SCF Done:  E(RHF) =  -492.849174654     A.U. after    9 cycles
 SCF Done:  E(RHF) =  -492.849175017     A.U. after    8 cycles
 Optimization completed.
    -- Stationary point found.

                         Standard orientation:
 ---------------------------------------------------------------------
 Center     Atomic      Atomic             Coordinates (Angstroms)
 Number     Number       Type             X           Y           Z
 ---------------------------------------------------------------------
      1          1           0       -3.114510   -2.056060    0.337953
      2          6           0       -3.035534   -1.041097   -0.023552
      3          1           0       -3.708922   -0.417927    0.556685
      4          1           0       -3.341807   -0.998378   -1.062687
      5          6           0       -1.615295   -0.558260    0.187313
      6          8           0       -0.909458   -1.018848    1.040218
      7          7           0       -1.221323    0.439367   -0.644378
      8          1           0       -1.894017    0.790649   -1.287168
      9          6           0        0.038199    1.177288   -0.584890
     10          1           0        0.306343    1.399225   -1.613241
     11          6           0       -0.124338    2.483714    0.186163
     12          1           0       -0.357660    2.281737    1.223386
     13          1           0        0.787299    3.065427    0.152589
     14          1           0       -0.928187    3.070770   -0.248331
     15          6           0        1.207374    0.353926   -0.018647
     16          8           0        1.879771    0.768916    0.878430
     17          7           0        1.510707   -0.769103   -0.718748
     18          1           0        0.768396   -1.160961   -1.252776
     19          6           0        2.458620   -1.715769   -0.165250
     20          1           0        3.374482   -1.201439    0.083143
     21          1           0        2.074201   -2.194812    0.728875
     22          1           0        2.672040   -2.469431   -0.912538
 ---------------------------------------------------------------------

 The electronic state is 1-A.
 Alpha  occ. eigenvalues --  -20.53186 -20.51804 -15.59945 -15.56956 -11.35944
 Alpha  occ. eigenvalues --  -11.33942 -11.28508 -11.24209 -11.24198 -11.21457
 Alpha  occ. eigenvalues --   -1.40327  -1.38550  -1.25024  -1.21820  -1.05673
 Alpha  occ. eigenvalues --   -0.99700  -0.94999  -0.87348  -0.81317  -0.76697
 Alpha  occ. eigenvalues --   -0.71376  -0.69651  -0.65370  -0.64258  -0.62449
 Alpha  occ. eigenvalues --   -0.61100  -0.60210  -0.58625  -0.57963  -0.56000
 Alpha  occ. eigenvalues --   -0.53909  -0.52792  -0.52316  -0.51807  -0.50878
 Alpha  occ. eigenvalues --   -0.42572  -0.41537  -0.39757  -0.38023
 Alpha virt. eigenvalues --    0.18608   0.19453   0.22370   0.24830   0.25968
 Alpha virt. eigenvalues --    0.28125   0.28836   0.29517   0.30952   0.31778
 Alpha virt. eigenvalues --    0.32677   0.33593   0.33782   0.35050   0.37916

 Mulliken atomic charges:
              1
     1  H    0.217207
     2  C   -0.586052
     3  H    0.205212
     4  H    0.172283
     5  C    0.743024
     6  O   -0.596981
     7  N   -0.824151
     8  H    0.384835
     9  C   -0.042901
    10  H    0.199967
    11  C   -0.457499
    12  H    0.197376
    13  H    0.188360
    14  H    0.144126
    15  C    0.784956
    16  O   -0.603366
    17  N   -0.765527
    18  H    0.375632
    19  C   -0.286780
    20  H    0.200783
    21  H    0.187983
    22  H    0.161512
 Sum of Mulliken atomic charges =   0.00000

 Dipole moment (field-independent basis, Debye):
    X=             -3.9402    Y=             -0.1521    Z=             -4.7310  Tot=              6.1588
 Quadrupole moment (field-independent basis, Debye-Ang):
   XX=            -55.9861   YY=            -57.7162   ZZ=            -62.9771
   XY=             -4.8006   XZ=             -0.1896   YZ=              0.1782

 Normal termination of Gaussian 09 at Thu Feb  9 15:44:08 2017.
