 Gaussian 09, Revision A.02,
 Gaussian 09:  EM64L-G09RevA.02 11-Jun-2009

 -------------------------------------------
 # HF/6-31G* Opt=(ModRedundant) geom=nocrowd
 -------------------------------------------

 ------------------
 Phi Psi fixed scan
 ------------------
 Symbolic Z-matrix:
 Charge =  0 Multiplicity = 1

 SCF Done:  E(RHF) =  -491.991811773     A.U. after   17 cycles
 SCF Done:  E(RHF) =  -492.340390737     A.U. after   15 cycles
 SCF Done:  E(RHF) =  -492.663939188     A.U. after   15 cycles
 SCF Done:  E(RHF) =  -492.796690904     A.U. after   15 cycles
 SCF Done:  E(RHF) =  -492.782171910     A.U. after   14 cycles
 SCF Done:  E(RHF) =  -492.816109747     A.U. after   14 cycles
 SCF Done:  E(RHF) =  -492.826725005     A.U. after   13 cycles
 SCF Done:  E(RHF) =  -492.839297925     A.U. after   14 cycles
 SCF Done:  E(RHF) =  -492.844032668     A.U. after   13 cycles
 SCF Done:  E(RHF) =  -492.845846904     A.U. after   13 cycles
 SCF Done:  E(RHF) =  -492.847161681     A.U. after   11 cycles
 SCF Done:  E(RHF) =  -492.847219753     A.U. after   11 cycles
 SCF Done:  E(RHF) =  -492.847266498     A.U. after   11 cycles
 SCF Done:  E(RHF) =  -492.847292398     A.U. after   12 cycles
 SCF Done:  E(RHF) =  -492.847303927     A.U. after   11 cycles
 SCF Done:  E(RHF) =  -492.847305280     A.U. after   11 cycles
 SCF Done:  E(RHF) =  -492.847312340     A.U. after   11 cycles
 SCF Done:  E(RHF) =  -492.847312591     A.U. after    8 cycles
 SCF Done:  E(RHF) =  -492.847312654     A.U. after    8 cycles
 SCF Done:  E(RHF) =  -492.847312669     A.U. after    7 cycles
 Optimization completed.
    -- Stationary point found.

                         Standard orientation:
 ---------------------------------------------------------------------
 Center     Atomic      Atomic             Coordinates (Angstroms)
 Number     Number       Type             X           Y           Z
 ---------------------------------------------------------------------
      1          1           0       -3.840072   -1.177819    0.263042
      2          6           0       -3.294848   -0.566804   -0.441392
      3          1           0       -3.800094    0.383646   -0.566039
      4          1           0       -3.283981   -1.078147   -1.398941
      5          6           0       -1.867958   -0.421871    0.048431
      6          8           0       -1.368047   -1.288663    0.721913
      7          7           0       -1.261624    0.724538   -0.323161
      8          1           0       -1.826188    1.311788   -0.893677
      9          6           0        0.126134    1.216208   -0.257649
     10          1           0        0.244877    1.828040   -1.138703
     11          6           0        0.298307    2.104896    0.983897
     12          1           0        0.177023    1.516786    1.887136
     13          1           0        1.280838    2.558572    0.987339
     14          1           0       -0.450353    2.889769    0.987795
     15          6           0        1.347817    0.281508   -0.328197
     16          8           0        2.355968    0.785019   -0.761335
     17          7           0        1.297223   -0.969772    0.122693
     18          1           0        0.444168   -1.318820    0.503175
     19          6           0        2.482279   -1.798901    0.117369
     20          1           0        2.889980   -1.883423   -0.881719
     21          1           0        3.251712   -1.391376    0.762190
     22          1           0        2.209139   -2.783440    0.472298
 ---------------------------------------------------------------------

 The electronic state is 1-A.
 Alpha  occ. eigenvalues --  -20.54083 -20.50806 -15.60538 -15.56455 -11.37005
 Alpha  occ. eigenvalues --  -11.33789 -11.28994 -11.24532 -11.24438 -11.22400
 Alpha  occ. eigenvalues --   -1.40856  -1.37934  -1.25410  -1.21817  -1.06262
 Alpha  occ. eigenvalues --   -1.00172  -0.94905  -0.88495  -0.81648  -0.77264
 Alpha  occ. eigenvalues --   -0.72055  -0.70586  -0.64620  -0.64199  -0.62012
 Alpha  occ. eigenvalues --   -0.61785  -0.60610  -0.58754  -0.58353  -0.56797
 Alpha  occ. eigenvalues --   -0.54562  -0.54222  -0.52480  -0.52073  -0.49737
 Alpha  occ. eigenvalues --   -0.43606  -0.42361  -0.39129  -0.37334
 Alpha virt. eigenvalues --    0.18344   0.19798   0.20948   0.25647   0.26629
 Alpha virt. eigenvalues --    0.28144   0.29023   0.30682   0.31203   0.31961
 Alpha virt. eigenvalues --    0.32963   0.34013   0.34720   0.35547   0.37815

 Mulliken atomic charges:
              1
     1  H    0.219293
     2  C   -0.587963
     3  H    0.176135
     4  H    0.205971
     5  C    0.777252
     6  O   -0.642965
     7  N   -0.827555
     8  H    0.389313
     9  C   -0.013896
    10  H    0.216990
    11  C   -0.481577
    12  H    0.182497
    13  H    0.203303
    14  H    0.163642
    15  C    0.744343
    16  O   -0.636045
    17  N   -0.833872
    18  H    0.478135
    19  C   -0.267817
    20  H    0.185206
    21  H    0.180553
    22  H    0.169056
 Sum of Mulliken atomic charges =   0.00000

 Dipole moment (field-independent basis, Debye):
    X=             -4.2515    Y=              0.7966    Z=             -0.7191  Tot=              4.3849
 Quadrupole moment (field-independent basis, Debye-Ang):
   XX=            -60.8790   YY=            -58.7862   ZZ=            -61.3956
   XY=             -8.9763   XZ=              8.4248   YZ=              1.6923

 Normal termination of Gaussian 09 at Thu Feb  9 16:47:27 2017.
