 Gaussian 09, Revision A.02,
 Gaussian 09:  EM64L-G09RevA.02 11-Jun-2009

 -------------------------------------------
 # HF/6-31G* Opt=(ModRedundant) geom=nocrowd
 -------------------------------------------

 ------------------
 Phi Psi fixed scan
 ------------------
 Symbolic Z-matrix:
 Charge =  0 Multiplicity = 1

 SCF Done:  E(RHF) =  -492.783867045     A.U. after   15 cycles
 SCF Done:  E(RHF) =  -492.823082019     A.U. after   15 cycles
 SCF Done:  E(RHF) =  -492.832003302     A.U. after   13 cycles
 SCF Done:  E(RHF) =  -492.836962212     A.U. after   15 cycles
 SCF Done:  E(RHF) =  -492.839269584     A.U. after   14 cycles
 SCF Done:  E(RHF) =  -492.840570826     A.U. after   14 cycles
 SCF Done:  E(RHF) =  -492.841492064     A.U. after   13 cycles
 SCF Done:  E(RHF) =  -492.841805700     A.U. after   13 cycles
 SCF Done:  E(RHF) =  -492.842105938     A.U. after   13 cycles
 SCF Done:  E(RHF) =  -492.842205085     A.U. after   12 cycles
 SCF Done:  E(RHF) =  -492.842709456     A.U. after   11 cycles
 SCF Done:  E(RHF) =  -492.842746095     A.U. after   11 cycles
 SCF Done:  E(RHF) =  -492.842450102     A.U. after   14 cycles
 SCF Done:  E(RHF) =  -492.842990519     A.U. after   14 cycles
 SCF Done:  E(RHF) =  -492.842952226     A.U. after   12 cycles
 SCF Done:  E(RHF) =  -492.843022557     A.U. after   11 cycles
 SCF Done:  E(RHF) =  -492.843028066     A.U. after   10 cycles
 SCF Done:  E(RHF) =  -492.843028729     A.U. after    9 cycles
 SCF Done:  E(RHF) =  -492.843028774     A.U. after    8 cycles
 SCF Done:  E(RHF) =  -492.843028786     A.U. after    7 cycles
 Optimization completed.
    -- Stationary point found.

                         Standard orientation:
 ---------------------------------------------------------------------
 Center     Atomic      Atomic             Coordinates (Angstroms)
 Number     Number       Type             X           Y           Z
 ---------------------------------------------------------------------
      1          1           0       -3.518148   -1.500317    0.561035
      2          6           0       -3.021353   -0.983454   -0.246638
      3          1           0       -3.723864   -0.324791   -0.746750
      4          1           0       -2.661215   -1.712402   -0.965773
      5          6           0       -1.836624   -0.227187    0.303225
      6          8           0       -1.381843   -0.432515    1.388702
      7          7           0       -1.350315    0.779778   -0.509692
      8          1           0       -1.754460    0.754516   -1.420772
      9          6           0        0.078366    1.067334   -0.564603
     10          1           0        0.301838    1.339054   -1.590610
     11          6           0        0.403763    2.262292    0.339103
     12          1           0        0.271013    1.996438    1.380963
     13          1           0        1.412390    2.634323    0.188050
     14          1           0       -0.277121    3.072146    0.109962
     15          6           0        0.933172   -0.186569   -0.303785
     16          8           0        0.512107   -1.281829   -0.552139
     17          7           0        2.239594    0.029972   -0.023393
     18          1           0        2.499888    0.896529    0.383808
     19          6           0        3.126546   -1.094643    0.202932
     20          1           0        3.070879   -1.773780   -0.634602
     21          1           0        4.138819   -0.721780    0.288190
     22          1           0        2.869694   -1.640062    1.104180
 ---------------------------------------------------------------------

 The electronic state is 1-A.
 Alpha  occ. eigenvalues --  -20.52206 -20.51779 -15.58478 -15.57671 -11.34519
 Alpha  occ. eigenvalues --  -11.34054 -11.28640 -11.25461 -11.22660 -11.22343
 Alpha  occ. eigenvalues --   -1.39857  -1.38052  -1.23337  -1.22931  -1.05244
 Alpha  occ. eigenvalues --   -0.98788  -0.95190  -0.88327  -0.79731  -0.77322
 Alpha  occ. eigenvalues --   -0.70762  -0.69330  -0.64685  -0.64004  -0.61687
 Alpha  occ. eigenvalues --   -0.61486  -0.59939  -0.58047  -0.56423  -0.56097
 Alpha  occ. eigenvalues --   -0.55229  -0.54097  -0.53347  -0.51425  -0.48650
 Alpha  occ. eigenvalues --   -0.42509  -0.41180  -0.39379  -0.38603
 Alpha virt. eigenvalues --    0.18792   0.20226   0.22332   0.23298   0.26473
 Alpha virt. eigenvalues --    0.27598   0.29890   0.30704   0.31319   0.31990
 Alpha virt. eigenvalues --    0.32736   0.34237   0.34367   0.35411   0.37110

 Mulliken atomic charges:
              1
     1  H    0.212001
     2  C   -0.601792
     3  H    0.174269
     4  H    0.210758
     5  C    0.767936
     6  O   -0.592384
     7  N   -0.768878
     8  H    0.371676
     9  C   -0.050542
    10  H    0.206948
    11  C   -0.496970
    12  H    0.206369
    13  H    0.145497
    14  H    0.188756
    15  C    0.781480
    16  O   -0.621824
    17  N   -0.800150
    18  H    0.391235
    19  C   -0.277262
    20  H    0.201817
    21  H    0.165744
    22  H    0.185315
 Sum of Mulliken atomic charges =   0.00000

 Dipole moment (field-independent basis, Debye):
    X=              1.3878    Y=              2.9277    Z=             -2.4631  Tot=              4.0699
 Quadrupole moment (field-independent basis, Debye-Ang):
   XX=            -48.0329   YY=            -61.6837   ZZ=            -62.5032
   XY=              2.1249   XZ=              7.5673   YZ=             -0.7564

 Normal termination of Gaussian 09 at Thu Feb  9 16:16:20 2017.
