 Gaussian 09, Revision A.02,
 Gaussian 09:  EM64L-G09RevA.02 11-Jun-2009

 -------------------------------------------
 # HF/6-31G* Opt=(ModRedundant) geom=nocrowd
 -------------------------------------------

 ------------------
 Phi Psi fixed scan
 ------------------
 Symbolic Z-matrix:
 Charge =  0 Multiplicity = 1

 SCF Done:  E(RHF) =  -492.807856515     A.U. after   15 cycles
 SCF Done:  E(RHF) =  -492.831032180     A.U. after   17 cycles
 SCF Done:  E(RHF) =  -492.840131854     A.U. after   14 cycles
 SCF Done:  E(RHF) =  -492.842466525     A.U. after   14 cycles
 SCF Done:  E(RHF) =  -492.843548785     A.U. after   14 cycles
 SCF Done:  E(RHF) =  -492.844742126     A.U. after   13 cycles
 SCF Done:  E(RHF) =  -492.845246683     A.U. after   13 cycles
 SCF Done:  E(RHF) =  -492.845405461     A.U. after   13 cycles
 SCF Done:  E(RHF) =  -492.845650342     A.U. after   12 cycles
 SCF Done:  E(RHF) =  -492.845733785     A.U. after   11 cycles
 SCF Done:  E(RHF) =  -492.846363970     A.U. after   12 cycles
 SCF Done:  E(RHF) =  -492.846331286     A.U. after   11 cycles
 SCF Done:  E(RHF) =  -492.846368414     A.U. after   11 cycles
 SCF Done:  E(RHF) =  -492.846453675     A.U. after   12 cycles
 SCF Done:  E(RHF) =  -492.846493561     A.U. after   11 cycles
 SCF Done:  E(RHF) =  -492.846507523     A.U. after   11 cycles
 SCF Done:  E(RHF) =  -492.846511699     A.U. after   11 cycles
 SCF Done:  E(RHF) =  -492.846512188     A.U. after    9 cycles
 SCF Done:  E(RHF) =  -492.846512405     A.U. after    8 cycles
 SCF Done:  E(RHF) =  -492.846512492     A.U. after    8 cycles
 Optimization completed.
    -- Stationary point found.

                         Standard orientation:
 ---------------------------------------------------------------------
 Center     Atomic      Atomic             Coordinates (Angstroms)
 Number     Number       Type             X           Y           Z
 ---------------------------------------------------------------------
      1          1           0       -3.458839   -1.511219    0.730434
      2          6           0       -3.044366   -0.963637   -0.103121
      3          1           0       -3.777037   -0.257807   -0.479450
      4          1           0       -2.800412   -1.662542   -0.897318
      5          6           0       -1.774303   -0.277302    0.337088
      6          8           0       -1.174606   -0.592130    1.323759
      7          7           0       -1.371646    0.778386   -0.446461
      8          1           0       -1.855929    0.830175   -1.315717
      9          6           0        0.043697    1.109896   -0.566448
     10          1           0        0.204453    1.421792   -1.592497
     11          6           0        0.390206    2.279584    0.357779
     12          1           0        0.287628    1.989159    1.397199
     13          1           0        1.394735    2.651787    0.183044
     14          1           0       -0.298181    3.094510    0.171382
     15          6           0        0.924891   -0.143934   -0.415665
     16          8           0        0.580834   -1.176637   -0.921627
     17          7           0        2.158744    0.029672    0.106619
     18          1           0        2.302973    0.796848    0.719709
     19          6           0        3.034242   -1.113959    0.275293
     20          1           0        3.134819   -1.633206   -0.665893
     21          1           0        4.007466   -0.758921    0.588198
     22          1           0        2.652608   -1.810723    1.013196
 ---------------------------------------------------------------------

 The electronic state is 1-A.
 Alpha  occ. eigenvalues --  -20.52186 -20.51677 -15.58211 -15.57999 -11.34391
 Alpha  occ. eigenvalues --  -11.34263 -11.28466 -11.25149 -11.22656 -11.22621
 Alpha  occ. eigenvalues --   -1.39757  -1.38110  -1.23398  -1.22883  -1.05327
 Alpha  occ. eigenvalues --   -0.99015  -0.94946  -0.88384  -0.79771  -0.77290
 Alpha  occ. eigenvalues --   -0.70966  -0.69488  -0.64496  -0.64109  -0.61739
 Alpha  occ. eigenvalues --   -0.61372  -0.59913  -0.57950  -0.56606  -0.55979
 Alpha  occ. eigenvalues --   -0.55029  -0.54240  -0.53181  -0.51590  -0.48864
 Alpha  occ. eigenvalues --   -0.42048  -0.41495  -0.39246  -0.38793
 Alpha virt. eigenvalues --    0.18767   0.20180   0.22986   0.23618   0.26555
 Alpha virt. eigenvalues --    0.27668   0.29928   0.30417   0.31223   0.31674
 Alpha virt. eigenvalues --    0.33053   0.33599   0.34483   0.35223   0.37549

 Mulliken atomic charges:
              1
     1  H    0.212661
     2  C   -0.599657
     3  H    0.176271
     4  H    0.211536
     5  C    0.764439
     6  O   -0.601112
     7  N   -0.770407
     8  H    0.376187
     9  C   -0.041621
    10  H    0.208299
    11  C   -0.504385
    12  H    0.198687
    13  H    0.156432
    14  H    0.186467
    15  C    0.789313
    16  O   -0.629486
    17  N   -0.801002
    18  H    0.392845
    19  C   -0.279268
    20  H    0.201525
    21  H    0.165129
    22  H    0.187145
 Sum of Mulliken atomic charges =   0.00000

 Dipole moment (field-independent basis, Debye):
    X=              0.4601    Y=              3.1148    Z=             -1.4262  Tot=              3.4565
 Quadrupole moment (field-independent basis, Debye-Ang):
   XX=            -47.8330   YY=            -61.4427   ZZ=            -62.8024
   XY=              1.3788   XZ=              7.5774   YZ=             -1.5628

 Normal termination of Gaussian 09 at Thu Feb  9 16:19:34 2017.
