 Gaussian 09, Revision A.02,
 Gaussian 09:  EM64L-G09RevA.02 11-Jun-2009

 -------------------------------------------
 # HF/6-31G* Opt=(ModRedundant) geom=nocrowd
 -------------------------------------------

 ------------------
 Phi Psi fixed scan
 ------------------
 Symbolic Z-matrix:
 Charge =  0 Multiplicity = 1

 SCF Done:  E(RHF) =  -492.754213547     A.U. after   15 cycles
 SCF Done:  E(RHF) =  -492.819494308     A.U. after   14 cycles
 SCF Done:  E(RHF) =  -492.835554733     A.U. after   14 cycles
 SCF Done:  E(RHF) =  -492.843262942     A.U. after   13 cycles
 SCF Done:  E(RHF) =  -492.844172939     A.U. after   13 cycles
 SCF Done:  E(RHF) =  -492.844865833     A.U. after   13 cycles
 SCF Done:  E(RHF) =  -492.845175252     A.U. after   12 cycles
 SCF Done:  E(RHF) =  -492.845277771     A.U. after   12 cycles
 SCF Done:  E(RHF) =  -492.845410375     A.U. after   12 cycles
 SCF Done:  E(RHF) =  -492.845547464     A.U. after   11 cycles
 SCF Done:  E(RHF) =  -492.846373941     A.U. after   10 cycles
 SCF Done:  E(RHF) =  -492.846405280     A.U. after   11 cycles
 SCF Done:  E(RHF) =  -492.846435665     A.U. after   11 cycles
 SCF Done:  E(RHF) =  -492.846446048     A.U. after   11 cycles
 SCF Done:  E(RHF) =  -492.846448533     A.U. after   10 cycles
 SCF Done:  E(RHF) =  -492.846448452     A.U. after    9 cycles
 SCF Done:  E(RHF) =  -492.846447290     A.U. after   10 cycles
 SCF Done:  E(RHF) =  -492.846448879     A.U. after   10 cycles
 SCF Done:  E(RHF) =  -492.846448898     A.U. after    7 cycles
 SCF Done:  E(RHF) =  -492.846448889     A.U. after    6 cycles
 Optimization completed.
    -- Stationary point found.

                         Standard orientation:
 ---------------------------------------------------------------------
 Center     Atomic      Atomic             Coordinates (Angstroms)
 Number     Number       Type             X           Y           Z
 ---------------------------------------------------------------------
      1          1           0       -3.789044   -1.048912    0.602031
      2          6           0       -3.252256   -0.693077   -0.265981
      3          1           0       -3.752918    0.178549   -0.669917
      4          1           0       -3.266609   -1.478576   -1.014584
      5          6           0       -1.813911   -0.433099    0.133438
      6          8           0       -1.262084   -1.149221    0.931825
      7          7           0       -1.235411    0.621306   -0.473495
      8          1           0       -1.814348    1.103857   -1.122009
      9          6           0        0.124442    1.172857   -0.416685
     10          1           0        0.318600    1.540408   -1.418038
     11          6           0        0.144412    2.361669    0.551058
     12          1           0       -0.049882    2.021986    1.562584
     13          1           0        1.103018    2.857117    0.526740
     14          1           0       -0.629917    3.071574    0.278476
     15          6           0        1.350625    0.276576   -0.152691
     16          8           0        2.398208    0.846767    0.003302
     17          7           0        1.259027   -1.060563   -0.262548
     18          1           0        0.390206   -1.466872    0.004320
     19          6           0        2.445519   -1.862028   -0.035592
     20          1           0        3.235424   -1.546786   -0.701519
     21          1           0        2.806422   -1.779491    0.984172
     22          1           0        2.201756   -2.895800   -0.242259
 ---------------------------------------------------------------------

 The electronic state is 1-A.
 Alpha  occ. eigenvalues --  -20.53657 -20.51682 -15.60522 -15.56522 -11.36779
 Alpha  occ. eigenvalues --  -11.34260 -11.29141 -11.24517 -11.24294 -11.21762
 Alpha  occ. eigenvalues --   -1.40670  -1.38693  -1.25438  -1.21842  -1.06064
 Alpha  occ. eigenvalues --   -0.99994  -0.94883  -0.88105  -0.81712  -0.76840
 Alpha  occ. eigenvalues --   -0.72000  -0.70382  -0.65122  -0.64448  -0.62498
 Alpha  occ. eigenvalues --   -0.61307  -0.60525  -0.59022  -0.58235  -0.56132
 Alpha  occ. eigenvalues --   -0.54435  -0.53799  -0.52265  -0.51705  -0.50087
 Alpha  occ. eigenvalues --   -0.43363  -0.41890  -0.40097  -0.37871
 Alpha virt. eigenvalues --    0.17855   0.19207   0.21457   0.25810   0.26664
 Alpha virt. eigenvalues --    0.28622   0.28947   0.30465   0.31463   0.31830
 Alpha virt. eigenvalues --    0.33540   0.33865   0.34251   0.35184   0.38208

 Mulliken atomic charges:
              1
     1  H    0.218535
     2  C   -0.582904
     3  H    0.172682
     4  H    0.206116
     5  C    0.764151
     6  O   -0.638056
     7  N   -0.823899
     8  H    0.388677
     9  C   -0.022703
    10  H    0.212868
    11  C   -0.472110
    12  H    0.181116
    13  H    0.213285
    14  H    0.151811
    15  C    0.761053
    16  O   -0.620344
    17  N   -0.811376
    18  H    0.444704
    19  C   -0.279680
    20  H    0.192525
    21  H    0.176746
    22  H    0.166801
 Sum of Mulliken atomic charges =   0.00000

 Dipole moment (field-independent basis, Debye):
    X=             -4.2897    Y=              0.3297    Z=             -2.6032  Tot=              5.0286
 Quadrupole moment (field-independent basis, Debye-Ang):
   XX=            -60.5596   YY=            -58.5174   ZZ=            -61.1140
   XY=             -7.7157   XZ=              4.0850   YZ=              0.2449

 Normal termination of Gaussian 09 at Thu Feb  9 15:33:06 2017.
