 Gaussian 09, Revision A.02,
 Gaussian 09:  EM64L-G09RevA.02 11-Jun-2009

 -------------------------------------------
 # HF/6-31G* Opt=(ModRedundant) geom=nocrowd
 -------------------------------------------

 ------------------
 Phi Psi fixed scan
 ------------------
 Symbolic Z-matrix:
 Charge =  0 Multiplicity = 1

 SCF Done:  E(RHF) =  -492.795528410     A.U. after   16 cycles
 SCF Done:  E(RHF) =  -492.830507049     A.U. after   15 cycles
 SCF Done:  E(RHF) =  -492.835049742     A.U. after   13 cycles
 SCF Done:  E(RHF) =  -492.835397143     A.U. after   13 cycles
 SCF Done:  E(RHF) =  -492.835969188     A.U. after   13 cycles
 SCF Done:  E(RHF) =  -492.836314404     A.U. after   13 cycles
 SCF Done:  E(RHF) =  -492.836727608     A.U. after   14 cycles
 SCF Done:  E(RHF) =  -492.837100353     A.U. after   12 cycles
 SCF Done:  E(RHF) =  -492.837337801     A.U. after   13 cycles
 SCF Done:  E(RHF) =  -492.837437748     A.U. after   12 cycles
 SCF Done:  E(RHF) =  -492.837780673     A.U. after   11 cycles
 SCF Done:  E(RHF) =  -492.837983555     A.U. after   12 cycles
 SCF Done:  E(RHF) =  -492.838014074     A.U. after   12 cycles
 SCF Done:  E(RHF) =  -492.838040869     A.U. after   11 cycles
 SCF Done:  E(RHF) =  -492.838049421     A.U. after   11 cycles
 SCF Done:  E(RHF) =  -492.838053486     A.U. after   10 cycles
 SCF Done:  E(RHF) =  -492.838054962     A.U. after   10 cycles
 SCF Done:  E(RHF) =  -492.838056377     A.U. after   11 cycles
 SCF Done:  E(RHF) =  -492.838056713     A.U. after    9 cycles
 SCF Done:  E(RHF) =  -492.838056873     A.U. after    8 cycles
 Optimization completed.
    -- Stationary point found.

                         Standard orientation:
 ---------------------------------------------------------------------
 Center     Atomic      Atomic             Coordinates (Angstroms)
 Number     Number       Type             X           Y           Z
 ---------------------------------------------------------------------
      1          1           0       -3.633208   -1.713945    0.168437
      2          6           0       -3.309085   -0.743019   -0.175353
      3          1           0       -3.795920    0.022164    0.422088
      4          1           0       -3.608612   -0.605148   -1.209062
      5          6           0       -1.805166   -0.642406   -0.006128
      6          8           0       -1.187651   -1.425533    0.649415
      7          7           0       -1.238858    0.387879   -0.706405
      8          1           0       -1.892453    0.983414   -1.165424
      9          6           0        0.040273    1.057957   -0.477780
     10          1           0        0.390703    1.369536   -1.455505
     11          6           0       -0.139891    2.299938    0.396237
     12          1           0       -0.454343    2.012059    1.390136
     13          1           0        0.791308    2.850048    0.478409
     14          1           0       -0.884888    2.960591   -0.038185
     15          6           0        1.135273    0.176574    0.149677
     16          8           0        1.235244    0.032537    1.330865
     17          7           0        2.100691   -0.219627   -0.719701
     18          1           0        1.853118   -0.270558   -1.682056
     19          6           0        3.161739   -1.098737   -0.269874
     20          1           0        3.629364   -0.674096    0.605586
     21          1           0        2.793599   -2.087154   -0.016685
     22          1           0        3.898900   -1.182548   -1.057908
 ---------------------------------------------------------------------

 The electronic state is 1-A.
 Alpha  occ. eigenvalues --  -20.52171 -20.51614 -15.58853 -15.58094 -11.34826
 Alpha  occ. eigenvalues --  -11.34100 -11.28639 -11.24961 -11.23268 -11.22195
 Alpha  occ. eigenvalues --   -1.39455  -1.38395  -1.24109  -1.22492  -1.05499
 Alpha  occ. eigenvalues --   -0.99140  -0.95535  -0.87464  -0.80706  -0.77145
 Alpha  occ. eigenvalues --   -0.70027  -0.68845  -0.65729  -0.63772  -0.62267
 Alpha  occ. eigenvalues --   -0.61390  -0.59935  -0.58179  -0.57754  -0.55861
 Alpha  occ. eigenvalues --   -0.54553  -0.53729  -0.52764  -0.51231  -0.50427
 Alpha  occ. eigenvalues --   -0.42053  -0.40466  -0.39046  -0.38445
 Alpha virt. eigenvalues --    0.19026   0.20572   0.21303   0.23091   0.26575
 Alpha virt. eigenvalues --    0.27338   0.28542   0.30635   0.31327   0.32294
 Alpha virt. eigenvalues --    0.32319   0.33289   0.34072   0.34965   0.37682

 Mulliken atomic charges:
              1
     1  H    0.217698
     2  C   -0.594465
     3  H    0.192874
     4  H    0.177196
     5  C    0.744106
     6  O   -0.570649
     7  N   -0.807732
     8  H    0.374020
     9  C   -0.038018
    10  H    0.184664
    11  C   -0.481204
    12  H    0.211023
    13  H    0.176408
    14  H    0.148621
    15  C    0.793998
    16  O   -0.590079
    17  N   -0.787432
    18  H    0.377496
    19  C   -0.282940
    20  H    0.205094
    21  H    0.184734
    22  H    0.164590
 Sum of Mulliken atomic charges =   0.00000

 Dipole moment (field-independent basis, Debye):
    X=             -1.3439    Y=              2.5347    Z=             -5.0536  Tot=              5.8112
 Quadrupole moment (field-independent basis, Debye-Ang):
   XX=            -48.8831   YY=            -60.9909   ZZ=            -62.5286
   XY=             -4.9659   XZ=             -2.2683   YZ=              1.9621

 Normal termination of Gaussian 09 at Thu Feb  9 15:52:08 2017.
