 Gaussian 09, Revision A.02,
 Gaussian 09:  EM64L-G09RevA.02 11-Jun-2009

 -------------------------------------------
 # HF/6-31G* Opt=(ModRedundant) geom=nocrowd
 -------------------------------------------

 ------------------
 Phi Psi fixed scan
 ------------------
 Symbolic Z-matrix:
 Charge =  0 Multiplicity = 1

 SCF Done:  E(RHF) =  -492.825161716     A.U. after   15 cycles
 SCF Done:  E(RHF) =  -492.840178554     A.U. after   14 cycles
 SCF Done:  E(RHF) =  -492.844421652     A.U. after   13 cycles
 SCF Done:  E(RHF) =  -492.845416433     A.U. after   13 cycles
 SCF Done:  E(RHF) =  -492.846276231     A.U. after   13 cycles
 SCF Done:  E(RHF) =  -492.847121129     A.U. after   13 cycles
 SCF Done:  E(RHF) =  -492.847437041     A.U. after   13 cycles
 SCF Done:  E(RHF) =  -492.847769772     A.U. after   12 cycles
 SCF Done:  E(RHF) =  -492.848038192     A.U. after   11 cycles
 SCF Done:  E(RHF) =  -492.848461697     A.U. after   15 cycles
 SCF Done:  E(RHF) =  -492.848645581     A.U. after   12 cycles
 SCF Done:  E(RHF) =  -492.848705712     A.U. after   11 cycles
 SCF Done:  E(RHF) =  -492.848726153     A.U. after   11 cycles
 SCF Done:  E(RHF) =  -492.848730450     A.U. after   10 cycles
 SCF Done:  E(RHF) =  -492.848732275     A.U. after   10 cycles
 SCF Done:  E(RHF) =  -492.848733703     A.U. after   10 cycles
 SCF Done:  E(RHF) =  -492.848733842     A.U. after    8 cycles
 SCF Done:  E(RHF) =  -492.848733912     A.U. after    8 cycles
 SCF Done:  E(RHF) =  -492.848733980     A.U. after    8 cycles
 SCF Done:  E(RHF) =  -492.848734027     A.U. after    8 cycles
 Optimization completed.
    -- Stationary point found.

                         Standard orientation:
 ---------------------------------------------------------------------
 Center     Atomic      Atomic             Coordinates (Angstroms)
 Number     Number       Type             X           Y           Z
 ---------------------------------------------------------------------
      1          1           0        3.372407   -1.701328   -0.630176
      2          6           0        3.063233   -0.987294    0.119004
      3          1           0        3.791117   -0.186500    0.183780
      4          1           0        3.021412   -1.490400    1.080223
      5          6           0        1.681530   -0.479739   -0.228254
      6          8           0        0.927139   -1.106100   -0.922066
      7          7           0        1.364649    0.735987    0.286644
      8          1           0        2.005942    1.106126    0.951100
      9          6           0        0.005247    1.267092    0.389055
     10          1           0       -0.037304    1.802298    1.327098
     11          6           0       -0.275450    2.245509   -0.752356
     12          1           0       -0.150965    1.771111   -1.719202
     13          1           0       -1.281008    2.645775   -0.687842
     14          1           0        0.427052    3.070146   -0.703011
     15          6           0       -1.048588    0.155705    0.568337
     16          8           0       -1.192606   -0.326444    1.658112
     17          7           0       -1.823013   -0.165950   -0.492367
     18          1           0       -1.395540   -0.037594   -1.381132
     19          6           0       -2.697986   -1.317315   -0.390409
     20          1           0       -3.338886   -1.208070    0.471394
     21          1           0       -3.311453   -1.363769   -1.280811
     22          1           0       -2.138417   -2.241442   -0.291991
 ---------------------------------------------------------------------

 The electronic state is 1-A.
 Alpha  occ. eigenvalues --  -20.53158 -20.51860 -15.59381 -15.56886 -11.35675
 Alpha  occ. eigenvalues --  -11.33881 -11.28453 -11.24171 -11.23745 -11.22591
 Alpha  occ. eigenvalues --   -1.40195  -1.38465  -1.24423  -1.22044  -1.05780
 Alpha  occ. eigenvalues --   -0.99725  -0.94211  -0.88544  -0.80684  -0.76479
 Alpha  occ. eigenvalues --   -0.71601  -0.69654  -0.64787  -0.64105  -0.62637
 Alpha  occ. eigenvalues --   -0.61377  -0.59929  -0.57884  -0.57194  -0.56366
 Alpha  occ. eigenvalues --   -0.54440  -0.53944  -0.52411  -0.52073  -0.50407
 Alpha  occ. eigenvalues --   -0.42762  -0.42384  -0.39476  -0.37709
 Alpha virt. eigenvalues --    0.18374   0.19465   0.22570   0.24487   0.26007
 Alpha virt. eigenvalues --    0.27969   0.29424   0.30083   0.30954   0.31893
 Alpha virt. eigenvalues --    0.32505   0.34078   0.34243   0.35452   0.38419

 Mulliken atomic charges:
              1
     1  H    0.215886
     2  C   -0.592519
     3  H    0.178286
     4  H    0.207705
     5  C    0.756461
     6  O   -0.618890
     7  N   -0.796539
     8  H    0.386520
     9  C   -0.032652
    10  H    0.213929
    11  C   -0.477136
    12  H    0.172470
    13  H    0.180082
    14  H    0.170127
    15  C    0.754998
    16  O   -0.612830
    17  N   -0.760459
    18  H    0.394308
    19  C   -0.284854
    20  H    0.196654
    21  H    0.164971
    22  H    0.183484
 Sum of Mulliken atomic charges =   0.00000

 Dipole moment (field-independent basis, Debye):
    X=              2.4330    Y=              2.4621    Z=             -0.9039  Tot=              3.5775
 Quadrupole moment (field-independent basis, Debye-Ang):
   XX=            -51.4827   YY=            -58.9628   ZZ=            -65.1332
   XY=              1.7254   XZ=              8.1664   YZ=              1.5063

 Normal termination of Gaussian 09 at Thu Feb  9 16:28:00 2017.
