 Gaussian 09, Revision A.02,
 Gaussian 09:  EM64L-G09RevA.02 11-Jun-2009

 -------------------------------------------
 # HF/6-31G* Opt=(ModRedundant) geom=nocrowd
 -------------------------------------------

 ------------------
 Phi Psi fixed scan
 ------------------
 Symbolic Z-matrix:
 Charge =  0 Multiplicity = 1

 SCF Done:  E(RHF) =  -492.671079778     A.U. after   17 cycles
 SCF Done:  E(RHF) =  -492.737819298     A.U. after   15 cycles
 SCF Done:  E(RHF) =  -492.800018265     A.U. after   14 cycles
 SCF Done:  E(RHF) =  -492.804609673     A.U. after   14 cycles
 SCF Done:  E(RHF) =  -492.823323253     A.U. after   14 cycles
 SCF Done:  E(RHF) =  -492.825720136     A.U. after   13 cycles
 SCF Done:  E(RHF) =  -492.827294797     A.U. after   13 cycles
 SCF Done:  E(RHF) =  -492.827740497     A.U. after   13 cycles
 SCF Done:  E(RHF) =  -492.828247431     A.U. after   13 cycles
 SCF Done:  E(RHF) =  -492.828739122     A.U. after   14 cycles
 SCF Done:  E(RHF) =  -492.830877372     A.U. after   12 cycles
 SCF Done:  E(RHF) =  -492.831066076     A.U. after   14 cycles
 SCF Done:  E(RHF) =  -492.831077716     A.U. after   11 cycles
 SCF Done:  E(RHF) =  -492.831118567     A.U. after   12 cycles
 SCF Done:  E(RHF) =  -492.831136969     A.U. after   11 cycles
 SCF Done:  E(RHF) =  -492.831155074     A.U. after   11 cycles
 SCF Done:  E(RHF) =  -492.831162388     A.U. after   11 cycles
 SCF Done:  E(RHF) =  -492.831162752     A.U. after    8 cycles
 SCF Done:  E(RHF) =  -492.831163219     A.U. after   10 cycles
 SCF Done:  E(RHF) =  -492.831163278     A.U. after    9 cycles
 Optimization completed.
    -- Stationary point found.

                         Standard orientation:
 ---------------------------------------------------------------------
 Center     Atomic      Atomic             Coordinates (Angstroms)
 Number     Number       Type             X           Y           Z
 ---------------------------------------------------------------------
      1          1           0       -3.614648   -1.600764   -0.008309
      2          6           0       -2.937719   -1.095985   -0.681147
      3          1           0       -3.507469   -0.516026   -1.400965
      4          1           0       -2.358908   -1.835783   -1.226122
      5          6           0       -2.004974   -0.217250    0.124785
      6          8           0       -1.965277   -0.251194    1.312347
      7          7           0       -1.283531    0.702904   -0.636164
      8          1           0       -1.503171    0.594461   -1.603300
      9          6           0        0.144230    0.990292   -0.497810
     10          1           0        0.481868    1.275371   -1.486274
     11          6           0        0.341477    2.178302    0.458657
     12          1           0       -0.033707    1.915712    1.439544
     13          1           0        1.387301    2.457205    0.547067
     14          1           0       -0.215734    3.032943    0.094975
     15          6           0        1.029050   -0.166983   -0.011767
     16          8           0        0.655426   -1.073414    0.670669
     17          7           0        2.300010   -0.103066   -0.491743
     18          1           0        2.601345    0.735740   -0.931954
     19          6           0        3.322666   -1.008810   -0.010105
     20          1           0        2.950875   -2.021684   -0.045032
     21          1           0        4.188522   -0.928726   -0.654297
     22          1           0        3.618801   -0.787842    1.010214
 ---------------------------------------------------------------------

 The electronic state is 1-A.
 Alpha  occ. eigenvalues --  -20.52622 -20.51798 -15.58777 -15.57717 -11.34706
 Alpha  occ. eigenvalues --  -11.33997 -11.28925 -11.25874 -11.22600 -11.22277
 Alpha  occ. eigenvalues --   -1.39925  -1.38227  -1.23694  -1.22744  -1.05370
 Alpha  occ. eigenvalues --   -0.98844  -0.95692  -0.87658  -0.80100  -0.77114
 Alpha  occ. eigenvalues --   -0.70428  -0.69094  -0.65208  -0.63354  -0.62226
 Alpha  occ. eigenvalues --   -0.61726  -0.60047  -0.58578  -0.56711  -0.56264
 Alpha  occ. eigenvalues --   -0.55451  -0.53821  -0.53048  -0.51140  -0.49034
 Alpha  occ. eigenvalues --   -0.43755  -0.40992  -0.39279  -0.37465
 Alpha virt. eigenvalues --    0.18480   0.20028   0.21421   0.22555   0.26217
 Alpha virt. eigenvalues --    0.27665   0.28828   0.30556   0.31501   0.31871
 Alpha virt. eigenvalues --    0.32856   0.33437   0.34281   0.35008   0.37005

 Mulliken atomic charges:
              1
     1  H    0.216059
     2  C   -0.601657
     3  H    0.175810
     4  H    0.193194
     5  C    0.758806
     6  O   -0.549599
     7  N   -0.787945
     8  H    0.365021
     9  C   -0.052436
    10  H    0.181260
    11  C   -0.478041
    12  H    0.221597
    13  H    0.149028
    14  H    0.181164
    15  C    0.749863
    16  O   -0.582774
    17  N   -0.793748
    18  H    0.378733
    19  C   -0.276601
    20  H    0.207951
    21  H    0.167260
    22  H    0.177054
 Sum of Mulliken atomic charges =   0.00000

 Dipole moment (field-independent basis, Debye):
    X=              2.6672    Y=              2.0752    Z=             -5.2614  Tot=              6.2533
 Quadrupole moment (field-independent basis, Debye-Ang):
   XX=            -50.8158   YY=            -60.5799   ZZ=            -62.4603
   XY=              3.3038   XZ=              5.3878   YZ=              1.3839

 Normal termination of Gaussian 09 at Thu Feb  9 16:05:42 2017.
