 Gaussian 09, Revision A.02,
 Gaussian 09:  EM64L-G09RevA.02 11-Jun-2009

 -------------------------------------------
 # HF/6-31G* Opt=(ModRedundant) geom=nocrowd
 -------------------------------------------

 ------------------
 Phi Psi fixed scan
 ------------------
 Symbolic Z-matrix:
 Charge =  0 Multiplicity = 1

 SCF Done:  E(RHF) =  -492.820992745     A.U. after   15 cycles
 SCF Done:  E(RHF) =  -492.837949487     A.U. after   14 cycles
 SCF Done:  E(RHF) =  -492.843574560     A.U. after   14 cycles
 SCF Done:  E(RHF) =  -492.843780946     A.U. after   13 cycles
 SCF Done:  E(RHF) =  -492.846101095     A.U. after   13 cycles
 SCF Done:  E(RHF) =  -492.846875485     A.U. after   13 cycles
 SCF Done:  E(RHF) =  -492.847364536     A.U. after   14 cycles
 SCF Done:  E(RHF) =  -492.847740613     A.U. after   12 cycles
 SCF Done:  E(RHF) =  -492.847885462     A.U. after   11 cycles
 SCF Done:  E(RHF) =  -492.848011604     A.U. after   12 cycles
 SCF Done:  E(RHF) =  -492.848159318     A.U. after   12 cycles
 SCF Done:  E(RHF) =  -492.848535721     A.U. after   12 cycles
 SCF Done:  E(RHF) =  -492.848656324     A.U. after   12 cycles
 SCF Done:  E(RHF) =  -492.848676213     A.U. after   11 cycles
 SCF Done:  E(RHF) =  -492.848705800     A.U. after   11 cycles
 SCF Done:  E(RHF) =  -492.848730543     A.U. after   11 cycles
 SCF Done:  E(RHF) =  -492.848732187     A.U. after    9 cycles
 SCF Done:  E(RHF) =  -492.848732368     A.U. after    8 cycles
 Optimization completed.
    -- Stationary point found.

                         Standard orientation:
 ---------------------------------------------------------------------
 Center     Atomic      Atomic             Coordinates (Angstroms)
 Number     Number       Type             X           Y           Z
 ---------------------------------------------------------------------
      1          1           0        3.376706   -1.578198   -0.821453
      2          6           0        3.038757   -0.979724    0.011734
      3          1           0        3.790515   -0.238928    0.260802
      4          1           0        2.895809   -1.626721    0.871907
      5          6           0        1.714226   -0.345964   -0.339703
      6          8           0        1.007273   -0.763914   -1.212832
      7          7           0        1.382973    0.767253    0.383354
      8          1           0        1.941164    0.912916    1.195039
      9          6           0       -0.011779    1.166491    0.543185
     10          1           0       -0.113058    1.541914    1.554391
     11          6           0       -0.355031    2.292084   -0.432954
     12          1           0       -0.245815    1.959085   -1.459333
     13          1           0       -1.363472    2.661912   -0.279410
     14          1           0        0.330400    3.117429   -0.281977
     15          6           0       -0.937050   -0.064515    0.513156
     16          8           0       -0.705054   -0.981957    1.252152
     17          7           0       -2.060371    0.010015   -0.231657
     18          1           0       -2.052197    0.629337   -1.008065
     19          6           0       -2.916903   -1.154458   -0.345226
     20          1           0       -3.185308   -1.501375    0.641163
     21          1           0       -3.816354   -0.870377   -0.875843
     22          1           0       -2.427680   -1.964395   -0.874817
 ---------------------------------------------------------------------

 The electronic state is 1-A.
 Alpha  occ. eigenvalues --  -20.52585 -20.51390 -15.58419 -15.57795 -11.34802
 Alpha  occ. eigenvalues --  -11.34027 -11.28342 -11.24774 -11.23035 -11.22599
 Alpha  occ. eigenvalues --   -1.39870  -1.38094  -1.23675  -1.22604  -1.05440
 Alpha  occ. eigenvalues --   -0.99271  -0.94659  -0.88417  -0.79953  -0.77122
 Alpha  occ. eigenvalues --   -0.71188  -0.69593  -0.64508  -0.64068  -0.62006
 Alpha  occ. eigenvalues --   -0.61253  -0.59854  -0.57810  -0.56849  -0.56002
 Alpha  occ. eigenvalues --   -0.54717  -0.54313  -0.52999  -0.51772  -0.49226
 Alpha  occ. eigenvalues --   -0.41998  -0.41717  -0.39398  -0.38457
 Alpha virt. eigenvalues --    0.18653   0.20108   0.23154   0.23965   0.26480
 Alpha virt. eigenvalues --    0.27778   0.30087   0.30215   0.31069   0.31451
 Alpha virt. eigenvalues --    0.32774   0.33602   0.34753   0.34857   0.37945

 Mulliken atomic charges:
              1
     1  H    0.213750
     2  C   -0.596808
     3  H    0.177959
     4  H    0.210635
     5  C    0.760964
     6  O   -0.608673
     7  N   -0.775632
     8  H    0.380485
     9  C   -0.034659
    10  H    0.208621
    11  C   -0.502533
    12  H    0.189347
    13  H    0.167569
    14  H    0.182033
    15  C    0.787090
    16  O   -0.630090
    17  N   -0.793893
    18  H    0.392221
    19  C   -0.281582
    20  H    0.200602
    21  H    0.164474
    22  H    0.188120
 Sum of Mulliken atomic charges =   0.00000

 Dipole moment (field-independent basis, Debye):
    X=              0.5497    Y=              3.1093    Z=              0.3985  Tot=              3.1826
 Quadrupole moment (field-independent basis, Debye-Ang):
   XX=            -48.4549   YY=            -60.7403   ZZ=            -63.4132
   XY=             -0.6026   XZ=              7.5885   YZ=              2.1320

 Normal termination of Gaussian 09 at Thu Feb  9 16:22:15 2017.
