 Gaussian 09, Revision A.02,
 Gaussian 09:  EM64L-G09RevA.02 11-Jun-2009

 -------------------------------------------
 # HF/6-31G* Opt=(ModRedundant) geom=nocrowd
 -------------------------------------------

 ------------------
 Phi Psi fixed scan
 ------------------
 Symbolic Z-matrix:
 Charge =  0 Multiplicity = 1

 SCF Done:  E(RHF) =  -492.831035714     A.U. after   15 cycles
 SCF Done:  E(RHF) =  -492.843468729     A.U. after   16 cycles
 SCF Done:  E(RHF) =  -492.845521682     A.U. after   14 cycles
 SCF Done:  E(RHF) =  -492.846158956     A.U. after   12 cycles
 SCF Done:  E(RHF) =  -492.846665389     A.U. after   12 cycles
 SCF Done:  E(RHF) =  -492.846855076     A.U. after   13 cycles
 SCF Done:  E(RHF) =  -492.847079387     A.U. after   12 cycles
 SCF Done:  E(RHF) =  -492.847234679     A.U. after   12 cycles
 SCF Done:  E(RHF) =  -492.847494714     A.U. after   13 cycles
 SCF Done:  E(RHF) =  -492.847616962     A.U. after   12 cycles
 SCF Done:  E(RHF) =  -492.848053205     A.U. after   11 cycles
 SCF Done:  E(RHF) =  -492.848055261     A.U. after   10 cycles
 SCF Done:  E(RHF) =  -492.848058043     A.U. after   11 cycles
 SCF Done:  E(RHF) =  -492.848066437     A.U. after   11 cycles
 SCF Done:  E(RHF) =  -492.848076555     A.U. after   11 cycles
 SCF Done:  E(RHF) =  -492.848085083     A.U. after   11 cycles
 SCF Done:  E(RHF) =  -492.848088246     A.U. after   11 cycles
 SCF Done:  E(RHF) =  -492.848088891     A.U. after    8 cycles
 SCF Done:  E(RHF) =  -492.848089868     A.U. after   10 cycles
 SCF Done:  E(RHF) =  -492.848089894     A.U. after    8 cycles
 Optimization completed.
    -- Stationary point found.

                         Standard orientation:
 ---------------------------------------------------------------------
 Center     Atomic      Atomic             Coordinates (Angstroms)
 Number     Number       Type             X           Y           Z
 ---------------------------------------------------------------------
      1          1           0       -3.215888   -1.936723    0.267932
      2          6           0       -3.091578   -0.921529   -0.079891
      3          1           0       -3.769765   -0.283275    0.477758
      4          1           0       -3.353248   -0.860650   -1.130271
      5          6           0       -1.667091   -0.483812    0.195191
      6          8           0       -1.009711   -0.983544    1.066000
      7          7           0       -1.222445    0.530965   -0.586145
      8          1           0       -1.849625    0.878033   -1.275144
      9          6           0        0.083485    1.186569   -0.548226
     10          1           0        0.314277    1.440112   -1.578903
     11          6           0        0.016779    2.471539    0.274982
     12          1           0       -0.182698    2.241186    1.314106
     13          1           0        0.949947    3.013704    0.220125
     14          1           0       -0.781349    3.104543   -0.100605
     15          6           0        1.265832    0.315194   -0.089592
     16          8           0        2.128486    0.791972    0.590833
     17          7           0        1.348669   -0.929323   -0.616437
     18          1           0        0.495296   -1.342551   -0.909238
     19          6           0        2.348731   -1.848132   -0.110358
     20          1           0        3.321359   -1.382162   -0.152865
     21          1           0        2.146052   -2.139325    0.914798
     22          1           0        2.354923   -2.730781   -0.736915
 ---------------------------------------------------------------------

 The electronic state is 1-A.
 Alpha  occ. eigenvalues --  -20.53344 -20.51946 -15.60085 -15.56938 -11.36133
 Alpha  occ. eigenvalues --  -11.34120 -11.28703 -11.24347 -11.24283 -11.21348
 Alpha  occ. eigenvalues --   -1.40438  -1.38747  -1.25135  -1.21895  -1.05759
 Alpha  occ. eigenvalues --   -0.99778  -0.95000  -0.87523  -0.81364  -0.76949
 Alpha  occ. eigenvalues --   -0.71708  -0.69867  -0.65178  -0.64560  -0.62474
 Alpha  occ. eigenvalues --   -0.61231  -0.60264  -0.58798  -0.58043  -0.55943
 Alpha  occ. eigenvalues --   -0.54109  -0.52769  -0.52367  -0.51947  -0.50644
 Alpha  occ. eigenvalues --   -0.42903  -0.41841  -0.39917  -0.37872
 Alpha virt. eigenvalues --    0.18408   0.19102   0.22036   0.25473   0.25897
 Alpha virt. eigenvalues --    0.28556   0.29134   0.29438   0.30518   0.31857
 Alpha virt. eigenvalues --    0.32779   0.33574   0.33857   0.34925   0.37656

 Mulliken atomic charges:
              1
     1  H    0.216910
     2  C   -0.585384
     3  H    0.206721
     4  H    0.172030
     5  C    0.733915
     6  O   -0.601277
     7  N   -0.824164
     8  H    0.386577
     9  C   -0.037928
    10  H    0.203523
    11  C   -0.456407
    12  H    0.191517
    13  H    0.196009
    14  H    0.145723
    15  C    0.780878
    16  O   -0.609957
    17  N   -0.765285
    18  H    0.383609
    19  C   -0.284427
    20  H    0.199497
    21  H    0.185547
    22  H    0.162374
 Sum of Mulliken atomic charges =   0.00000

 Dipole moment (field-independent basis, Debye):
    X=             -4.2131    Y=             -0.2075    Z=             -4.2236  Tot=              5.9692
 Quadrupole moment (field-independent basis, Debye-Ang):
   XX=            -58.0905   YY=            -57.5048   ZZ=            -62.4784
   XY=             -5.3823   XZ=              0.9933   YZ=              0.0399

 Normal termination of Gaussian 09 at Thu Feb  9 15:41:24 2017.
