 Gaussian 09, Revision A.02,
 Gaussian 09:  EM64L-G09RevA.02 11-Jun-2009

 -------------------------------------------
 # HF/6-31G* Opt=(ModRedundant) geom=nocrowd
 -------------------------------------------

 ------------------
 Phi Psi fixed scan
 ------------------
 Symbolic Z-matrix:
 Charge =  0 Multiplicity = 1

 SCF Done:  E(RHF) =  -492.810943448     A.U. after   15 cycles
 SCF Done:  E(RHF) =  -492.838721840     A.U. after   16 cycles
 SCF Done:  E(RHF) =  -492.843127691     A.U. after   14 cycles
 SCF Done:  E(RHF) =  -492.843666044     A.U. after   12 cycles
 SCF Done:  E(RHF) =  -492.844264205     A.U. after   12 cycles
 SCF Done:  E(RHF) =  -492.844627541     A.U. after   12 cycles
 SCF Done:  E(RHF) =  -492.844969024     A.U. after   14 cycles
 SCF Done:  E(RHF) =  -492.845374058     A.U. after   12 cycles
 SCF Done:  E(RHF) =  -492.845651605     A.U. after   13 cycles
 SCF Done:  E(RHF) =  -492.845827252     A.U. after   12 cycles
 SCF Done:  E(RHF) =  -492.846534536     A.U. after   12 cycles
 SCF Done:  E(RHF) =  -492.846523006     A.U. after   11 cycles
 SCF Done:  E(RHF) =  -492.846533941     A.U. after   11 cycles
 SCF Done:  E(RHF) =  -492.846551145     A.U. after   11 cycles
 SCF Done:  E(RHF) =  -492.846555037     A.U. after   11 cycles
 SCF Done:  E(RHF) =  -492.846494516     A.U. after   12 cycles
 SCF Done:  E(RHF) =  -492.846560719     A.U. after   11 cycles
 SCF Done:  E(RHF) =  -492.846562774     A.U. after   10 cycles
 SCF Done:  E(RHF) =  -492.846563235     A.U. after   10 cycles
 SCF Done:  E(RHF) =  -492.846563280     A.U. after    8 cycles
 Optimization completed.
    -- Stationary point found.

                         Standard orientation:
 ---------------------------------------------------------------------
 Center     Atomic      Atomic             Coordinates (Angstroms)
 Number     Number       Type             X           Y           Z
 ---------------------------------------------------------------------
      1          1           0       -3.387111   -1.836571   -0.017385
      2          6           0       -3.214661   -0.778860   -0.156198
      3          1           0       -3.832885   -0.239774    0.554385
      4          1           0       -3.510619   -0.490141   -1.157840
      5          6           0       -1.759960   -0.481691    0.146358
      6          8           0       -1.154079   -1.119142    0.968715
      7          7           0       -1.235735    0.556351   -0.538560
      8          1           0       -1.838133    0.988260   -1.201193
      9          6           0        0.096216    1.162974   -0.477705
     10          1           0        0.318159    1.464862   -1.496663
     11          6           0        0.050859    2.412826    0.404672
     12          1           0       -0.150802    2.137099    1.433452
     13          1           0        0.989703    2.944191    0.368235
     14          1           0       -0.742824    3.071400    0.065793
     15          6           0        1.314826    0.297074   -0.104969
     16          8           0        2.293449    0.861339    0.300625
     17          7           0        1.310522   -1.016558   -0.423714
     18          1           0        0.437075   -1.479869   -0.326929
     19          6           0        2.473446   -1.813646   -0.082487
     20          1           0        3.356373   -1.380795   -0.528714
     21          1           0        2.626718   -1.876572    0.989682
     22          1           0        2.331528   -2.810273   -0.479656
 ---------------------------------------------------------------------

 The electronic state is 1-A.
 Alpha  occ. eigenvalues --  -20.53523 -20.52052 -15.60343 -15.56619 -11.36531
 Alpha  occ. eigenvalues --  -11.34308 -11.29010 -11.24455 -11.24241 -11.21588
 Alpha  occ. eigenvalues --   -1.40592  -1.38927  -1.25326  -1.21819  -1.05955
 Alpha  occ. eigenvalues --   -0.99913  -0.94856  -0.87879  -0.81616  -0.76712
 Alpha  occ. eigenvalues --   -0.71874  -0.70188  -0.65308  -0.64485  -0.62576
 Alpha  occ. eigenvalues --   -0.61289  -0.60437  -0.58893  -0.58159  -0.55978
 Alpha  occ. eigenvalues --   -0.54323  -0.53351  -0.52261  -0.51788  -0.50378
 Alpha  occ. eigenvalues --   -0.43291  -0.41864  -0.40195  -0.37959
 Alpha virt. eigenvalues --    0.18235   0.18836   0.21813   0.25768   0.26335
 Alpha virt. eigenvalues --    0.28761   0.29293   0.29660   0.31172   0.31833
 Alpha virt. eigenvalues --    0.33097   0.33716   0.34095   0.34874   0.38185

 Mulliken atomic charges:
              1
     1  H    0.215407
     2  C   -0.581608
     3  H    0.209103
     4  H    0.171809
     5  C    0.748601
     6  O   -0.625440
     7  N   -0.821765
     8  H    0.387826
     9  C   -0.028158
    10  H    0.210321
    11  C   -0.464614
    12  H    0.183478
    13  H    0.207871
    14  H    0.147880
    15  C    0.767084
    16  O   -0.612931
    17  N   -0.786514
    18  H    0.416759
    19  C   -0.282891
    20  H    0.193828
    21  H    0.178676
    22  H    0.165279
 Sum of Mulliken atomic charges =   0.00000

 Dipole moment (field-independent basis, Debye):
    X=             -4.2654    Y=              0.1741    Z=             -3.2105  Tot=              5.3414
 Quadrupole moment (field-independent basis, Debye-Ang):
   XX=            -58.9138   YY=            -58.4105   ZZ=            -61.8623
   XY=             -6.9345   XZ=              2.1937   YZ=             -0.1118

 Normal termination of Gaussian 09 at Thu Feb  9 15:38:07 2017.
