 Gaussian 09, Revision A.02,
 Gaussian 09:  EM64L-G09RevA.02 11-Jun-2009

 -------------------------------------------
 # HF/6-31G* Opt=(ModRedundant) geom=nocrowd
 -------------------------------------------

 ------------------
 Phi Psi fixed scan
 ------------------
 Symbolic Z-matrix:
 Charge =  0 Multiplicity = 1

 SCF Done:  E(RHF) =  -492.826840937     A.U. after   15 cycles
 SCF Done:  E(RHF) =  -492.840982302     A.U. after   14 cycles
 SCF Done:  E(RHF) =  -492.845078970     A.U. after   13 cycles
 SCF Done:  E(RHF) =  -492.845577979     A.U. after   13 cycles
 SCF Done:  E(RHF) =  -492.846885441     A.U. after   13 cycles
 SCF Done:  E(RHF) =  -492.847667638     A.U. after   13 cycles
 SCF Done:  E(RHF) =  -492.848147489     A.U. after   13 cycles
 SCF Done:  E(RHF) =  -492.848419056     A.U. after   12 cycles
 SCF Done:  E(RHF) =  -492.848676030     A.U. after   12 cycles
 SCF Done:  E(RHF) =  -492.848884774     A.U. after   12 cycles
 SCF Done:  E(RHF) =  -492.849198770     A.U. after   12 cycles
 SCF Done:  E(RHF) =  -492.849384988     A.U. after   12 cycles
 SCF Done:  E(RHF) =  -492.849391734     A.U. after   11 cycles
 SCF Done:  E(RHF) =  -492.849403304     A.U. after   10 cycles
 SCF Done:  E(RHF) =  -492.849408437     A.U. after   10 cycles
 SCF Done:  E(RHF) =  -492.849411678     A.U. after   10 cycles
 SCF Done:  E(RHF) =  -492.849412095     A.U. after    8 cycles
 SCF Done:  E(RHF) =  -492.849412279     A.U. after    8 cycles
 Optimization completed.
    -- Stationary point found.

                         Standard orientation:
 ---------------------------------------------------------------------
 Center     Atomic      Atomic             Coordinates (Angstroms)
 Number     Number       Type             X           Y           Z
 ---------------------------------------------------------------------
      1          1           0        3.332383   -1.657935   -0.793220
      2          6           0        3.034572   -1.002891    0.012347
      3          1           0        3.785344   -0.234098    0.156576
      4          1           0        2.960992   -1.586019    0.925269
      5          6           0        1.676505   -0.420535   -0.303163
      6          8           0        0.915980   -0.939529   -1.072939
      7          7           0        1.379665    0.749477    0.328070
      8          1           0        1.994533    1.004091    1.068101
      9          6           0        0.007058    1.224865    0.484112
     10          1           0       -0.050933    1.677177    1.465442
     11          6           0       -0.310866    2.287982   -0.567402
     12          1           0       -0.185371    1.894748   -1.570428
     13          1           0       -1.321875    2.664758   -0.457367
     14          1           0        0.376188    3.119176   -0.457738
     15          6           0       -0.978911    0.043738    0.570468
     16          8           0       -0.905155   -0.695966    1.513038
     17          7           0       -1.950072   -0.044429   -0.364059
     18          1           0       -1.746166    0.361225   -1.248179
     19          6           0       -2.793268   -1.223560   -0.390990
     20          1           0       -3.244714   -1.365334    0.579266
     21          1           0       -3.575057   -1.072102   -1.123968
     22          1           0       -2.229615   -2.114653   -0.644842
 ---------------------------------------------------------------------

 The electronic state is 1-A.
 Alpha  occ. eigenvalues --  -20.52902 -20.51497 -15.58901 -15.57302 -11.35238
 Alpha  occ. eigenvalues --  -11.33891 -11.28347 -11.24400 -11.23409 -11.22604
 Alpha  occ. eigenvalues --   -1.40043  -1.38205  -1.24039  -1.22287  -1.05595
 Alpha  occ. eigenvalues --   -0.99513  -0.94376  -0.88480  -0.80287  -0.76805
 Alpha  occ. eigenvalues --   -0.71416  -0.69612  -0.64646  -0.64063  -0.62312
 Alpha  occ. eigenvalues --   -0.61260  -0.59829  -0.57753  -0.57063  -0.56156
 Alpha  occ. eigenvalues --   -0.54430  -0.54250  -0.52750  -0.51942  -0.49774
 Alpha  occ. eigenvalues --   -0.42320  -0.41962  -0.39488  -0.38029
 Alpha virt. eigenvalues --    0.18496   0.19857   0.22919   0.24258   0.26274
 Alpha virt. eigenvalues --    0.27897   0.29858   0.30146   0.30790   0.31810
 Alpha virt. eigenvalues --    0.32430   0.34032   0.34395   0.35143   0.38314

 Mulliken atomic charges:
              1
     1  H    0.214834
     2  C   -0.594262
     3  H    0.178466
     4  H    0.209240
     5  C    0.757895
     6  O   -0.614573
     7  N   -0.784934
     8  H    0.384089
     9  C   -0.030837
    10  H    0.210174
    11  C   -0.492654
    12  H    0.179421
    13  H    0.176530
    14  H    0.176366
    15  C    0.771998
    16  O   -0.622731
    17  N   -0.776336
    18  H    0.390937
    19  C   -0.283972
    20  H    0.198709
    21  H    0.164183
    22  H    0.187457
 Sum of Mulliken atomic charges =   0.00000

 Dipole moment (field-independent basis, Debye):
    X=              1.5571    Y=              2.8845    Z=             -0.4374  Tot=              3.3070
 Quadrupole moment (field-independent basis, Debye-Ang):
   XX=            -49.7978   YY=            -59.7902   ZZ=            -64.2618
   XY=              0.3834   XZ=              7.7562   YZ=              2.1659

 Normal termination of Gaussian 09 at Thu Feb  9 16:25:03 2017.
