 Gaussian 09, Revision A.02,
 Gaussian 09:  EM64L-G09RevA.02 11-Jun-2009

 -------------------------------------------
 # HF/6-31G* Opt=(ModRedundant) geom=nocrowd
 -------------------------------------------

 ------------------
 Phi Psi fixed scan
 ------------------
 Symbolic Z-matrix:
 Charge =  0 Multiplicity = 1

 SCF Done:  E(RHF) =  -492.707323078     A.U. after   16 cycles
 SCF Done:  E(RHF) =  -492.790349855     A.U. after   14 cycles
 SCF Done:  E(RHF) =  -492.830300949     A.U. after   14 cycles
 SCF Done:  E(RHF) =  -492.842260160     A.U. after   14 cycles
 SCF Done:  E(RHF) =  -492.845092399     A.U. after   13 cycles
 SCF Done:  E(RHF) =  -492.845551131     A.U. after   13 cycles
 SCF Done:  E(RHF) =  -492.846103849     A.U. after   13 cycles
 SCF Done:  E(RHF) =  -492.846472877     A.U. after   12 cycles
 SCF Done:  E(RHF) =  -492.846595485     A.U. after   12 cycles
 SCF Done:  E(RHF) =  -492.846693858     A.U. after   13 cycles
 SCF Done:  E(RHF) =  -492.847157434     A.U. after   12 cycles
 SCF Done:  E(RHF) =  -492.847198697     A.U. after   13 cycles
 SCF Done:  E(RHF) =  -492.847263257     A.U. after   11 cycles
 SCF Done:  E(RHF) =  -492.847444027     A.U. after   11 cycles
 SCF Done:  E(RHF) =  -492.847479330     A.U. after   11 cycles
 SCF Done:  E(RHF) =  -492.847490716     A.U. after   11 cycles
 SCF Done:  E(RHF) =  -492.847492178     A.U. after   10 cycles
 SCF Done:  E(RHF) =  -492.847493324     A.U. after    9 cycles
 SCF Done:  E(RHF) =  -492.847493650     A.U. after    9 cycles
 SCF Done:  E(RHF) =  -492.847493664     A.U. after    7 cycles
 Optimization completed.
    -- Stationary point found.

                         Standard orientation:
 ---------------------------------------------------------------------
 Center     Atomic      Atomic             Coordinates (Angstroms)
 Number     Number       Type             X           Y           Z
 ---------------------------------------------------------------------
      1          1           0       -3.726002   -1.415436    0.121724
      2          6           0       -3.242854   -0.657753   -0.477234
      3          1           0       -3.829097    0.253689   -0.454057
      4          1           0       -3.195916   -1.007265   -1.504091
      5          6           0       -1.833198   -0.455198    0.039533
      6          8           0       -1.276479   -1.321872    0.663807
      7          7           0       -1.299527    0.754067   -0.244220
      8          1           0       -1.882945    1.337685   -0.799600
      9          6           0        0.083841    1.253238   -0.185339
     10          1           0        0.168782    1.942048   -1.010730
     11          6           0        0.315475    2.013342    1.126882
     12          1           0        0.205014    1.351379    1.977205
     13          1           0        1.312028    2.440737    1.147051
     14          1           0       -0.406090    2.817444    1.223199
     15          6           0        1.267301    0.293543   -0.419452
     16          8           0        2.078079    0.615666   -1.250359
     17          7           0        1.431854   -0.761656    0.390912
     18          1           0        0.620318   -1.115614    0.849069
     19          6           0        2.553300   -1.654637    0.192574
     20          1           0        3.480762   -1.100808    0.226961
     21          1           0        2.550410   -2.387380    0.988422
     22          1           0        2.500458   -2.168922   -0.761371
 ---------------------------------------------------------------------

 The electronic state is 1-A.
 Alpha  occ. eigenvalues --  -20.54049 -20.51493 -15.60331 -15.56307 -11.36791
 Alpha  occ. eigenvalues --  -11.33786 -11.28808 -11.24419 -11.24309 -11.22547
 Alpha  occ. eigenvalues --   -1.40791  -1.38266  -1.25236  -1.21746  -1.06246
 Alpha  occ. eigenvalues --   -1.00179  -0.94550  -0.88569  -0.81471  -0.76692
 Alpha  occ. eigenvalues --   -0.71985  -0.70438  -0.64635  -0.64043  -0.62585
 Alpha  occ. eigenvalues --   -0.61788  -0.60547  -0.58286  -0.57957  -0.57050
 Alpha  occ. eigenvalues --   -0.54599  -0.53789  -0.52658  -0.51837  -0.50514
 Alpha  occ. eigenvalues --   -0.43780  -0.42770  -0.39070  -0.37309
 Alpha virt. eigenvalues --    0.18545   0.19591   0.20922   0.25398   0.26337
 Alpha virt. eigenvalues --    0.27978   0.29089   0.30428   0.31442   0.32066
 Alpha virt. eigenvalues --    0.32576   0.33749   0.34305   0.35928   0.37159

 Mulliken atomic charges:
              1
     1  H    0.219288
     2  C   -0.591471
     3  H    0.179239
     4  H    0.204567
     5  C    0.771037
     6  O   -0.634303
     7  N   -0.822433
     8  H    0.389087
     9  C   -0.029374
    10  H    0.221434
    11  C   -0.475749
    12  H    0.185805
    13  H    0.186043
    14  H    0.165756
    15  C    0.738450
    16  O   -0.621233
    17  N   -0.800236
    18  H    0.455019
    19  C   -0.274110
    20  H    0.191178
    21  H    0.168793
    22  H    0.173214
 Sum of Mulliken atomic charges =   0.00000

 Dipole moment (field-independent basis, Debye):
    X=             -3.8532    Y=              1.1858    Z=              0.2409  Tot=              4.0387
 Quadrupole moment (field-independent basis, Debye-Ang):
   XX=            -57.7573   YY=            -58.6667   ZZ=            -63.7222
   XY=             -7.2245   XZ=              9.7041   YZ=              1.8759

 Normal termination of Gaussian 09 at Thu Feb  9 16:37:13 2017.
