 Gaussian 09, Revision A.02,
 Gaussian 09:  EM64L-G09RevA.02 11-Jun-2009

 -------------------------------------------
 # HF/6-31G* Opt=(ModRedundant) geom=nocrowd
 -------------------------------------------

 ------------------
 Phi Psi fixed scan
 ------------------
 Symbolic Z-matrix:
 Charge =  0 Multiplicity = 1

 SCF Done:  E(RHF) =  -492.518504652     A.U. after   17 cycles
 SCF Done:  E(RHF) =  -492.625572636     A.U. after   15 cycles
 SCF Done:  E(RHF) =  -492.744555197     A.U. after   14 cycles
 SCF Done:  E(RHF) =  -492.787999518     A.U. after   14 cycles
 SCF Done:  E(RHF) =  -492.813218420     A.U. after   13 cycles
 SCF Done:  E(RHF) =  -492.825138471     A.U. after   14 cycles
 SCF Done:  E(RHF) =  -492.833318858     A.U. after   13 cycles
 SCF Done:  E(RHF) =  -492.840476208     A.U. after   13 cycles
 SCF Done:  E(RHF) =  -492.845099217     A.U. after   13 cycles
 SCF Done:  E(RHF) =  -492.846268667     A.U. after   13 cycles
 SCF Done:  E(RHF) =  -492.847373802     A.U. after   11 cycles
 SCF Done:  E(RHF) =  -492.847414870     A.U. after   12 cycles
 SCF Done:  E(RHF) =  -492.847425521     A.U. after   10 cycles
 SCF Done:  E(RHF) =  -492.847431034     A.U. after   10 cycles
 SCF Done:  E(RHF) =  -492.847435486     A.U. after   10 cycles
 SCF Done:  E(RHF) =  -492.847442732     A.U. after   11 cycles
 SCF Done:  E(RHF) =  -492.847454758     A.U. after   11 cycles
 SCF Done:  E(RHF) =  -492.847456971     A.U. after   11 cycles
 SCF Done:  E(RHF) =  -492.847457120     A.U. after    9 cycles
 SCF Done:  E(RHF) =  -492.847457183     A.U. after    8 cycles
 Optimization completed.
    -- Stationary point found.

                         Standard orientation:
 ---------------------------------------------------------------------
 Center     Atomic      Atomic             Coordinates (Angstroms)
 Number     Number       Type             X           Y           Z
 ---------------------------------------------------------------------
      1          1           0       -3.803598   -1.277831    0.176306
      2          6           0       -3.280735   -0.587928   -0.469581
      3          1           0       -3.817399    0.352850   -0.507849
      4          1           0       -3.254307   -1.007938   -1.470343
      5          6           0       -1.859898   -0.434516    0.034619
      6          8           0       -1.341411   -1.316691    0.671854
      7          7           0       -1.278625    0.743168   -0.279169
      8          1           0       -1.850091    1.340919   -0.831748
      9          6           0        0.109038    1.233197   -0.212466
     10          1           0        0.210462    1.897239   -1.056237
     11          6           0        0.316688    2.037334    1.079296
     12          1           0        0.202749    1.397060    1.946491
     13          1           0        1.307607    2.475451    1.094538
     14          1           0       -0.416166    2.834249    1.145056
     15          6           0        1.315657    0.289859   -0.374850
     16          8           0        2.248686    0.727655   -1.002166
     17          7           0        1.351815   -0.884067    0.257580
     18          1           0        0.510338   -1.242548    0.654421
     19          6           0        2.515633   -1.736196    0.151333
     20          1           0        3.398851   -1.223435    0.508617
     21          1           0        2.348719   -2.616269    0.757592
     22          1           0        2.694016   -2.041666   -0.873325
 ---------------------------------------------------------------------

 The electronic state is 1-A.
 Alpha  occ. eigenvalues --  -20.54112 -20.51019 -15.60469 -15.56363 -11.36945
 Alpha  occ. eigenvalues --  -11.33737 -11.28903 -11.24498 -11.24394 -11.22524
 Alpha  occ. eigenvalues --   -1.40853  -1.38001  -1.25351  -1.21762  -1.06288
 Alpha  occ. eigenvalues --   -1.00203  -0.94759  -0.88556  -0.81589  -0.77054
 Alpha  occ. eigenvalues --   -0.72039  -0.70551  -0.64580  -0.64130  -0.62173
 Alpha  occ. eigenvalues --   -0.61870  -0.60591  -0.58402  -0.58323  -0.56988
 Alpha  occ. eigenvalues --   -0.54617  -0.54014  -0.52634  -0.51994  -0.50019
 Alpha  occ. eigenvalues --   -0.43728  -0.42568  -0.38988  -0.37275
 Alpha virt. eigenvalues --    0.18446   0.19955   0.20749   0.25503   0.26502
 Alpha virt. eigenvalues --    0.28012   0.29046   0.30570   0.31224   0.32329
 Alpha virt. eigenvalues --    0.32478   0.33892   0.34494   0.35815   0.37501

 Mulliken atomic charges:
              1
     1  H    0.219402
     2  C   -0.589736
     3  H    0.177631
     4  H    0.205290
     5  C    0.775409
     6  O   -0.639334
     7  N   -0.826197
     8  H    0.389366
     9  C   -0.020373
    10  H    0.219387
    11  C   -0.480425
    12  H    0.185035
    13  H    0.194892
    14  H    0.165722
    15  C    0.740571
    16  O   -0.630636
    17  N   -0.821574
    18  H    0.471046
    19  C   -0.268852
    20  H    0.186644
    21  H    0.168955
    22  H    0.177775
 Sum of Mulliken atomic charges =   0.00000

 Dipole moment (field-independent basis, Debye):
    X=             -4.1090    Y=              0.9738    Z=             -0.1936  Tot=              4.2273
 Quadrupole moment (field-independent basis, Debye-Ang):
   XX=            -59.6192   YY=            -58.7720   ZZ=            -62.3785
   XY=             -8.4325   XZ=              9.2863   YZ=              1.9654

 Normal termination of Gaussian 09 at Thu Feb  9 16:41:38 2017.
