 Gaussian 09, Revision A.02,
 Gaussian 09:  EM64L-G09RevA.02 11-Jun-2009

 -------------------------------------------
 # HF/6-31G* Opt=(ModRedundant) geom=nocrowd
 -------------------------------------------

 ------------------
 Phi Psi fixed scan
 ------------------
 Symbolic Z-matrix:
 Charge =  0 Multiplicity = 1

 SCF Done:  E(RHF) =  -492.787909237     A.U. after   15 cycles
 SCF Done:  E(RHF) =  -492.833749401     A.U. after   15 cycles
 SCF Done:  E(RHF) =  -492.840966096     A.U. after   13 cycles
 SCF Done:  E(RHF) =  -492.844480740     A.U. after   14 cycles
 SCF Done:  E(RHF) =  -492.845547109     A.U. after   13 cycles
 SCF Done:  E(RHF) =  -492.846054445     A.U. after   13 cycles
 SCF Done:  E(RHF) =  -492.846403007     A.U. after   12 cycles
 SCF Done:  E(RHF) =  -492.846445101     A.U. after   12 cycles
 SCF Done:  E(RHF) =  -492.846572376     A.U. after   12 cycles
 SCF Done:  E(RHF) =  -492.846730456     A.U. after   12 cycles
 SCF Done:  E(RHF) =  -492.847445430     A.U. after   11 cycles
 SCF Done:  E(RHF) =  -492.847456623     A.U. after   11 cycles
 SCF Done:  E(RHF) =  -492.847464658     A.U. after   11 cycles
 SCF Done:  E(RHF) =  -492.847467166     A.U. after   11 cycles
 SCF Done:  E(RHF) =  -492.847467504     A.U. after    8 cycles
 SCF Done:  E(RHF) =  -492.847467731     A.U. after    8 cycles
 SCF Done:  E(RHF) =  -492.847467974     A.U. after    8 cycles
 SCF Done:  E(RHF) =  -492.847468140     A.U. after    8 cycles
 SCF Done:  E(RHF) =  -492.847468224     A.U. after    8 cycles
 SCF Done:  E(RHF) =  -492.847468235     A.U. after    7 cycles
 Optimization completed.
    -- Stationary point found.

                         Standard orientation:
 ---------------------------------------------------------------------
 Center     Atomic      Atomic             Coordinates (Angstroms)
 Number     Number       Type             X           Y           Z
 ---------------------------------------------------------------------
      1          1           0        3.615680   -1.557506   -0.178261
      2          6           0        3.185068   -0.775406    0.429374
      3          1           0        3.825530    0.098907    0.406106
      4          1           0        3.125337   -1.127088    1.454843
      5          6           0        1.787512   -0.480721   -0.073696
      6          8           0        1.169900   -1.294762   -0.709259
      7          7           0        1.324008    0.753815    0.232198
      8          1           0        1.926564    1.293118    0.811565
      9          6           0       -0.050802    1.272474    0.201899
     10          1           0       -0.118401    1.947395    1.040794
     11          6           0       -0.297142    2.053751   -1.092637
     12          1           0       -0.191464    1.412663   -1.959040
     13          1           0       -1.294997    2.479075   -1.100058
     14          1           0        0.421703    2.861549   -1.178181
     15          6           0       -1.202224    0.280513    0.468682
     16          8           0       -1.832547    0.407040    1.485267
     17          7           0       -1.542129   -0.589616   -0.502581
     18          1           0       -0.795051   -0.891354   -1.088675
     19          6           0       -2.599034   -1.548457   -0.254283
     20          1           0       -3.499878   -1.031687    0.042536
     21          1           0       -2.790364   -2.091315   -1.170449
     22          1           0       -2.336908   -2.254294    0.527407
 ---------------------------------------------------------------------

 The electronic state is 1-A.
 Alpha  occ. eigenvalues --  -20.53836 -20.51965 -15.60109 -15.56379 -11.36514
 Alpha  occ. eigenvalues --  -11.33870 -11.28698 -11.24273 -11.24230 -11.22507
 Alpha  occ. eigenvalues --   -1.40634  -1.38560  -1.25041  -1.21793  -1.06125
 Alpha  occ. eigenvalues --   -1.00083  -0.94355  -0.88551  -0.81283  -0.76379
 Alpha  occ. eigenvalues --   -0.71880  -0.70210  -0.64736  -0.63996  -0.62917
 Alpha  occ. eigenvalues --   -0.61704  -0.60414  -0.58186  -0.57602  -0.56903
 Alpha  occ. eigenvalues --   -0.54541  -0.53680  -0.52506  -0.51629  -0.51037
 Alpha  occ. eigenvalues --   -0.43655  -0.42886  -0.39264  -0.37404
 Alpha virt. eigenvalues --    0.18670   0.19001   0.21431   0.25290   0.26096
 Alpha virt. eigenvalues --    0.27963   0.29128   0.30253   0.31460   0.31953
 Alpha virt. eigenvalues --    0.32606   0.33760   0.34156   0.35838   0.37220

 Mulliken atomic charges:
              1
     1  H    0.218458
     2  C   -0.592073
     3  H    0.179592
     4  H    0.204880
     5  C    0.764565
     6  O   -0.628829
     7  N   -0.815944
     8  H    0.388447
     9  C   -0.035975
    10  H    0.221545
    11  C   -0.469433
    12  H    0.182080
    13  H    0.180044
    14  H    0.165002
    15  C    0.738428
    16  O   -0.612369
    17  N   -0.777141
    18  H    0.433643
    19  C   -0.279529
    20  H    0.193418
    21  H    0.168280
    22  H    0.172911
 Sum of Mulliken atomic charges =   0.00000

 Dipole moment (field-independent basis, Debye):
    X=              3.4941    Y=              1.4645    Z=             -0.6062  Tot=              3.8368
 Quadrupole moment (field-independent basis, Debye-Ang):
   XX=            -55.5537   YY=            -58.4775   ZZ=            -65.0408
   XY=              5.4395   XZ=              9.5772   YZ=             -1.1530

 Normal termination of Gaussian 09 at Thu Feb  9 16:34:20 2017.
