 Gaussian 09, Revision A.02,
 Gaussian 09:  EM64L-G09RevA.02 11-Jun-2009

 -------------------------------------------------------------------
 # HF/6-31G* Opt=(ModRedundant, maxcycles=1000, calcfc) geom=nocrowd
 -------------------------------------------------------------------

 ------------------
 Phi Psi fixed scan
 ------------------
 Symbolic Z-matrix:
 Charge =  0 Multiplicity = 1

 SCF Done:  E(RHF) =  -984.536831337     A.U. after   15 cycles

  Exact polarizability:   0.000   0.000   0.000   0.000   0.000   0.000
 Approx polarizability: 125.162  -1.624 125.246  -1.459 -13.753 138.006

 SCF Done:  E(RHF) =  -984.545437732     A.U. after   16 cycles
 SCF Done:  E(RHF) =  -984.554508096     A.U. after   13 cycles
 SCF Done:  E(RHF) =  -984.556566668     A.U. after   13 cycles
 SCF Done:  E(RHF) =  -984.558826234     A.U. after   13 cycles
 SCF Done:  E(RHF) =  -984.558924258     A.U. after   13 cycles
 SCF Done:  E(RHF) =  -984.559409476     A.U. after   13 cycles
 SCF Done:  E(RHF) =  -984.441844051     A.U. after   16 cycles
 SCF Done:  E(RHF) =  -984.559647981     A.U. after   16 cycles
 SCF Done:  E(RHF) =  -984.559665917     A.U. after   13 cycles
 SCF Done:  E(RHF) =  -984.559773453     A.U. after   10 cycles
 SCF Done:  E(RHF) =  -984.559774983     A.U. after   10 cycles
 SCF Done:  E(RHF) =  -984.559775638     A.U. after    9 cycles
 SCF Done:  E(RHF) =  -984.559775775     A.U. after    8 cycles
 SCF Done:  E(RHF) =  -984.559775896     A.U. after    8 cycles
 SCF Done:  E(RHF) =  -984.559776002     A.U. after    8 cycles
 SCF Done:  E(RHF) =  -984.559776068     A.U. after    8 cycles
 SCF Done:  E(RHF) =  -984.559776130     A.U. after    8 cycles
 SCF Done:  E(RHF) =  -984.559776177     A.U. after    8 cycles
 SCF Done:  E(RHF) =  -984.559776193     A.U. after    8 cycles
 Optimization completed.
    -- Stationary point found.

                         Standard orientation:
 ---------------------------------------------------------------------
 Center     Atomic      Atomic             Coordinates (Angstroms)
 Number     Number       Type             X           Y           Z
 ---------------------------------------------------------------------
      1          1           0        7.040865    0.617213   -0.105422
      2          6           0        6.201428    0.819206   -0.757268
      3          1           0        6.132835    0.045297   -1.512013
      4          1           0        6.382792    1.769600   -1.247585
      5          6           0        4.951558    0.943595    0.086718
      6          8           0        4.946416    1.559534    1.120926
      7          7           0        3.849303    0.341868   -0.404277
      8          1           0        3.879123   -0.183209   -1.249205
      9          6           0        2.582832    0.378376    0.283710
     10          1           0        2.771850    0.285441    1.345887
     11          6           0        1.818086    1.684659    0.025341
     12          1           0        1.618023    1.797773   -1.034709
     13          1           0        0.873018    1.706915    0.558341
     14          1           0        2.420456    2.518755    0.360011
     15          6           0        1.763478   -0.813420   -0.202475
     16          8           0        1.979593   -1.337009   -1.261403
     17          7           0        0.766885   -1.198032    0.627071
     18          1           0        0.703824   -0.757416    1.517350
     19          6           0       -0.157721   -2.276838    0.320502
     20          1           0        0.337218   -2.934362   -0.375956
     21          6           0       -0.528918   -3.043246    1.588781
     22          1           0       -0.990081   -2.399287    2.331203
     23          1           0       -1.230637   -3.835418    1.355153
     24          1           0        0.358592   -3.487711    2.024224
     25          6           0       -1.398964   -1.773036   -0.423381
     26          8           0       -1.717540   -2.229921   -1.486521
     27          7           0       -2.144361   -0.854943    0.232826
     28          1           0       -1.770891   -0.378255    1.023342
     29          6           0       -3.260635   -0.191565   -0.397908
     30          1           0       -3.075230   -0.144855   -1.464111
     31          6           0       -4.573952   -0.945303   -0.153898
     32          1           0       -4.791369   -0.993100    0.907515
     33          1           0       -5.410012   -0.469209   -0.655852
     34          1           0       -4.477218   -1.953253   -0.535941
     35          6           0       -3.326400    1.228992    0.163996
     36          8           0       -2.732006    1.532297    1.167996
     37          7           0       -4.097123    2.083627   -0.530860
     38          1           0       -4.535718    1.757112   -1.361211
     39          6           0       -4.326680    3.457058   -0.133655
     40          1           0       -3.702510    3.674020    0.717621
     41          1           0       -4.070006    4.131452   -0.942055
     42          1           0       -5.364225    3.614788    0.139323
 ---------------------------------------------------------------------

 The electronic state is 1-A.
 Alpha  occ. eigenvalues --  -20.54220 -20.53950 -20.52809 -20.51425 -15.60345
 Alpha  occ. eigenvalues --  -15.60234 -15.58371 -15.57875 -11.36347 -11.35978
 Alpha  occ. eigenvalues --  -11.34664 -11.34303 -11.28714 -11.28453 -11.28169
 Alpha  occ. eigenvalues --  -11.26914 -11.23964 -11.23134 -11.22741 -11.22249
 Alpha  occ. eigenvalues --   -1.41194  -1.40977  -1.39452  -1.38326  -1.25881
 Alpha  occ. eigenvalues --   -1.25140  -1.23809  -1.23477  -1.07755  -1.05180
 Alpha  occ. eigenvalues --   -1.03138  -0.98645  -0.97107  -0.91944  -0.89928
 Alpha  occ. eigenvalues --   -0.87333  -0.81752  -0.81071  -0.78980  -0.78604
 Alpha  occ. eigenvalues --   -0.75578  -0.71877  -0.69087  -0.67866  -0.66995
 Alpha  occ. eigenvalues --   -0.65541  -0.65298  -0.64599  -0.63414  -0.63095
 Alpha  occ. eigenvalues --   -0.62694  -0.61365  -0.60613  -0.59153  -0.58782
 Alpha  occ. eigenvalues --   -0.58036  -0.57278  -0.56629  -0.56543  -0.56173
 Alpha  occ. eigenvalues --   -0.55865  -0.54537  -0.54017  -0.53841  -0.53338
 Alpha  occ. eigenvalues --   -0.52597  -0.51936  -0.50677  -0.49527  -0.44670
 Alpha  occ. eigenvalues --   -0.43559  -0.43010  -0.41235  -0.40861  -0.39425
 Alpha  occ. eigenvalues --   -0.38942  -0.38087
 Alpha virt. eigenvalues --    0.18265   0.18666   0.19367   0.20180   0.20820
 Alpha virt. eigenvalues --    0.21430   0.24079   0.25293   0.25891   0.27800
 Alpha virt. eigenvalues --    0.27966   0.28505   0.29100   0.29588   0.30129

 Mulliken atomic charges:
              1
     1  H    0.207574
     2  C   -0.575766
     3  H    0.174058
     4  H    0.202592
     5  C    0.755968
     6  O   -0.622845
     7  N   -0.823275
     8  H    0.419203
     9  C   -0.034708
    10  H    0.215163
    11  C   -0.491751
    12  H    0.177174
    13  H    0.170053
    14  H    0.211344
    15  C    0.791543
    16  O   -0.615659
    17  N   -0.834256
    18  H    0.390055
    19  C   -0.064820
    20  H    0.259918
    21  C   -0.498538
    22  H    0.164900
    23  H    0.196747
    24  H    0.189338
    25  C    0.786190
    26  O   -0.609402
    27  N   -0.818707
    28  H    0.414050
    29  C   -0.047290
    30  H    0.222439
    31  C   -0.477278
    32  H    0.178092
    33  H    0.154786
    34  H    0.207842
    35  C    0.780793
    36  O   -0.640271
    37  N   -0.797377
    38  H    0.389891
    39  C   -0.290214
    40  H    0.229990
    41  H    0.176708
    42  H    0.175747
 Sum of Mulliken atomic charges =   0.00000

 Dipole moment (field-independent basis, Debye):
    X=             -4.0147    Y=              1.0899    Z=              0.0364  Tot=              4.1601
 Quadrupole moment (field-independent basis, Debye-Ang):
   XX=           -105.6483   YY=           -121.6179   ZZ=           -126.9969
   XY=            -16.0999   XZ=             -5.1316   YZ=            -20.4425

 Normal termination of Gaussian 09 at Tue Dec 27 04:19:20 2016.
