 Gaussian 09, Revision A.02,
 Gaussian 09:  EM64L-G09RevA.02 11-Jun-2009

 -------------------------------------------------------------------
 # HF/6-31G* Opt=(ModRedundant, maxcycles=1000, calcfc) geom=nocrowd
 -------------------------------------------------------------------

 ------------------
 Phi Psi fixed scan
 ------------------
 Symbolic Z-matrix:
 Charge =  0 Multiplicity = 1

 SCF Done:  E(RHF) =  -984.543241982     A.U. after   15 cycles

  Exact polarizability:   0.000   0.000   0.000   0.000   0.000   0.000
 Approx polarizability: 132.913   6.161 125.626   6.784   5.004 130.579

 SCF Done:  E(RHF) =  -984.551797976     A.U. after   13 cycles
 SCF Done:  E(RHF) =  -984.560813189     A.U. after   13 cycles
 SCF Done:  E(RHF) =  -984.562853049     A.U. after   13 cycles
 SCF Done:  E(RHF) =  -984.564785635     A.U. after   16 cycles
 SCF Done:  E(RHF) =  -984.565091816     A.U. after   15 cycles
 SCF Done:  E(RHF) =  -984.564982164     A.U. after   12 cycles
 SCF Done:  E(RHF) =  -984.357530012     A.U. after   14 cycles
 SCF Done:  E(RHF) =  -984.363685823     A.U. after   11 cycles
 SCF Done:  E(RHF) =  -984.565246034     A.U. after   15 cycles
 SCF Done:  E(RHF) =  -984.565816524     A.U. after   10 cycles
 SCF Done:  E(RHF) =  -984.565817033     A.U. after    9 cycles
 SCF Done:  E(RHF) =  -984.565817120     A.U. after    8 cycles
 SCF Done:  E(RHF) =  -984.565817139     A.U. after    7 cycles
 SCF Done:  E(RHF) =  -984.565817164     A.U. after    7 cycles
 SCF Done:  E(RHF) =  -984.565817190     A.U. after    7 cycles
 SCF Done:  E(RHF) =  -984.565817227     A.U. after    7 cycles
 SCF Done:  E(RHF) =  -984.565817295     A.U. after    8 cycles
 SCF Done:  E(RHF) =  -984.565817327     A.U. after    8 cycles
 SCF Done:  E(RHF) =  -984.565817330     A.U. after    7 cycles
 Optimization completed.
    -- Stationary point found.

                         Standard orientation:
 ---------------------------------------------------------------------
 Center     Atomic      Atomic             Coordinates (Angstroms)
 Number     Number       Type             X           Y           Z
 ---------------------------------------------------------------------
      1          1           0       -6.568718   -1.030013   -0.980207
      2          6           0       -5.579492   -1.458793   -1.068292
      3          1           0       -5.203021   -1.302162   -2.071849
      4          1           0       -5.662049   -2.525578   -0.890003
      5          6           0       -4.693924   -0.858937    0.002127
      6          8           0       -5.085472   -0.696979    1.128757
      7          7           0       -3.439937   -0.544613   -0.381747
      8          1           0       -3.151828   -0.636963   -1.329704
      9          6           0       -2.486231    0.043183    0.525647
     10          1           0       -3.009811    0.752969    1.154840
     11          6           0       -1.809527   -1.007486    1.418022
     12          1           0       -1.229628   -1.703765    0.823286
     13          1           0       -1.146345   -0.546992    2.143309
     14          1           0       -2.572902   -1.551562    1.957769
     15          6           0       -1.451792    0.785010   -0.316058
     16          8           0       -1.319979    0.576241   -1.492381
     17          7           0       -0.673818    1.662820    0.360264
     18          1           0       -0.888032    1.849299    1.314119
     19          6           0        0.308160    2.507378   -0.295735
     20          1           0       -0.017706    2.655256   -1.315575
     21          6           0        0.394041    3.860470    0.409865
     22          1           0        0.695823    3.741949    1.447416
     23          1           0        1.124450    4.484929   -0.083338
     24          1           0       -0.570056    4.355880    0.386570
     25          6           0        1.706433    1.893795   -0.413663
     26          8           0        2.581685    2.525197   -0.950586
     27          7           0        1.889377    0.664698    0.087176
     28          1           0        1.131679    0.156911    0.482114
     29          6           0        3.136068   -0.046095   -0.060086
     30          1           0        3.536988    0.169116   -1.042934
     31          6           0        4.165650    0.367835    0.999500
     32          1           0        3.791431    0.148508    1.993529
     33          1           0        5.105126   -0.157199    0.861393
     34          1           0        4.350892    1.430755    0.919110
     35          6           0        2.823969   -1.535522    0.057341
     36          8           0        1.844460   -1.928236    0.638264
     37          7           0        3.732635   -2.365273   -0.483370
     38          1           0        4.457665   -1.983619   -1.045310
     39          6           0        3.569334   -3.804209   -0.442800
     40          1           0        3.340540   -4.120717    0.564470
     41          1           0        2.770330   -4.133722   -1.096909
     42          1           0        4.495681   -4.266256   -0.756019
 ---------------------------------------------------------------------

 The electronic state is 1-A.
 Alpha  occ. eigenvalues --  -20.54411 -20.53897 -20.52104 -20.51474 -15.60345
 Alpha  occ. eigenvalues --  -15.59977 -15.58338 -15.57888 -11.36306 -11.35824
 Alpha  occ. eigenvalues --  -11.34589 -11.34330 -11.28552 -11.28521 -11.28279
 Alpha  occ. eigenvalues --  -11.26783 -11.23235 -11.22772 -11.22752 -11.22088
 Alpha  occ. eigenvalues --   -1.41430  -1.40827  -1.39029  -1.38379  -1.26099
 Alpha  occ. eigenvalues --   -1.24753  -1.23707  -1.23491  -1.07421  -1.05083
 Alpha  occ. eigenvalues --   -1.03124  -0.98629  -0.96802  -0.91833  -0.89797
 Alpha  occ. eigenvalues --   -0.87038  -0.81790  -0.80823  -0.79023  -0.78595
 Alpha  occ. eigenvalues --   -0.75451  -0.71986  -0.69097  -0.67865  -0.67488
 Alpha  occ. eigenvalues --   -0.65653  -0.64983  -0.64666  -0.63596  -0.62966
 Alpha  occ. eigenvalues --   -0.61675  -0.61120  -0.60314  -0.59235  -0.58595
 Alpha  occ. eigenvalues --   -0.58048  -0.56816  -0.56582  -0.56500  -0.55918
 Alpha  occ. eigenvalues --   -0.55659  -0.54554  -0.53994  -0.53534  -0.52753
 Alpha  occ. eigenvalues --   -0.52465  -0.51980  -0.49640  -0.49410  -0.44833
 Alpha  occ. eigenvalues --   -0.43489  -0.43124  -0.41276  -0.40651  -0.39544
 Alpha  occ. eigenvalues --   -0.38685  -0.38136
 Alpha virt. eigenvalues --    0.18053   0.18494   0.20111   0.20720   0.20909
 Alpha virt. eigenvalues --    0.21465   0.24000   0.25508   0.26385   0.26596
 Alpha virt. eigenvalues --    0.28092   0.28834   0.29216   0.29678   0.30668

 Mulliken atomic charges:
              1
     1  H    0.207589
     2  C   -0.575416
     3  H    0.173360
     4  H    0.203084
     5  C    0.755167
     6  O   -0.622382
     7  N   -0.822383
     8  H    0.419585
     9  C   -0.033458
    10  H    0.216140
    11  C   -0.494983
    12  H    0.200231
    13  H    0.154924
    14  H    0.212103
    15  C    0.777448
    16  O   -0.620256
    17  N   -0.850272
    18  H    0.395082
    19  C   -0.020244
    20  H    0.249248
    21  C   -0.511242
    22  H    0.162256
    23  H    0.222462
    24  H    0.180367
    25  C    0.789809
    26  O   -0.640194
    27  N   -0.840003
    28  H    0.439126
    29  C   -0.028663
    30  H    0.214528
    31  C   -0.484992
    32  H    0.177445
    33  H    0.160547
    34  H    0.210355
    35  C    0.777844
    36  O   -0.634709
    37  N   -0.798043
    38  H    0.390691
    39  C   -0.273659
    40  H    0.203289
    41  H    0.185449
    42  H    0.172770
 Sum of Mulliken atomic charges =   0.00000

 Dipole moment (field-independent basis, Debye):
    X=              3.2724    Y=             -1.4608    Z=             -0.3323  Tot=              3.5990
 Quadrupole moment (field-independent basis, Debye-Ang):
   XX=           -118.7554   YY=           -114.1718   ZZ=           -124.0207
   XY=            -16.4702   XZ=             10.8737   YZ=             14.3637

 Normal termination of Gaussian 09 at Tue Dec 27 03:00:04 2016.
