 Gaussian 09, Revision A.02,
 Gaussian 09:  EM64L-G09RevA.02 11-Jun-2009

 -------------------------------------------------------------------
 # HF/6-31G* Opt=(ModRedundant, maxcycles=1000, calcfc) geom=nocrowd
 -------------------------------------------------------------------

 ------------------
 Phi Psi fixed scan
 ------------------
 Symbolic Z-matrix:
 Charge =  0 Multiplicity = 1

 SCF Done:  E(RHF) =  -984.542272488     A.U. after   15 cycles

  Exact polarizability:   0.000   0.000   0.000   0.000   0.000   0.000
 Approx polarizability: 136.465   6.805 126.073   2.485  -3.103 126.441

 SCF Done:  E(RHF) =  -984.550466944     A.U. after   13 cycles
 SCF Done:  E(RHF) =  -984.559075626     A.U. after   13 cycles
 SCF Done:  E(RHF) =  -984.561084658     A.U. after   16 cycles
 SCF Done:  E(RHF) =  -984.563068916     A.U. after   13 cycles
 SCF Done:  E(RHF) =  -984.563316718     A.U. after   15 cycles
 SCF Done:  E(RHF) =  -984.563235687     A.U. after   13 cycles
 SCF Done:  E(RHF) =  -984.471351081     A.U. after   15 cycles
 SCF Done:  E(RHF) =  -984.475838800     A.U. after   11 cycles
 SCF Done:  E(RHF) =  -984.563697039     A.U. after   15 cycles
 SCF Done:  E(RHF) =  -984.564104986     A.U. after   10 cycles
 SCF Done:  E(RHF) =  -984.564102295     A.U. after   10 cycles
 SCF Done:  E(RHF) =  -984.564109426     A.U. after   10 cycles
 SCF Done:  E(RHF) =  -984.564112191     A.U. after   10 cycles
 SCF Done:  E(RHF) =  -984.564113520     A.U. after    9 cycles
 SCF Done:  E(RHF) =  -984.564115196     A.U. after   10 cycles
 SCF Done:  E(RHF) =  -984.564115447     A.U. after    9 cycles
 SCF Done:  E(RHF) =  -984.564115450     A.U. after    8 cycles
 SCF Done:  E(RHF) =  -984.564115498     A.U. after    9 cycles
 SCF Done:  E(RHF) =  -984.564115509     A.U. after    7 cycles
 Optimization completed.
    -- Stationary point found.

                         Standard orientation:
 ---------------------------------------------------------------------
 Center     Atomic      Atomic             Coordinates (Angstroms)
 Number     Number       Type             X           Y           Z
 ---------------------------------------------------------------------
      1          1           0       -5.433625   -2.830616   -0.558030
      2          6           0       -5.422059   -1.806471   -0.915830
      3          1           0       -6.442600   -1.448890   -0.935243
      4          1           0       -5.012241   -1.794216   -1.918513
      5          6           0       -4.630809   -0.963486    0.060339
      6          8           0       -5.096395   -0.606650    1.111339
      7          7           0       -3.370550   -0.662044   -0.313657
      8          1           0       -3.008763   -0.952046   -1.194198
      9          6           0       -2.489138    0.116448    0.519771
     10          1           0       -3.070481    0.900587    0.988085
     11          6           0       -1.820201   -0.732679    1.611435
     12          1           0       -1.198797   -1.503602    1.169483
     13          1           0       -1.199825   -0.124678    2.262579
     14          1           0       -2.588751   -1.198268    2.213870
     15          6           0       -1.430342    0.735452   -0.386452
     16          8           0       -1.174873    0.273375   -1.468963
     17          7           0       -0.774643    1.797418    0.124942
     18          1           0       -1.020057    2.114361    1.035964
     19          6           0        0.295082    2.498070   -0.564935
     20          1           0        0.129932    2.347620   -1.624282
     21          6           0        0.229288    3.989026   -0.248743
     22          1           0        0.363546    4.169749    0.813772
     23          1           0        1.011303    4.517851   -0.772155
     24          1           0       -0.734297    4.384611   -0.548631
     25          6           0        1.698301    1.939672   -0.280221
     26          8           0        2.662586    2.659491   -0.340575
     27          7           0        1.788822    0.628157   -0.006093
     28          1           0        0.998487    0.029197   -0.086744
     29          6           0        3.065179   -0.024199    0.171284
     30          1           0        3.759089    0.358890   -0.567792
     31          6           0        3.644722    0.219943    1.570988
     32          1           0        2.975574   -0.175710    2.327074
     33          1           0        4.612919   -0.256965    1.682946
     34          1           0        3.765829    1.283270    1.727597
     35          6           0        2.847276   -1.518373   -0.050472
     36          8           0        1.766062   -2.026545    0.098367
     37          7           0        3.945774   -2.223783   -0.372563
     38          1           0        4.785139   -1.737497   -0.586679
     39          6           0        3.891173   -3.653098   -0.602214
     40          1           0        3.386956   -4.140779    0.219623
     41          1           0        3.362645   -3.889384   -1.518408
     42          1           0        4.902315   -4.030935   -0.669781
 ---------------------------------------------------------------------

 The electronic state is 1-A.
 Alpha  occ. eigenvalues --  -20.54352 -20.53771 -20.52579 -20.51473 -15.60367
 Alpha  occ. eigenvalues --  -15.59864 -15.58206 -15.57899 -11.36316 -11.35705
 Alpha  occ. eigenvalues --  -11.34806 -11.34326 -11.28698 -11.28471 -11.28301
 Alpha  occ. eigenvalues --  -11.26699 -11.22744 -11.22639 -11.22632 -11.22222
 Alpha  occ. eigenvalues --   -1.41408  -1.40742  -1.39345  -1.38376  -1.26018
 Alpha  occ. eigenvalues --   -1.24638  -1.23695  -1.23468  -1.07359  -1.05043
 Alpha  occ. eigenvalues --   -1.03034  -0.98634  -0.96694  -0.91818  -0.89791
 Alpha  occ. eigenvalues --   -0.86734  -0.81814  -0.80681  -0.78875  -0.78601
 Alpha  occ. eigenvalues --   -0.75589  -0.71838  -0.68915  -0.67887  -0.67861
 Alpha  occ. eigenvalues --   -0.65567  -0.64944  -0.64437  -0.63873  -0.63023
 Alpha  occ. eigenvalues --   -0.61795  -0.61033  -0.60330  -0.59395  -0.58197
 Alpha  occ. eigenvalues --   -0.58064  -0.56734  -0.56432  -0.56002  -0.55845
 Alpha  occ. eigenvalues --   -0.55231  -0.54478  -0.53769  -0.53432  -0.52719
 Alpha  occ. eigenvalues --   -0.52549  -0.52013  -0.49968  -0.49621  -0.45014
 Alpha  occ. eigenvalues --   -0.43510  -0.43061  -0.41274  -0.40593  -0.39579
 Alpha  occ. eigenvalues --   -0.38610  -0.37988
 Alpha virt. eigenvalues --    0.17935   0.18655   0.19677   0.20879   0.21266
 Alpha virt. eigenvalues --    0.21933   0.24001   0.25694   0.26112   0.26684
 Alpha virt. eigenvalues --    0.28190   0.28814   0.29315   0.29839   0.30562

 Mulliken atomic charges:
              1
     1  H    0.202819
     2  C   -0.576304
     3  H    0.208050
     4  H    0.174253
     5  C    0.755993
     6  O   -0.622488
     7  N   -0.821942
     8  H    0.419693
     9  C   -0.031452
    10  H    0.218668
    11  C   -0.501084
    12  H    0.202640
    13  H    0.154672
    14  H    0.211829
    15  C    0.777066
    16  O   -0.633756
    17  N   -0.824114
    18  H    0.394688
    19  C   -0.055445
    20  H    0.248025
    21  C   -0.489086
    22  H    0.162683
    23  H    0.215856
    24  H    0.176625
    25  C    0.792669
    26  O   -0.633480
    27  N   -0.849860
    28  H    0.450937
    29  C   -0.021440
    30  H    0.208527
    31  C   -0.486830
    32  H    0.178641
    33  H    0.159846
    34  H    0.211471
    35  C    0.772046
    36  O   -0.628929
    37  N   -0.799181
    38  H    0.390131
    39  C   -0.272804
    40  H    0.202146
    41  H    0.186313
    42  H    0.171909
 Sum of Mulliken atomic charges =   0.00000

 Dipole moment (field-independent basis, Debye):
    X=              3.5514    Y=             -1.3258    Z=             -0.6253  Tot=              3.8420
 Quadrupole moment (field-independent basis, Debye-Ang):
   XX=           -117.9843   YY=           -115.9280   ZZ=           -121.9643
   XY=            -15.4723   XZ=              9.5871   YZ=              6.8873

 Normal termination of Gaussian 09 at Tue Dec 27 05:23:25 2016.
