 Gaussian 09, Revision A.02,
 Gaussian 09:  EM64L-G09RevA.02 11-Jun-2009

 -------------------------------------------------------------------
 # HF/6-31G* Opt=(ModRedundant, maxcycles=1000, calcfc) geom=nocrowd
 -------------------------------------------------------------------

 ------------------
 Phi Psi fixed scan
 ------------------
 Symbolic Z-matrix:
 Charge =  0 Multiplicity = 1

 SCF Done:  E(RHF) =  -984.544633208     A.U. after   15 cycles

  Exact polarizability:   0.000   0.000   0.000   0.000   0.000   0.000
 Approx polarizability: 133.249   4.687 129.800   1.531  10.141 125.661

 SCF Done:  E(RHF) =  -984.552154361     A.U. after   13 cycles
 SCF Done:  E(RHF) =  -984.560037735     A.U. after   13 cycles
 SCF Done:  E(RHF) =  -984.561947282     A.U. after   13 cycles
 SCF Done:  E(RHF) =  -984.563843300     A.U. after   13 cycles
 SCF Done:  E(RHF) =  -984.564142359     A.U. after   15 cycles
 SCF Done:  E(RHF) =  -984.564729555     A.U. after   14 cycles
 SCF Done:  E(RHF) =  -984.454034703     A.U. after   15 cycles
 SCF Done:  E(RHF) =  -984.564871688     A.U. after   15 cycles
 SCF Done:  E(RHF) =  -984.564922676     A.U. after   13 cycles
 SCF Done:  E(RHF) =  -984.565058608     A.U. after   11 cycles
 SCF Done:  E(RHF) =  -984.565067740     A.U. after   11 cycles
 SCF Done:  E(RHF) =  -984.565073690     A.U. after   11 cycles
 SCF Done:  E(RHF) =  -984.565077243     A.U. after   10 cycles
 SCF Done:  E(RHF) =  -984.565080523     A.U. after   11 cycles
 SCF Done:  E(RHF) =  -984.565081067     A.U. after    9 cycles
 SCF Done:  E(RHF) =  -984.565081169     A.U. after    8 cycles
 SCF Done:  E(RHF) =  -984.565081232     A.U. after    8 cycles
 SCF Done:  E(RHF) =  -984.565081251     A.U. after    7 cycles
 SCF Done:  E(RHF) =  -984.565081254     A.U. after    6 cycles
 Optimization completed.
    -- Stationary point found.

                         Standard orientation:
 ---------------------------------------------------------------------
 Center     Atomic      Atomic             Coordinates (Angstroms)
 Number     Number       Type             X           Y           Z
 ---------------------------------------------------------------------
      1          1           0       -6.344475   -1.897241   -1.088210
      2          6           0       -5.333303   -2.200352   -0.852822
      3          1           0       -4.788784   -2.396268   -1.768504
      4          1           0       -5.385427   -3.118100   -0.276602
      5          6           0       -4.692536   -1.129491    0.002639
      6          8           0       -5.300748   -0.567493    0.876003
      7          7           0       -3.396233   -0.865595   -0.262017
      8          1           0       -2.910974   -1.335242   -0.993196
      9          6           0       -2.646048    0.112782    0.484818
     10          1           0       -3.295538    0.954451    0.688291
     11          6           0       -2.121658   -0.448736    1.814413
     12          1           0       -1.457639   -1.286884    1.633508
     13          1           0       -1.580638    0.304554    2.378370
     14          1           0       -2.959860   -0.784910    2.410072
     15          6           0       -1.480107    0.560697   -0.389147
     16          8           0       -1.050738   -0.138614   -1.273384
     17          7           0       -0.945253    1.756732   -0.084329
     18          1           0       -1.331402    2.278052    0.670633
     19          6           0        0.186972    2.336415   -0.794098
     20          1           0        0.163979    1.924550   -1.794288
     21          6           0        0.047098    3.850868   -0.855563
     22          1           0        0.051494    4.284855    0.137675
     23          1           0        0.875163    4.283814   -1.399759
     24          1           0       -0.878905    4.113296   -1.354704
     25          6           0        1.519127    1.922132   -0.149452
     26          8           0        2.283090    2.739269    0.296654
     27          7           0        1.759918    0.599751   -0.115505
     28          1           0        1.132716   -0.049583   -0.544808
     29          6           0        2.970727    0.072351    0.470400
     30          1           0        3.785353    0.740279    0.220651
     31          6           0        2.871848   -0.039082    1.997728
     32          1           0        2.065091   -0.709452    2.272777
     33          1           0        3.795359   -0.417566    2.423826
     34          1           0        2.676773    0.939424    2.417012
     35          6           0        3.223584   -1.304755   -0.133375
     36          8           0        2.320499   -1.995759   -0.523599
     37          7           0        4.509155   -1.705827   -0.144218
     38          1           0        5.220276   -1.049616    0.080275
     39          6           0        4.896940   -2.996789   -0.673692
     40          1           0        4.269703   -3.769947   -0.254240
     41          1           0        4.806506   -3.030197   -1.753497
     42          1           0        5.925441   -3.189167   -0.399275
 ---------------------------------------------------------------------

 The electronic state is 1-A.
 Alpha  occ. eigenvalues --  -20.54531 -20.53188 -20.52741 -20.51654 -15.60617
 Alpha  occ. eigenvalues --  -15.59476 -15.58107 -15.57846 -11.36540 -11.35184
 Alpha  occ. eigenvalues --  -11.34699 -11.34503 -11.28702 -11.28556 -11.28110
 Alpha  occ. eigenvalues --  -11.26406 -11.22863 -11.22680 -11.22648 -11.22481
 Alpha  occ. eigenvalues --   -1.41563  -1.40287  -1.39309  -1.38561  -1.26002
 Alpha  occ. eigenvalues --   -1.24224  -1.23800  -1.23389  -1.07517  -1.04963
 Alpha  occ. eigenvalues --   -1.03085  -0.98835  -0.96412  -0.91897  -0.89898
 Alpha  occ. eigenvalues --   -0.86475  -0.81968  -0.80187  -0.78913  -0.78590
 Alpha  occ. eigenvalues --   -0.75396  -0.71836  -0.68712  -0.68451  -0.67205
 Alpha  occ. eigenvalues --   -0.65693  -0.65261  -0.64090  -0.63788  -0.63086
 Alpha  occ. eigenvalues --   -0.61775  -0.60988  -0.60163  -0.59501  -0.58449
 Alpha  occ. eigenvalues --   -0.58329  -0.56927  -0.56097  -0.56024  -0.55550
 Alpha  occ. eigenvalues --   -0.54846  -0.54445  -0.53895  -0.53351  -0.52930
 Alpha  occ. eigenvalues --   -0.52632  -0.51979  -0.50379  -0.49820  -0.44963
 Alpha  occ. eigenvalues --   -0.43646  -0.42647  -0.41452  -0.40099  -0.39603
 Alpha  occ. eigenvalues --   -0.38492  -0.38159
 Alpha virt. eigenvalues --    0.17519   0.18796   0.19666   0.21220   0.21459
 Alpha virt. eigenvalues --    0.22225   0.23831   0.25209   0.25734   0.26200
 Alpha virt. eigenvalues --    0.28579   0.28793   0.29439   0.30307   0.30522

 Mulliken atomic charges:
              1
     1  H    0.208606
     2  C   -0.576599
     3  H    0.175411
     4  H    0.203083
     5  C    0.755807
     6  O   -0.622059
     7  N   -0.822520
     8  H    0.420815
     9  C   -0.030104
    10  H    0.219908
    11  C   -0.491251
    12  H    0.185379
    13  H    0.158371
    14  H    0.213232
    15  C    0.793061
    16  O   -0.643994
    17  N   -0.814240
    18  H    0.396201
    19  C   -0.069946
    20  H    0.237638
    21  C   -0.479656
    22  H    0.177560
    23  H    0.197617
    24  H    0.173766
    25  C    0.792982
    26  O   -0.630315
    27  N   -0.853487
    28  H    0.459738
    29  C   -0.025396
    30  H    0.209035
    31  C   -0.486270
    32  H    0.179605
    33  H    0.161824
    34  H    0.203003
    35  C    0.769500
    36  O   -0.619409
    37  N   -0.799886
    38  H    0.388334
    39  C   -0.272676
    40  H    0.203275
    41  H    0.183583
    42  H    0.170473
 Sum of Mulliken atomic charges =   0.00000

 Dipole moment (field-independent basis, Debye):
    X=              3.5320    Y=             -0.5322    Z=             -0.3043  Tot=              3.5848
 Quadrupole moment (field-independent basis, Debye-Ang):
   XX=           -114.8442   YY=           -119.4617   ZZ=           -120.5297
   XY=             -9.2522   XZ=              8.9686   YZ=             -1.7222

 Normal termination of Gaussian 09 at Tue Dec 27 05:16:36 2016.
