 Gaussian 09, Revision A.02,
 Gaussian 09:  EM64L-G09RevA.02 11-Jun-2009

 -------------------------------------------------------------------
 # HF/6-31G* Opt=(ModRedundant, maxcycles=1000, calcfc) geom=nocrowd
 -------------------------------------------------------------------

 ------------------
 Phi Psi fixed scan
 ------------------
 Symbolic Z-matrix:
 Charge =  0 Multiplicity = 1

 SCF Done:  E(RHF) =  -984.545199946     A.U. after   15 cycles

  Exact polarizability:   0.000   0.000   0.000   0.000   0.000   0.000
 Approx polarizability: 129.672  -1.631 130.760   0.709  13.743 128.270

 SCF Done:  E(RHF) =  -984.552674582     A.U. after   13 cycles
 SCF Done:  E(RHF) =  -984.560472310     A.U. after   13 cycles
 SCF Done:  E(RHF) =  -984.562384951     A.U. after   13 cycles
 SCF Done:  E(RHF) =  -984.564581613     A.U. after   14 cycles
 SCF Done:  E(RHF) =  -984.564909647     A.U. after   15 cycles
 SCF Done:  E(RHF) =  -984.565364532     A.U. after   12 cycles
 SCF Done:  E(RHF) =  -984.533566962     A.U. after   15 cycles
 SCF Done:  E(RHF) =  -984.565807573     A.U. after   15 cycles
 SCF Done:  E(RHF) =  -984.565858681     A.U. after   12 cycles
 SCF Done:  E(RHF) =  -984.565926306     A.U. after   10 cycles
 SCF Done:  E(RHF) =  -984.565928862     A.U. after    9 cycles
 SCF Done:  E(RHF) =  -984.565933526     A.U. after   10 cycles
 SCF Done:  E(RHF) =  -984.565939765     A.U. after   10 cycles
 SCF Done:  E(RHF) =  -984.565942371     A.U. after   10 cycles
 SCF Done:  E(RHF) =  -984.565944896     A.U. after   10 cycles
 SCF Done:  E(RHF) =  -984.565946408     A.U. after   10 cycles
 SCF Done:  E(RHF) =  -984.565946630     A.U. after    8 cycles
 SCF Done:  E(RHF) =  -984.565946717     A.U. after    8 cycles
 SCF Done:  E(RHF) =  -984.565946737     A.U. after    7 cycles
 Optimization completed.
    -- Stationary point found.

                         Standard orientation:
 ---------------------------------------------------------------------
 Center     Atomic      Atomic             Coordinates (Angstroms)
 Number     Number       Type             X           Y           Z
 ---------------------------------------------------------------------
      1          1           0       -6.146605   -2.830913   -0.269620
      2          6           0       -5.477236   -2.254848   -0.894427
      3          1           0       -6.066222   -1.805638   -1.686764
      4          1           0       -4.739227   -2.911754   -1.338349
      5          6           0       -4.867773   -1.148299   -0.061595
      6          8           0       -5.529481   -0.491923    0.699848
      7          7           0       -3.548899   -0.933017   -0.245581
      8          1           0       -3.023029   -1.470307   -0.897721
      9          6           0       -2.844605    0.128338    0.429890
     10          1           0       -3.491775    0.995227    0.471221
     11          6           0       -2.442079   -0.262729    1.859057
     12          1           0       -1.782112   -1.123250    1.842362
     13          1           0       -1.934981    0.551331    2.367322
     14          1           0       -3.332524   -0.513518    2.419702
     15          6           0       -1.604801    0.454132   -0.395898
     16          8           0       -1.128014   -0.346952   -1.160453
     17          7           0       -1.074286    1.675477   -0.193129
     18          1           0       -1.472780    2.270861    0.498101
     19          6           0        0.152549    2.116971   -0.840454
     20          1           0        0.218199    1.580958   -1.775187
     21          6           0        0.105641    3.616264   -1.099540
     22          1           0        0.039249    4.167252   -0.169795
     23          1           0        1.006973    3.938568   -1.607580
     24          1           0       -0.747939    3.857206   -1.722835
     25          6           0        1.341825    1.745765    0.051793
     26          8           0        1.741347    2.492738    0.908690
     27          7           0        1.872693    0.534088   -0.180855
     28          1           0        1.446011   -0.088101   -0.835008
     29          6           0        2.943965    0.001634    0.627945
     30          1           0        3.613330    0.817830    0.865281
     31          6           0        2.434028   -0.623278    1.933382
     32          1           0        1.756852   -1.442264    1.717324
     33          1           0        3.254933   -1.004103    2.532292
     34          1           0        1.908474    0.127371    2.509759
     35          6           0        3.671694   -1.050453   -0.202640
     36          8           0        3.098175   -1.690827   -1.043118
     37          7           0        4.966741   -1.245123    0.110575
     38          1           0        5.413655   -0.607881    0.727822
     39          6           0        5.777818   -2.223383   -0.584208
     40          1           0        5.250910   -3.164825   -0.638152
     41          1           0        6.014241   -1.904186   -1.592998
     42          1           0        6.698257   -2.364806   -0.033810
 ---------------------------------------------------------------------

 The electronic state is 1-A.
 Alpha  occ. eigenvalues --  -20.54457 -20.53264 -20.52702 -20.51638 -15.60486
 Alpha  occ. eigenvalues --  -15.59588 -15.58366 -15.58115 -11.36456 -11.35279
 Alpha  occ. eigenvalues --  -11.34769 -11.34505 -11.28584 -11.28506 -11.28283
 Alpha  occ. eigenvalues --  -11.26478 -11.22891 -11.22772 -11.22697 -11.22659
 Alpha  occ. eigenvalues --   -1.41446  -1.40361  -1.39325  -1.38552  -1.25808
 Alpha  occ. eigenvalues --   -1.24341  -1.23941  -1.23705  -1.07598  -1.05140
 Alpha  occ. eigenvalues --   -1.03062  -0.98844  -0.96526  -0.91990  -0.90023
 Alpha  occ. eigenvalues --   -0.86508  -0.81882  -0.80284  -0.78938  -0.78830
 Alpha  occ. eigenvalues --   -0.75489  -0.71762  -0.69031  -0.68280  -0.67021
 Alpha  occ. eigenvalues --   -0.65705  -0.65106  -0.64288  -0.63712  -0.63155
 Alpha  occ. eigenvalues --   -0.61816  -0.60767  -0.60441  -0.59596  -0.59178
 Alpha  occ. eigenvalues --   -0.58395  -0.56887  -0.56355  -0.56164  -0.55628
 Alpha  occ. eigenvalues --   -0.54939  -0.54360  -0.53684  -0.53441  -0.52942
 Alpha  occ. eigenvalues --   -0.52683  -0.52113  -0.50705  -0.49737  -0.44678
 Alpha  occ. eigenvalues --   -0.43571  -0.42787  -0.41446  -0.40187  -0.39619
 Alpha  occ. eigenvalues --   -0.38602  -0.38342
 Alpha virt. eigenvalues --    0.17676   0.18830   0.19816   0.21121   0.21519
 Alpha virt. eigenvalues --    0.21985   0.23808   0.25147   0.25543   0.26105
 Alpha virt. eigenvalues --    0.28039   0.28716   0.29268   0.30031   0.30474

 Mulliken atomic charges:
              1
     1  H    0.207865
     2  C   -0.575554
     3  H    0.203816
     4  H    0.174181
     5  C    0.755916
     6  O   -0.622003
     7  N   -0.823668
     8  H    0.420268
     9  C   -0.031442
    10  H    0.220338
    11  C   -0.489813
    12  H    0.178366
    13  H    0.160868
    14  H    0.215128
    15  C    0.791818
    16  O   -0.640284
    17  N   -0.814492
    18  H    0.398797
    19  C   -0.063509
    20  H    0.233748
    21  C   -0.489330
    22  H    0.191823
    23  H    0.183945
    24  H    0.177670
    25  C    0.797040
    26  O   -0.637201
    27  N   -0.830696
    28  H    0.442611
    29  C   -0.038810
    30  H    0.212594
    31  C   -0.488550
    32  H    0.183832
    33  H    0.163714
    34  H    0.201495
    35  C    0.777610
    36  O   -0.621456
    37  N   -0.800104
    38  H    0.388230
    39  C   -0.273401
    40  H    0.204885
    41  H    0.182855
    42  H    0.170898
 Sum of Mulliken atomic charges =   0.00000

 Dipole moment (field-independent basis, Debye):
    X=              3.8627    Y=             -0.2122    Z=              0.0920  Tot=              3.8696
 Quadrupole moment (field-independent basis, Debye-Ang):
   XX=           -112.9438   YY=           -119.1923   ZZ=           -122.3228
   XY=             -2.1912   XZ=             12.8258   YZ=             -7.0605

 Normal termination of Gaussian 09 at Tue Dec 27 04:48:32 2016.
