 Gaussian 09, Revision A.02,
 Gaussian 09:  EM64L-G09RevA.02 11-Jun-2009

 -------------------------------------------------------------------
 # HF/6-31G* Opt=(ModRedundant, maxcycles=1000, calcfc) geom=nocrowd
 -------------------------------------------------------------------

 ------------------
 Phi Psi fixed scan
 ------------------
 Symbolic Z-matrix:
 Charge =  0 Multiplicity = 1

 SCF Done:  E(RHF) =  -984.529345147     A.U. after   15 cycles

  Exact polarizability:   0.000   0.000   0.000   0.000   0.000   0.000
 Approx polarizability: 127.891  -3.466 122.471  -2.407  10.988 138.466

 SCF Done:  E(RHF) =  -984.539421447     A.U. after   13 cycles
 SCF Done:  E(RHF) =  -984.550466537     A.U. after   13 cycles
 SCF Done:  E(RHF) =  -984.553321937     A.U. after   13 cycles
 SCF Done:  E(RHF) =  -984.555977305     A.U. after   13 cycles
 SCF Done:  E(RHF) =  -984.556894545     A.U. after   15 cycles
 SCF Done:  E(RHF) =  -984.450593003     A.U. after   16 cycles
 SCF Done:  E(RHF) =  -984.557222357     A.U. after   15 cycles
 SCF Done:  E(RHF) =  -984.541221641     A.U. after   14 cycles
 SCF Done:  E(RHF) =  -984.557377558     A.U. after   15 cycles
 SCF Done:  E(RHF) =  -984.557555181     A.U. after    9 cycles
 SCF Done:  E(RHF) =  -984.557555648     A.U. after    9 cycles
 SCF Done:  E(RHF) =  -984.557556826     A.U. after   10 cycles
 SCF Done:  E(RHF) =  -984.557558832     A.U. after   10 cycles
 SCF Done:  E(RHF) =  -984.557560176     A.U. after   10 cycles
 SCF Done:  E(RHF) =  -984.557560992     A.U. after    9 cycles
 SCF Done:  E(RHF) =  -984.557561269     A.U. after    9 cycles
 SCF Done:  E(RHF) =  -984.557561371     A.U. after    7 cycles
 SCF Done:  E(RHF) =  -984.557561404     A.U. after    7 cycles
 SCF Done:  E(RHF) =  -984.557561416     A.U. after    6 cycles
 Optimization completed.
    -- Stationary point found.

                         Standard orientation:
 ---------------------------------------------------------------------
 Center     Atomic      Atomic             Coordinates (Angstroms)
 Number     Number       Type             X           Y           Z
 ---------------------------------------------------------------------
      1          1           0        7.239217    0.754307    0.364335
      2          6           0        6.516799    0.697174   -0.439131
      3          1           0        6.549381   -0.288449   -0.887066
      4          1           0        6.794961    1.430895   -1.187828
      5          6           0        5.153944    1.061358    0.108645
      6          8           0        4.998590    2.008930    0.835025
      7          7           0        4.133065    0.273705   -0.284032
      8          1           0        4.284849   -0.521016   -0.863589
      9          6           0        2.778538    0.494529    0.156906
     10          1           0        2.802605    0.781778    1.200828
     11          6           0        2.080641    1.598963   -0.649783
     12          1           0        2.023632    1.322394   -1.696673
     13          1           0        1.073488    1.780506   -0.287388
     14          1           0        2.646542    2.516125   -0.555662
     15          6           0        2.025603   -0.823810    0.003947
     16          8           0        2.407428   -1.682170   -0.741701
     17          7           0        0.915771   -0.939566    0.775946
     18          1           0        0.650007   -0.148388    1.319972
     19          6           0       -0.093053   -1.966066    0.565263
     20          1           0        0.395566   -2.764677    0.031171
     21          6           0       -0.615532   -2.483299    1.902764
     22          1           0       -1.001310   -1.687193    2.533230
     23          1           0       -1.406979   -3.209867    1.755120
     24          1           0        0.192985   -2.961101    2.442169
     25          6           0       -1.157950   -1.433095   -0.404082
     26          8           0       -1.020735   -1.545852   -1.592346
     27          7           0       -2.209519   -0.792916    0.146170
     28          1           0       -2.329277   -0.723938    1.131259
     29          6           0       -3.242094   -0.179517   -0.654521
     30          1           0       -2.772398    0.296026   -1.506427
     31          6           0       -4.270176   -1.201687   -1.157895
     32          1           0       -4.765047   -1.681819   -0.320626
     33          1           0       -5.024835   -0.729104   -1.777941
     34          1           0       -3.764425   -1.954715   -1.747343
     35          6           0       -3.920440    0.874115    0.217113
     36          8           0       -3.869309    0.820279    1.419557
     37          7           0       -4.602167    1.826238   -0.441355
     38          1           0       -4.535972    1.870563   -1.431619
     39          6           0       -5.312636    2.877619    0.258348
     40          1           0       -5.950023    2.451656    1.019896
     41          1           0       -4.628699    3.572316    0.731532
     42          1           0       -5.923968    3.414276   -0.454167
 ---------------------------------------------------------------------

 The electronic state is 1-A.
 Alpha  occ. eigenvalues --  -20.54308 -20.53708 -20.52729 -20.51297 -15.60389
 Alpha  occ. eigenvalues --  -15.59983 -15.58974 -15.57731 -11.36236 -11.35744
 Alpha  occ. eigenvalues --  -11.34996 -11.34181 -11.28985 -11.28493 -11.28018
 Alpha  occ. eigenvalues --  -11.27144 -11.23831 -11.23107 -11.22634 -11.22315
 Alpha  occ. eigenvalues --   -1.41298  -1.40799  -1.39528  -1.38190  -1.25521
 Alpha  occ. eigenvalues --   -1.25159  -1.24256  -1.23359  -1.07758  -1.05261
 Alpha  occ. eigenvalues --   -1.02939  -0.98556  -0.97144  -0.92024  -0.90106
 Alpha  occ. eigenvalues --   -0.87410  -0.81526  -0.81088  -0.79572  -0.78410
 Alpha  occ. eigenvalues --   -0.75804  -0.71651  -0.68690  -0.68068  -0.67143
 Alpha  occ. eigenvalues --   -0.65414  -0.65192  -0.64561  -0.64045  -0.63072
 Alpha  occ. eigenvalues --   -0.61832  -0.61261  -0.60620  -0.59545  -0.58984
 Alpha  occ. eigenvalues --   -0.58071  -0.56954  -0.56900  -0.56475  -0.56171
 Alpha  occ. eigenvalues --   -0.55840  -0.54531  -0.53985  -0.53799  -0.53011
 Alpha  occ. eigenvalues --   -0.52511  -0.52296  -0.50830  -0.49396  -0.44692
 Alpha  occ. eigenvalues --   -0.43637  -0.42812  -0.41116  -0.41057  -0.39230
 Alpha  occ. eigenvalues --   -0.38904  -0.38054
 Alpha virt. eigenvalues --    0.17499   0.18679   0.19505   0.20435   0.21143
 Alpha virt. eigenvalues --    0.22088   0.24026   0.24310   0.25498   0.27353
 Alpha virt. eigenvalues --    0.27628   0.28657   0.28880   0.29224   0.29882

 Mulliken atomic charges:
              1
     1  H    0.206903
     2  C   -0.575189
     3  H    0.173944
     4  H    0.202520
     5  C    0.756608
     6  O   -0.624376
     7  N   -0.823197
     8  H    0.420296
     9  C   -0.038267
    10  H    0.217667
    11  C   -0.488313
    12  H    0.185763
    13  H    0.152454
    14  H    0.212299
    15  C    0.795686
    16  O   -0.611719
    17  N   -0.816330
    18  H    0.387432
    19  C   -0.060600
    20  H    0.261642
    21  C   -0.500264
    22  H    0.159546
    23  H    0.185945
    24  H    0.197933
    25  C    0.779229
    26  O   -0.613003
    27  N   -0.845450
    28  H    0.426479
    29  C   -0.032537
    30  H    0.214995
    31  C   -0.486015
    32  H    0.178003
    33  H    0.160707
    34  H    0.213709
    35  C    0.776900
    36  O   -0.633701
    37  N   -0.799286
    38  H    0.391723
    39  C   -0.272897
    40  H    0.202785
    41  H    0.186081
    42  H    0.173894
 Sum of Mulliken atomic charges =   0.00000

 Dipole moment (field-independent basis, Debye):
    X=             -4.4273    Y=              0.9441    Z=             -0.4682  Tot=              4.5510
 Quadrupole moment (field-independent basis, Debye-Ang):
   XX=           -106.5115   YY=           -122.8179   ZZ=           -125.9911
   XY=            -16.0507   XZ=              3.0432   YZ=            -16.1606

 Normal termination of Gaussian 09 at Tue Dec 27 06:20:51 2016.
