 Gaussian 09, Revision A.02,
 Gaussian 09:  EM64L-G09RevA.02 11-Jun-2009

 -------------------
 #SP MP2/aug-cc-pVDZ
 -------------------

 -------------------------------
 Single Point calculation at MP2
 -------------------------------
 Symbolic Z-matrix:
 Charge =  0 Multiplicity = 1

                         Standard orientation:
 ---------------------------------------------------------------------
 Center     Atomic      Atomic             Coordinates (Angstroms)
 Number     Number       Type             X           Y           Z
 ---------------------------------------------------------------------
      1          1           0        3.830103   -1.301079   -0.023288
      2          6           0        3.108599   -0.730884   -0.610888
      3          1           0        2.697704   -1.384788   -1.389388
      4          1           0        3.612093    0.111219   -1.098188
      5          6           0        1.973996   -0.283393    0.292512
      6          8           0        1.698500   -0.839295    1.343512
      7          7           0        1.287887    0.845602   -0.140988
      8          1           0        1.403586    1.036603   -1.131288
      9          6           0       -0.081014    1.020392    0.317212
     10          1           0       -0.051914    1.012192    1.412512
     11          6           0       -0.622524    2.368788   -0.177588
     12          1           0       -0.685124    2.388187   -1.272588
     13          1           0       -1.624826    2.570880    0.210812
     14          1           0        0.040970    3.176893    0.145112
     15          6           0       -0.962905   -0.175215   -0.139288
     16          8           0       -0.533999   -1.055512   -0.872788
     17          7           0       -2.272706   -0.099825    0.246312
     18          1           0       -2.513711    0.560174    0.973212
     19          6           0       -3.213298   -1.177532   -0.020088
     20          1           0       -2.865094   -1.711629   -0.904688
     21          1           0       -3.274292   -1.888432    0.814312
     22          1           0       -4.208901   -0.765139   -0.210788
 ---------------------------------------------------------------------

 SCF Done:  E(RHF) =  -492.922781575     A.U. after   15 cycles
 E2 =    -0.1601065600D+01 EUMP2 =    -0.49452384717498D+03

 The electronic state is 1-A.
 Alpha  occ. eigenvalues --  -20.53396 -20.52730 -15.59722 -15.58690 -11.35991
 Alpha  occ. eigenvalues --  -11.35460 -11.29308 -11.26910 -11.25014 -11.23715
 Alpha  occ. eigenvalues --   -1.39159  -1.37632  -1.23535  -1.23131  -1.05401
 Alpha  occ. eigenvalues --   -0.98752  -0.95686  -0.87810  -0.79312  -0.78004
 Alpha  occ. eigenvalues --   -0.72308  -0.67050  -0.66551  -0.63156  -0.62726
 Alpha  occ. eigenvalues --   -0.61565  -0.59310  -0.57909  -0.57021  -0.56158
 Alpha  occ. eigenvalues --   -0.54915  -0.54215  -0.53299  -0.50912  -0.49644
 Alpha  occ. eigenvalues --   -0.43763  -0.42035  -0.39714  -0.39247
 Alpha virt. eigenvalues --    0.02787   0.03748   0.04254   0.04743   0.05677
 Alpha virt. eigenvalues --    0.06048   0.06163   0.06991   0.07250   0.08016
 Alpha virt. eigenvalues --    0.08985   0.09562   0.10583   0.11921   0.12381

 Mulliken atomic charges:
              1
     1  H   -0.037250
     2  C    0.295280
     3  H    0.082500
     4  H   -0.030309
     5  C    0.701485
     6  O   -0.868310
     7  N   -0.527672
     8  H    0.008628
     9  C    0.024227
    10  H   -0.127496
    11  C    0.779881
    12  H   -0.045304
    13  H   -0.113124
    14  H   -0.030447
    15  C    0.996385
    16  O   -0.834790
    17  N   -0.516482
    18  H   -0.101991
    19  C    0.705241
    20  H   -0.126600
    21  H   -0.066810
    22  H   -0.167040
 Sum of Mulliken atomic charges =   0.00000

 Dipole moment (field-independent basis, Debye):
    X=             -2.2546    Y=              3.5434    Z=             -1.1637  Tot=              4.3581
 Quadrupole moment (field-independent basis, Debye-Ang):
   XX=            -50.0103   YY=            -62.2324   ZZ=            -64.2059
   XY=              0.5879   XZ=             -9.7145   YZ=              1.0682

 Normal termination of Gaussian 09 at Mon Feb 13 21:45:51 2017.
