 Gaussian 09, Revision A.02,
 Gaussian 09:  EM64L-G09RevA.02 11-Jun-2009

 -------------------
 #SP MP2/aug-cc-pVDZ
 -------------------

 -------------------------------
 Single Point calculation at MP2
 -------------------------------
 Symbolic Z-matrix:
 Charge =  0 Multiplicity = 1

                         Standard orientation:
 ---------------------------------------------------------------------
 Center     Atomic      Atomic             Coordinates (Angstroms)
 Number     Number       Type             X           Y           Z
 ---------------------------------------------------------------------
      1          1           0       -3.915601   -0.884443    0.060895
      2          6           0       -3.121605   -0.523335    0.719895
      3          1           0       -2.971098   -1.280933    1.496795
      4          1           0       -3.443914    0.408662    1.193895
      5          6           0       -1.843006   -0.390622   -0.091905
      6          8           0       -1.479197   -1.291719   -0.851505
      7          7           0       -1.176318    0.787984    0.050195
      8          1           0       -1.496724    1.395781    0.793395
      9          6           0        0.163879    1.116098   -0.473905
     10          1           0        0.109780    0.962497   -1.560505
     11          6           0        0.455964    2.584901   -0.185705
     12          1           0        0.535162    2.762101    0.892195
     13          1           0        1.413261    2.869410   -0.625505
     14          1           0       -0.332842    3.218993   -0.603905
     15          6           0        1.325888    0.212609    0.039695
     16          8           0        2.289283    0.703019    0.624395
     17          7           0        1.221201   -1.106592   -0.235505
     18          1           0        0.361704   -1.442500   -0.666705
     19          6           0        2.250510   -2.036981    0.195295
     20          1           0        3.225707   -1.751972   -0.212905
     21          1           0        2.340410   -2.057981    1.287895
     22          1           0        1.989520   -3.035784   -0.161705
 ---------------------------------------------------------------------

 SCF Done:  E(RHF) =  -492.924675697     A.U. after   14 cycles
 E2 =    -0.1603941201D+01 EUMP2 =    -0.49452861689764D+03

 The electronic state is 1-A.
 Alpha  occ. eigenvalues --  -20.54759 -20.52322 -15.61618 -15.57434 -11.38208
 Alpha  occ. eigenvalues --  -11.34980 -11.29958 -11.26006 -11.25791 -11.23731
 Alpha  occ. eigenvalues --   -1.40126  -1.37480  -1.25430  -1.21753  -1.06220
 Alpha  occ. eigenvalues --   -1.00131  -0.95376  -0.87273  -0.81618  -0.77384
 Alpha  occ. eigenvalues --   -0.72338  -0.69495  -0.67420  -0.63714  -0.62100
 Alpha  occ. eigenvalues --   -0.60963  -0.60095  -0.59436  -0.57984  -0.54858
 Alpha  occ. eigenvalues --   -0.54381  -0.53408  -0.52742  -0.52142  -0.50480
 Alpha  occ. eigenvalues --   -0.45120  -0.43728  -0.39476  -0.37753
 Alpha virt. eigenvalues --    0.02580   0.04051   0.04337   0.04578   0.05756
 Alpha virt. eigenvalues --    0.06234   0.06443   0.06789   0.06905   0.08014
 Alpha virt. eigenvalues --    0.09218   0.09830   0.11518   0.11870   0.12849

 Mulliken atomic charges:
              1
     1  H    0.037691
     2  C    0.373356
     3  H    0.050780
     4  H   -0.152432
     5  C    0.577283
     6  O   -0.934948
     7  N   -0.480263
     8  H   -0.019355
     9  C    0.121802
    10  H   -0.142710
    11  C    0.751613
    12  H   -0.022771
    13  H   -0.089799
    14  H   -0.030688
    15  C    0.775834
    16  O   -0.812418
    17  N   -0.376039
    18  H   -0.045792
    19  C    0.766116
    20  H   -0.091574
    21  H   -0.049240
    22  H   -0.206446
 Sum of Mulliken atomic charges =   0.00000

 Dipole moment (field-independent basis, Debye):
    X=             -3.6807    Y=              0.8773    Z=              0.8298  Tot=              3.8738
 Quadrupole moment (field-independent basis, Debye-Ang):
   XX=            -63.2495   YY=            -58.9050   ZZ=            -62.1138
   XY=             -8.0053   XZ=             -8.7050   YZ=             -3.3975

 Normal termination of Gaussian 09 at Mon Feb 13 17:40:10 2017.
