 Gaussian 09, Revision A.02,
 Gaussian 09:  EM64L-G09RevA.02 11-Jun-2009

 -------------------
 #SP MP2/aug-cc-pVDZ
 -------------------

 -------------------------------
 Single Point calculation at MP2
 -------------------------------
 Symbolic Z-matrix:
 Charge =  0 Multiplicity = 1

                         Standard orientation:
 ---------------------------------------------------------------------
 Center     Atomic      Atomic             Coordinates (Angstroms)
 Number     Number       Type             X           Y           Z
 ---------------------------------------------------------------------
      1          1           0       -3.836007   -1.077514    0.130079
      2          6           0       -3.067709   -0.609611    0.750579
      3          1           0       -2.851606   -1.294110    1.578579
      4          1           0       -3.456413    0.326887    1.161779
      5          6           0       -1.810510   -0.433205   -0.085521
      6          8           0       -1.409906   -1.329204   -0.830521
      7          7           0       -1.200515    0.782597    0.016779
      8          1           0       -1.523218    1.386596    0.762479
      9          6           0        0.136984    1.111503   -0.510721
     10          1           0        0.099485    0.902403   -1.587121
     11          6           0        0.411477    2.593604   -0.283721
     12          1           0        0.513376    2.807205    0.784779
     13          1           0        1.353576    2.878408   -0.757721
     14          1           0       -0.394626    3.200901   -0.708521
     15          6           0        1.279887    0.241208    0.090579
     16          8           0        2.079085    0.714812    0.894179
     17          7           0        1.341693   -1.030192   -0.378721
     18          1           0        0.510494   -1.379195   -0.852821
     19          6           0        2.308097   -1.977787    0.149579
     20          1           0        3.237295   -1.448383    0.367879
     21          1           0        1.959699   -2.454089    1.076279
     22          1           0        2.496901   -2.755087   -0.596021
 ---------------------------------------------------------------------

 SCF Done:  E(RHF) =  -492.925344201     A.U. after   14 cycles
 E2 =    -0.1603773665D+01 EUMP2 =    -0.49452911786656D+03

 The electronic state is 1-A.
 Alpha  occ. eigenvalues --  -20.54730 -20.52526 -15.61445 -15.57610 -11.38063
 Alpha  occ. eigenvalues --  -11.35107 -11.29786 -11.25903 -11.25712 -11.23728
 Alpha  occ. eigenvalues --   -1.40074  -1.37588  -1.25283  -1.21896  -1.06141
 Alpha  occ. eigenvalues --   -1.00084  -0.95392  -0.87150  -0.81427  -0.77173
 Alpha  occ. eigenvalues --   -0.72241  -0.69430  -0.67340  -0.63842  -0.62095
 Alpha  occ. eigenvalues --   -0.61182  -0.60008  -0.59327  -0.57888  -0.54708
 Alpha  occ. eigenvalues --   -0.54364  -0.53490  -0.52602  -0.51836  -0.50992
 Alpha  occ. eigenvalues --   -0.45070  -0.43774  -0.39696  -0.37740
 Alpha virt. eigenvalues --    0.02685   0.04078   0.04260   0.04701   0.05688
 Alpha virt. eigenvalues --    0.06147   0.06445   0.06847   0.07199   0.08187
 Alpha virt. eigenvalues --    0.09193   0.09990   0.11372   0.11688   0.12730

 Mulliken atomic charges:
              1
     1  H    0.028773
     2  C    0.377977
     3  H    0.051378
     4  H   -0.137902
     5  C    0.603850
     6  O   -0.916123
     7  N   -0.524592
     8  H   -0.017788
     9  C    0.061726
    10  H   -0.205227
    11  C    0.743736
    12  H    0.004112
    13  H   -0.091113
    14  H   -0.029032
    15  C    0.981895
    16  O   -0.832783
    17  N   -0.491045
    18  H   -0.015541
    19  C    0.763833
    20  H   -0.124152
    21  H   -0.073068
    22  H   -0.158913
 Sum of Mulliken atomic charges =   0.00000

 Dipole moment (field-independent basis, Debye):
    X=             -3.3050    Y=              0.8624    Z=              0.3437  Tot=              3.4329
 Quadrupole moment (field-independent basis, Debye-Ang):
   XX=            -60.9829   YY=            -59.3818   ZZ=            -63.1306
   XY=             -7.3986   XZ=             -9.3395   YZ=             -3.8332

 Normal termination of Gaussian 09 at Mon Feb 13 17:52:27 2017.
