 Gaussian 09, Revision A.02,
 Gaussian 09:  EM64L-G09RevA.02 11-Jun-2009

 -------------------
 #SP MP2/aug-cc-pVDZ
 -------------------

 -------------------------------
 Single Point calculation at MP2
 -------------------------------
 Symbolic Z-matrix:
 Charge =  0 Multiplicity = 1

                         Standard orientation:
 ---------------------------------------------------------------------
 Center     Atomic      Atomic             Coordinates (Angstroms)
 Number     Number       Type             X           Y           Z
 ---------------------------------------------------------------------
      1          1           0        3.802485   -1.261353   -0.376400
      2          6           0        2.956591   -0.781143   -0.870800
      3          1           0        2.399981   -1.541437   -1.431700
      4          1           0        3.322100   -0.028748   -1.579000
      5          6           0        2.035998   -0.187832    0.180600
      6          8           0        2.043394   -0.536532    1.347000
      7          7           0        1.225710    0.859078   -0.274700
      8          1           0        1.197211    0.915278   -1.289400
      9          6           0       -0.101188    1.019994    0.313900
     10          1           0        0.061513    1.069192    1.397900
     11          6           0       -0.716672    2.341401   -0.159400
     12          1           0       -0.981472    2.309704   -1.223200
     13          1           0       -1.617369    2.604412    0.406800
     14          1           0        0.005838    3.148392   -0.008600
     15          6           0       -0.962903   -0.256596    0.079300
     16          8           0       -0.451616   -1.355502   -0.087400
     17          7           0       -2.312401   -0.056180   -0.021000
     18          1           0       -2.688290    0.850225    0.212900
     19          6           0       -3.245114   -1.166069   -0.140300
     20          1           0       -2.704824   -2.010175   -0.569900
     21          1           0       -3.651418   -1.470664    0.833100
     22          1           0       -4.073411   -0.887359   -0.799200
 ---------------------------------------------------------------------

 SCF Done:  E(RHF) =  -492.914469315     A.U. after   14 cycles
 E2 =    -0.1602827548D+01 EUMP2 =    -0.49451729686313D+03

 The electronic state is 1-A.
 Alpha  occ. eigenvalues --  -20.53255 -20.52289 -15.60024 -15.58712 -11.36229
 Alpha  occ. eigenvalues --  -11.35237 -11.29542 -11.27115 -11.25347 -11.23577
 Alpha  occ. eigenvalues --   -1.39147  -1.37306  -1.23685  -1.22961  -1.05414
 Alpha  occ. eigenvalues --   -0.98659  -0.95778  -0.88356  -0.79310  -0.78002
 Alpha  occ. eigenvalues --   -0.72345  -0.66812  -0.65972  -0.64034  -0.62486
 Alpha  occ. eigenvalues --   -0.61456  -0.59155  -0.58087  -0.56963  -0.56222
 Alpha  occ. eigenvalues --   -0.55102  -0.54655  -0.53265  -0.50567  -0.49547
 Alpha  occ. eigenvalues --   -0.44439  -0.41605  -0.39740  -0.38627
 Alpha virt. eigenvalues --    0.02517   0.03681   0.04046   0.04693   0.05649
 Alpha virt. eigenvalues --    0.05983   0.06065   0.06964   0.07114   0.08336
 Alpha virt. eigenvalues --    0.08927   0.09454   0.11257   0.11942   0.12098

 Mulliken atomic charges:
              1
     1  H   -0.050329
     2  C    0.300160
     3  H    0.082520
     4  H   -0.036518
     5  C    0.770418
     6  O   -0.863659
     7  N   -0.592906
     8  H    0.001305
     9  C    0.122237
    10  H   -0.094245
    11  C    0.724889
    12  H   -0.039049
    13  H   -0.004552
    14  H   -0.073857
    15  C    0.819087
    16  O   -0.808326
    17  N   -0.501962
    18  H   -0.136771
    19  C    0.741747
    20  H   -0.136246
    21  H   -0.065867
    22  H   -0.158077
 Sum of Mulliken atomic charges =   0.00000

 Dipole moment (field-independent basis, Debye):
    X=             -3.4680    Y=              3.5582    Z=             -3.0801  Tot=              5.8459
 Quadrupole moment (field-independent basis, Debye-Ang):
   XX=            -52.4708   YY=            -62.4309   ZZ=            -63.1942
   XY=             -1.0859   XZ=             -8.9897   YZ=              2.2136

 Normal termination of Gaussian 09 at Mon Feb 13 16:49:12 2017.
