 Gaussian 09, Revision A.02,
 Gaussian 09:  EM64L-G09RevA.02 11-Jun-2009

 -------------------
 #SP MP2/aug-cc-pVDZ
 -------------------

 -------------------------------
 Single Point calculation at MP2
 -------------------------------
 Symbolic Z-matrix:
 Charge =  0 Multiplicity = 1

                         Standard orientation:
 ---------------------------------------------------------------------
 Center     Atomic      Atomic             Coordinates (Angstroms)
 Number     Number       Type             X           Y           Z
 ---------------------------------------------------------------------
      1          1           0       -3.871308   -1.090754    0.673904
      2          6           0       -2.962703   -0.672764    1.110904
      3          1           0       -2.505212   -1.443869    1.742904
      4          1           0       -3.222894    0.181339    1.745704
      5          6           0       -2.005399   -0.304675   -0.017496
      6          8           0       -2.015205   -0.866174   -1.097696
      7          7           0       -1.154688    0.747016    0.279304
      8          1           0       -1.122385    1.015016    1.256304
      9          6           0        0.072215    1.027003   -0.477396
     10          1           0       -0.223385    1.070506   -1.529496
     11          6           0        0.632730    2.385597   -0.053296
     12          1           0        0.854130    2.431995    1.022604
     13          1           0        1.555532    2.612687   -0.595296
     14          1           0       -0.098062    3.171805   -0.266296
     15          6           0        1.081402   -0.153008   -0.445796
     16          8           0        1.075093   -1.022308   -1.302396
     17          7           0        1.986702   -0.130818    0.584704
     18          1           0        1.938010    0.610683    1.267104
     19          6           0        2.970391   -1.181428    0.780304
     20          1           0        2.925084   -1.832828   -0.093396
     21          1           0        3.978696   -0.760839    0.867304
     22          1           0        2.756785   -1.775626    1.678004
 ---------------------------------------------------------------------

 SCF Done:  E(RHF) =  -492.909748386     A.U. after   14 cycles
 E2 =    -0.1603092914D+01 EUMP2 =    -0.49451284129970D+03

 The electronic state is 1-A.
 Alpha  occ. eigenvalues --  -20.52961 -20.52648 -15.60040 -15.59588 -11.36025
 Alpha  occ. eigenvalues --  -11.35625 -11.29501 -11.26821 -11.25559 -11.24744
 Alpha  occ. eigenvalues --   -1.38674  -1.37789  -1.24263  -1.22705  -1.05978
 Alpha  occ. eigenvalues --   -0.99358  -0.95634  -0.88722  -0.80016  -0.78541
 Alpha  occ. eigenvalues --   -0.71918  -0.67505  -0.66483  -0.64109  -0.62013
 Alpha  occ. eigenvalues --   -0.61565  -0.59337  -0.58629  -0.57770  -0.56415
 Alpha  occ. eigenvalues --   -0.55079  -0.54641  -0.52903  -0.51406  -0.50502
 Alpha  occ. eigenvalues --   -0.44215  -0.42216  -0.39170  -0.38197
 Alpha virt. eigenvalues --    0.02117   0.03611   0.03779   0.04555   0.05373
 Alpha virt. eigenvalues --    0.05671   0.06495   0.06766   0.07283   0.07649
 Alpha virt. eigenvalues --    0.08848   0.09286   0.10663   0.11670   0.12509

 Mulliken atomic charges:
              1
     1  H   -0.023798
     2  C    0.334089
     3  H    0.054593
     4  H   -0.074819
     5  C    0.639927
     6  O   -0.795182
     7  N   -0.492249
     8  H   -0.031688
     9  C    0.304749
    10  H   -0.188519
    11  C    0.730889
    12  H   -0.082160
    13  H   -0.054399
    14  H   -0.069873
    15  C    0.889087
    16  O   -0.827122
    17  N   -0.575585
    18  H   -0.110991
    19  C    0.737098
    20  H   -0.148053
    21  H   -0.126053
    22  H   -0.089943
 Sum of Mulliken atomic charges =   0.00000

 Dipole moment (field-independent basis, Debye):
    X=              1.4328    Y=              3.9720    Z=              6.1906  Tot=              7.4936
 Quadrupole moment (field-independent basis, Debye-Ang):
   XX=            -56.5906   YY=            -61.1696   ZZ=            -63.6980
   XY=             -0.3032   XZ=             -2.7636   YZ=             -5.7016

 Normal termination of Gaussian 09 at Mon Feb 13 17:03:27 2017.
