 Gaussian 09, Revision A.02,
 Gaussian 09:  EM64L-G09RevA.02 11-Jun-2009

 -------------------
 #SP MP2/aug-cc-pVDZ
 -------------------

 -------------------------------
 Single Point calculation at MP2
 -------------------------------
 Symbolic Z-matrix:
 Charge =  0 Multiplicity = 1

                         Standard orientation:
 ---------------------------------------------------------------------
 Center     Atomic      Atomic             Coordinates (Angstroms)
 Number     Number       Type             X           Y           Z
 ---------------------------------------------------------------------
      1          1           0        3.353492   -1.641125   -0.566509
      2          6           0        3.216295   -0.570825   -0.392809
      3          1           0        3.371196   -0.028925   -1.331509
      4          1           0        3.984096   -0.254226    0.321691
      5          6           0        1.844395   -0.344021    0.228591
      6          8           0        1.407894   -1.052820    1.127191
      7          7           0        1.142798    0.722381   -0.269109
      8          1           0        1.548399    1.258180   -1.023609
      9          6           0       -0.145301    1.173184    0.258091
     10          1           0       -0.021900    1.388483    1.326091
     11          6           0       -0.569298    2.457985   -0.461909
     12          1           0       -0.696898    2.281385   -1.537109
     13          1           0       -1.523597    2.797187   -0.054809
     14          1           0        0.175704    3.249183   -0.320409
     15          6           0       -1.315303    0.162587    0.222891
     16          8           0       -2.340703    0.444889    0.832191
     17          7           0       -1.177506   -0.942314   -0.558309
     18          1           0       -0.240707   -1.193516   -0.835009
     19          6           0       -2.181609   -1.993711   -0.555009
     20          1           0       -3.139308   -1.542009   -0.294009
     21          1           0       -2.249810   -2.448411   -1.548209
     22          1           0       -1.950311   -2.774412    0.181191
 ---------------------------------------------------------------------

 SCF Done:  E(RHF) =  -492.922746410     A.U. after   14 cycles
 E2 =    -0.1602775853D+01 EUMP2 =    -0.49452552226299D+03

 The electronic state is 1-A.
 Alpha  occ. eigenvalues --  -20.54298 -20.52267 -15.61172 -15.58676 -11.37558
 Alpha  occ. eigenvalues --  -11.35394 -11.29611 -11.25991 -11.25990 -11.24521
 Alpha  occ. eigenvalues --   -1.39813  -1.37704  -1.25285  -1.22259  -1.06200
 Alpha  occ. eigenvalues --   -1.00169  -0.95386  -0.87945  -0.81447  -0.78069
 Alpha  occ. eigenvalues --   -0.71860  -0.69157  -0.67809  -0.62932  -0.62348
 Alpha  occ. eigenvalues --   -0.62012  -0.59576  -0.59208  -0.58199  -0.55585
 Alpha  occ. eigenvalues --   -0.54567  -0.54252  -0.53706  -0.52155  -0.49441
 Alpha  occ. eigenvalues --   -0.43852  -0.43668  -0.40043  -0.38203
 Alpha virt. eigenvalues --    0.02244   0.03755   0.04083   0.04601   0.05780
 Alpha virt. eigenvalues --    0.06017   0.06352   0.06747   0.06934   0.08224
 Alpha virt. eigenvalues --    0.08637   0.09552   0.11508   0.11735   0.11933

 Mulliken atomic charges:
              1
     1  H    0.025611
     2  C    0.379110
     3  H   -0.149502
     4  H    0.060281
     5  C    0.411092
     6  O   -0.825444
     7  N   -0.352559
     8  H   -0.056010
     9  C    0.150991
    10  H   -0.047888
    11  C    0.638349
    12  H   -0.023851
    13  H   -0.058759
    14  H   -0.070059
    15  C    1.072358
    16  O   -0.916630
    17  N   -0.532626
    18  H   -0.069011
    19  C    0.730380
    20  H   -0.136809
    21  H   -0.150186
    22  H   -0.078840
 Sum of Mulliken atomic charges =   0.00000

 Dipole moment (field-independent basis, Debye):
    X=              4.0365    Y=              1.1045    Z=             -4.5541  Tot=              6.1849
 Quadrupole moment (field-independent basis, Debye-Ang):
   XX=            -62.1060   YY=            -56.8285   ZZ=            -64.7235
   XY=              6.0568   XZ=             -0.2507   YZ=              2.6281

 Normal termination of Gaussian 09 at Mon Feb 13 17:53:48 2017.
