 Gaussian 09, Revision A.02,
 Gaussian 09:  EM64L-G09RevA.02 11-Jun-2009

 -------------------
 #SP MP2/aug-cc-pVDZ
 -------------------

 -------------------------------
 Single Point calculation at MP2
 -------------------------------
 Symbolic Z-matrix:
 Charge =  0 Multiplicity = 1

                         Standard orientation:
 ---------------------------------------------------------------------
 Center     Atomic      Atomic             Coordinates (Angstroms)
 Number     Number       Type             X           Y           Z
 ---------------------------------------------------------------------
      1          1           0        3.988787   -0.654726    0.180897
      2          6           0        3.217388   -0.454221   -0.568103
      3          1           0        3.195083   -1.310921   -1.249703
      4          1           0        3.492094    0.441777   -1.132803
      5          6           0        1.874589   -0.354413    0.138597
      6          8           0        1.495484   -1.241211    0.908097
      7          7           0        1.155895    0.769491   -0.120903
      8          1           0        1.513099    1.376189   -0.846603
      9          6           0       -0.181602    1.129398    0.381597
     10          1           0       -0.114803    1.109598    1.479797
     11          6           0       -0.494694    2.558100   -0.061403
     12          1           0       -0.522194    2.630000   -1.155703
     13          1           0       -1.478492    2.846506    0.308197
     14          1           0        0.259010    3.253596    0.322497
     15          6           0       -1.374408    0.185005    0.043897
     16          8           0       -2.502305    0.660312   -0.060903
     17          7           0       -1.106516   -1.133996   -0.113403
     18          1           0       -0.224018   -1.475801    0.264497
     19          6           0       -2.200021   -2.074290   -0.304903
     20          1           0       -2.863119   -1.709486   -1.092603
     21          1           0       -1.784527   -3.041292   -0.599803
     22          1           0       -2.799522   -2.204186    0.605797
 ---------------------------------------------------------------------

 SCF Done:  E(RHF) =  -492.923323218     A.U. after   14 cycles
 E2 =    -0.1603832988D+01 EUMP2 =    -0.49452715620516D+03

 The electronic state is 1-A.
 Alpha  occ. eigenvalues --  -20.54704 -20.52404 -15.61648 -15.57497 -11.38238
 Alpha  occ. eigenvalues --  -11.35238 -11.30143 -11.26081 -11.25652 -11.23895
 Alpha  occ. eigenvalues --   -1.40151  -1.37658  -1.25538  -1.21737  -1.06321
 Alpha  occ. eigenvalues --   -1.00189  -0.95184  -0.87537  -0.81780  -0.77414
 Alpha  occ. eigenvalues --   -0.72253  -0.69528  -0.67574  -0.63536  -0.62056
 Alpha  occ. eigenvalues --   -0.61680  -0.59675  -0.59125  -0.58186  -0.55061
 Alpha  occ. eigenvalues --   -0.54188  -0.53724  -0.53215  -0.52284  -0.49839
 Alpha  occ. eigenvalues --   -0.44812  -0.43838  -0.39736  -0.37992
 Alpha virt. eigenvalues --    0.02461   0.04007   0.04404   0.04518   0.05815
 Alpha virt. eigenvalues --    0.06181   0.06382   0.06648   0.07200   0.07897
 Alpha virt. eigenvalues --    0.09277   0.09927   0.11422   0.11591   0.12716

 Mulliken atomic charges:
              1
     1  H    0.050565
     2  C    0.367609
     3  H    0.051609
     4  H   -0.167001
     5  C    0.524016
     6  O   -0.929342
     7  N   -0.434379
     8  H   -0.015962
     9  C    0.165324
    10  H   -0.027729
    11  C    0.702324
    12  H   -0.046877
    13  H   -0.079723
    14  H   -0.040427
    15  C    0.748214
    16  O   -0.834074
    17  N   -0.368008
    18  H   -0.058907
    19  C    0.742734
    20  H   -0.113363
    21  H   -0.197552
    22  H   -0.039052
 Sum of Mulliken atomic charges =   0.00000

 Dipole moment (field-independent basis, Debye):
    X=              4.1163    Y=              1.0881    Z=             -1.8558  Tot=              4.6445
 Quadrupole moment (field-independent basis, Debye-Ang):
   XX=            -64.6247   YY=            -58.4507   ZZ=            -61.6581
   XY=              8.1499   XZ=             -5.3086   YZ=              2.4322

 Normal termination of Gaussian 09 at Mon Feb 13 17:37:55 2017.
