 Gaussian 09, Revision A.02,
 Gaussian 09:  EM64L-G09RevA.02 11-Jun-2009

 -------------------
 #SP MP2/aug-cc-pVDZ
 -------------------

 -------------------------------
 Single Point calculation at MP2
 -------------------------------
 Symbolic Z-matrix:
 Charge =  0 Multiplicity = 1

                         Standard orientation:
 ---------------------------------------------------------------------
 Center     Atomic      Atomic             Coordinates (Angstroms)
 Number     Number       Type             X           Y           Z
 ---------------------------------------------------------------------
      1          1           0       -3.751521   -1.286240    0.123904
      2          6           0       -3.026712   -0.742252    0.734604
      3          1           0       -2.768722   -1.380456    1.587304
      4          1           0       -3.487397    0.176255    1.110904
      5          6           0       -1.777708   -0.496872   -0.095496
      6          8           0       -1.304922   -1.371680   -0.820796
      7          7           0       -1.246788    0.759919   -0.012296
      8          1           0       -1.585678    1.351824    0.736004
      9          6           0        0.086718    1.101797   -0.533796
     10          1           0        0.074114    0.854698   -1.601296
     11          6           0        0.337842    2.593993   -0.346796
     12          1           0        0.439146    2.831192    0.716704
     13          1           0        1.272847    2.883178   -0.834396
     14          1           0       -0.478448    3.179006   -0.783096
     15          6           0        1.208904    0.270079    0.146004
     16          8           0        1.802211    0.689669    1.135204
     17          7           0        1.500985   -0.903926   -0.476996
     18          1           0        0.746579   -1.286913   -1.041096
     19          6           0        2.450070   -1.834941    0.113104
     20          1           0        3.286479   -1.268355    0.525604
     21          1           0        2.003561   -2.426134    0.924204
     22          1           0        2.816659   -2.514747   -0.660696
 ---------------------------------------------------------------------

 SCF Done:  E(RHF) =  -492.926333571     A.U. after   14 cycles
 E2 =    -0.1603272701D+01 EUMP2 =    -0.49452960627198D+03

 The electronic state is 1-A.
 Alpha  occ. eigenvalues --  -20.54552 -20.52820 -15.61106 -15.57911 -11.37757
 Alpha  occ. eigenvalues --  -11.35176 -11.29586 -11.25758 -11.25701 -11.23786
 Alpha  occ. eigenvalues --   -1.39903  -1.37794  -1.25011  -1.22085  -1.06014
 Alpha  occ. eigenvalues --   -0.99973  -0.95374  -0.87089  -0.81128  -0.77082
 Alpha  occ. eigenvalues --   -0.72103  -0.69230  -0.67260  -0.63895  -0.62005
 Alpha  occ. eigenvalues --   -0.61552  -0.59812  -0.59089  -0.57760  -0.54948
 Alpha  occ. eigenvalues --   -0.54109  -0.53581  -0.52642  -0.51436  -0.51202
 Alpha  occ. eigenvalues --   -0.44842  -0.43753  -0.39931  -0.37954
 Alpha virt. eigenvalues --    0.02821   0.04061   0.04236   0.04808   0.05696
 Alpha virt. eigenvalues --    0.06098   0.06464   0.06912   0.07302   0.08141
 Alpha virt. eigenvalues --    0.09176   0.09855   0.11355   0.11644   0.12790

 Mulliken atomic charges:
              1
     1  H    0.025608
     2  C    0.376715
     3  H    0.055515
     4  H   -0.126161
     5  C    0.613335
     6  O   -0.884963
     7  N   -0.549821
     8  H   -0.017112
     9  C    0.114881
    10  H   -0.279939
    11  C    0.700975
    12  H    0.014813
    13  H   -0.073588
    14  H   -0.022713
    15  C    1.060633
    16  O   -0.854350
    17  N   -0.567618
    18  H    0.015094
    19  C    0.763087
    20  H   -0.123322
    21  H   -0.073232
    22  H   -0.167837
 Sum of Mulliken atomic charges =   0.00000

 Dipole moment (field-independent basis, Debye):
    X=             -2.8413    Y=              0.8652    Z=             -0.1591  Tot=              2.9744
 Quadrupole moment (field-independent basis, Debye-Ang):
   XX=            -58.2862   YY=            -59.6177   ZZ=            -64.2449
   XY=             -6.5453   XZ=             -9.2639   YZ=             -4.0066

 Normal termination of Gaussian 09 at Mon Feb 13 17:16:01 2017.
