 Gaussian 09, Revision A.02,
 Gaussian 09:  EM64L-G09RevA.02 11-Jun-2009

 -------------------
 #SP MP2/aug-cc-pVDZ
 -------------------

 -------------------------------
 Single Point calculation at MP2
 -------------------------------
 Symbolic Z-matrix:
 Charge =  0 Multiplicity = 1

                         Standard orientation:
 ---------------------------------------------------------------------
 Center     Atomic      Atomic             Coordinates (Angstroms)
 Number     Number       Type             X           Y           Z
 ---------------------------------------------------------------------
      1          1           0        4.003396   -0.471596    0.336395
      2          6           0        3.258996   -0.458996   -0.466005
      3          1           0        3.338595   -1.411896   -0.997605
      4          1           0        3.496696    0.357004   -1.155205
      5          6           0        1.876396   -0.361095    0.160095
      6          8           0        1.458895   -1.233595    0.924595
      7          7           0        1.156597    0.744206   -0.168005
      8          1           0        1.550397    1.357105   -0.868405
      9          6           0       -0.166903    1.138507    0.339295
     10          1           0       -0.082603    1.204606    1.433895
     11          6           0       -0.499502    2.529307   -0.205805
     12          1           0       -0.542302    2.518007   -1.302005
     13          1           0       -1.478702    2.834107    0.162995
     14          1           0        0.252398    3.259806    0.111895
     15          6           0       -1.371304    0.182307    0.106395
     16          8           0       -2.506303    0.629908    0.242095
     17          7           0       -1.113205   -1.097093   -0.270505
     18          1           0       -0.210705   -1.469593    0.016595
     19          6           0       -2.219805   -2.037092   -0.387605
     20          1           0       -3.008105   -1.592992   -0.998705
     21          1           0       -1.857406   -2.948592   -0.869905
     22          1           0       -2.653405   -2.293892    0.587895
 ---------------------------------------------------------------------

 SCF Done:  E(RHF) =  -492.922620433     A.U. after   14 cycles
 E2 =    -0.1603498207D+01 EUMP2 =    -0.49452611863924D+03

 The electronic state is 1-A.
 Alpha  occ. eigenvalues --  -20.54629 -20.52504 -15.61557 -15.57664 -11.38144
 Alpha  occ. eigenvalues --  -11.35336 -11.30110 -11.26096 -11.25616 -11.24089
 Alpha  occ. eigenvalues --   -1.40115  -1.37787  -1.25499  -1.21785  -1.06341
 Alpha  occ. eigenvalues --   -1.00226  -0.95065  -0.87688  -0.81798  -0.77334
 Alpha  occ. eigenvalues --   -0.72039  -0.69556  -0.67675  -0.63417  -0.62101
 Alpha  occ. eigenvalues --   -0.62028  -0.59609  -0.58842  -0.58231  -0.55159
 Alpha  occ. eigenvalues --   -0.54277  -0.54032  -0.53288  -0.52228  -0.49581
 Alpha  occ. eigenvalues --   -0.44513  -0.43913  -0.40056  -0.38081
 Alpha virt. eigenvalues --    0.02404   0.03967   0.04328   0.04549   0.05871
 Alpha virt. eigenvalues --    0.06089   0.06426   0.06588   0.07286   0.07970
 Alpha virt. eigenvalues --    0.09193   0.10035   0.11318   0.11660   0.12620

 Mulliken atomic charges:
              1
     1  H    0.060661
     2  C    0.362435
     3  H    0.045827
     4  H   -0.166106
     5  C    0.477516
     6  O   -0.909322
     7  N   -0.420766
     8  H   -0.023693
     9  C    0.178541
    10  H    0.014247
    11  C    0.679722
    12  H   -0.026574
    13  H   -0.088577
    14  H   -0.055789
    15  C    0.772382
    16  O   -0.852534
    17  N   -0.402695
    18  H   -0.044204
    19  C    0.757023
    20  H   -0.123637
    21  H   -0.195237
    22  H   -0.039220
 Sum of Mulliken atomic charges =   0.00000

 Dipole moment (field-independent basis, Debye):
    X=              4.2638    Y=              1.2100    Z=             -2.4156  Tot=              5.0477
 Quadrupole moment (field-independent basis, Debye-Ang):
   XX=            -63.8504   YY=            -58.1338   ZZ=            -62.3223
   XY=              7.9056   XZ=             -3.0789   YZ=              2.1242

 Normal termination of Gaussian 09 at Mon Feb 13 16:35:09 2017.
