 Gaussian 09, Revision A.02,
 Gaussian 09:  EM64L-G09RevA.02 11-Jun-2009

 -------------------
 #SP MP2/aug-cc-pVDZ
 -------------------

 -------------------------------
 Single Point calculation at MP2
 -------------------------------
 Symbolic Z-matrix:
 Charge =  0 Multiplicity = 1

                         Standard orientation:
 ---------------------------------------------------------------------
 Center     Atomic      Atomic             Coordinates (Angstroms)
 Number     Number       Type             X           Y           Z
 ---------------------------------------------------------------------
      1          1           0        3.829605   -1.262509   -0.182412
      2          6           0        3.040006   -0.749208   -0.733612
      3          1           0        2.550505   -1.470507   -1.398612
      4          1           0        3.476006    0.046592   -1.348012
      5          6           0        2.007606   -0.224107    0.247288
      6          8           0        1.872206   -0.666907    1.374788
      7          7           0        1.257607    0.858894   -0.213912
      8          1           0        1.299307    0.967594   -1.223212
      9          6           0       -0.093993    1.021195    0.304588
     10          1           0       -0.001193    1.050595    1.396688
     11          6           0       -0.677392    2.349395   -0.195112
     12          1           0       -0.848592    2.329096   -1.278012
     13          1           0       -1.630291    2.592696    0.285588
     14          1           0        0.022009    3.160095    0.029288
     15          6           0       -0.959394   -0.227704   -0.035812
     16          8           0       -0.467795   -1.250405   -0.493312
     17          7           0       -2.309594   -0.063903    0.111188
     18          1           0       -2.642193    0.746497    0.613688
     19          6           0       -3.236895   -1.171402   -0.064912
     20          1           0       -2.784295   -1.878703   -0.760512
     21          1           0       -3.441995   -1.694202    0.878388
     22          1           0       -4.179894   -0.802701   -0.480212
 ---------------------------------------------------------------------

 SCF Done:  E(RHF) =  -492.918762108     A.U. after   14 cycles
 E2 =    -0.1601911707D+01 EUMP2 =    -0.49452067381513D+03

 The electronic state is 1-A.
 Alpha  occ. eigenvalues --  -20.53426 -20.52430 -15.59886 -15.58627 -11.36144
 Alpha  occ. eigenvalues --  -11.35286 -11.29437 -11.27031 -11.25214 -11.23554
 Alpha  occ. eigenvalues --   -1.39217  -1.37424  -1.23597  -1.23037  -1.05365
 Alpha  occ. eigenvalues --   -0.98640  -0.95719  -0.88097  -0.79275  -0.77991
 Alpha  occ. eigenvalues --   -0.72344  -0.66878  -0.66273  -0.63578  -0.62593
 Alpha  occ. eigenvalues --   -0.61561  -0.59185  -0.57949  -0.56940  -0.56161
 Alpha  occ. eigenvalues --   -0.55050  -0.54450  -0.53245  -0.50726  -0.49547
 Alpha  occ. eigenvalues --   -0.44130  -0.41772  -0.39808  -0.38934
 Alpha virt. eigenvalues --    0.02642   0.03725   0.04150   0.04741   0.05670
 Alpha virt. eigenvalues --    0.05980   0.06117   0.06963   0.07171   0.08204
 Alpha virt. eigenvalues --    0.08965   0.09615   0.10871   0.11858   0.12211

 Mulliken atomic charges:
              1
     1  H   -0.043364
     2  C    0.298693
     3  H    0.084078
     4  H   -0.033128
     5  C    0.745900
     6  O   -0.872002
     7  N   -0.581414
     8  H    0.005988
     9  C    0.174986
    10  H   -0.096521
    11  C    0.714259
    12  H   -0.025365
    13  H   -0.108471
    14  H   -0.031069
    15  C    0.853350
    16  O   -0.803062
    17  N   -0.525371
    18  H   -0.111520
    19  C    0.715619
    20  H   -0.129361
    21  H   -0.066832
    22  H   -0.165393
 Sum of Mulliken atomic charges =   0.00000

 Dipole moment (field-independent basis, Debye):
    X=             -2.9550    Y=              3.5858    Z=             -2.1389  Tot=              5.1152
 Quadrupole moment (field-independent basis, Debye-Ang):
   XX=            -51.0606   YY=            -62.4278   ZZ=            -63.6779
   XY=             -0.3380   XZ=             -9.5795   YZ=              1.5111

 Normal termination of Gaussian 09 at Mon Feb 13 16:31:55 2017.
