 Gaussian 09, Revision A.02,
 Gaussian 09:  EM64L-G09RevA.02 11-Jun-2009

 -------------------
 #SP MP2/aug-cc-pVDZ
 -------------------

 -------------------------------
 Single Point calculation at MP2
 -------------------------------
 Symbolic Z-matrix:
 Charge =  0 Multiplicity = 1

                         Standard orientation:
 ---------------------------------------------------------------------
 Center     Atomic      Atomic             Coordinates (Angstroms)
 Number     Number       Type             X           Y           Z
 ---------------------------------------------------------------------
      1          1           0       -3.678970   -1.541870   -0.022901
      2          6           0       -3.057682   -0.886559    0.592099
      3          1           0       -2.800572   -1.433454    1.506699
      4          1           0       -3.630199    0.004430    0.867799
      5          6           0       -1.782188   -0.564935   -0.167701
      6          8           0       -1.197473   -1.396725   -0.855301
      7          7           0       -1.327512    0.724473   -0.054401
      8          1           0       -1.682222    1.279266    0.714399
      9          6           0        0.017982    1.055898   -0.523001
     10          1           0        0.055486    0.811798   -1.589601
     11          6           0        0.285554    2.547203   -0.319701
     12          1           0        0.308750    2.781403    0.749799
     13          1           0        1.257249    2.819521   -0.743101
     14          1           0       -0.487457    3.148788   -0.809101
     15          6           0        1.074097    0.226417    0.242199
     16          8           0        1.229194    0.369820    1.449699
     17          7           0        1.850812   -0.581368   -0.535701
     18          1           0        1.422718   -0.888276   -1.400201
     19          6           0        2.814729   -1.485051    0.075299
     20          1           0        3.301819   -0.963842    0.900799
     21          1           0        2.337245   -2.390159    0.473099
     22          1           0        3.564334   -1.771937   -0.667301
 ---------------------------------------------------------------------

 SCF Done:  E(RHF) =  -492.927903904     A.U. after   14 cycles
 E2 =    -0.1601551675D+01 EUMP2 =    -0.49452945557915D+03

 The electronic state is 1-A.
 Alpha  occ. eigenvalues --  -20.53896 -20.52999 -15.60066 -15.58750 -11.36827
 Alpha  occ. eigenvalues --  -11.35345 -11.29278 -11.26066 -11.25032 -11.24094
 Alpha  occ. eigenvalues --   -1.39384  -1.37974  -1.24247  -1.22571  -1.05721
 Alpha  occ. eigenvalues --   -0.99553  -0.95444  -0.87155  -0.80316  -0.77561
 Alpha  occ. eigenvalues --   -0.72060  -0.68365  -0.67123  -0.63672  -0.62129
 Alpha  occ. eigenvalues --   -0.61479  -0.59550  -0.58587  -0.57438  -0.55540
 Alpha  occ. eigenvalues --   -0.54076  -0.53863  -0.52340  -0.51781  -0.50430
 Alpha  occ. eigenvalues --   -0.43967  -0.43189  -0.40153  -0.38479
 Alpha virt. eigenvalues --    0.03105   0.03884   0.04297   0.04839   0.05736
 Alpha virt. eigenvalues --    0.06152   0.06426   0.07024   0.07200   0.07846
 Alpha virt. eigenvalues --    0.09150   0.09397   0.11083   0.11936   0.13005

 Mulliken atomic charges:
              1
     1  H    0.011640
     2  C    0.363042
     3  H    0.066379
     4  H   -0.098750
     5  C    0.586896
     6  O   -0.867229
     7  N   -0.449423
     8  H   -0.009310
     9  C    0.142515
    10  H   -0.351272
    11  C    0.675025
    12  H   -0.012195
    13  H   -0.048916
    14  H   -0.017901
    15  C    1.118707
    16  O   -0.880922
    17  N   -0.596861
    18  H   -0.015055
    19  C    0.750307
    20  H   -0.122928
    21  H   -0.065191
    22  H   -0.178558
 Sum of Mulliken atomic charges =   0.00000

 Dipole moment (field-independent basis, Debye):
    X=             -1.4216    Y=              1.4366    Z=             -1.0506  Tot=              2.2779
 Quadrupole moment (field-independent basis, Debye-Ang):
   XX=            -53.0026   YY=            -60.1316   ZZ=            -65.3202
   XY=             -4.9668   XZ=             -8.6348   YZ=             -2.9005

 Normal termination of Gaussian 09 at Mon Feb 13 17:26:49 2017.
