 Gaussian 09, Revision A.02,
 Gaussian 09:  EM64L-G09RevA.02 11-Jun-2009

 -------------------
 #SP MP2/aug-cc-pVDZ
 -------------------

 -------------------------------
 Single Point calculation at MP2
 -------------------------------
 Symbolic Z-matrix:
 Charge =  0 Multiplicity = 1

                         Standard orientation:
 ---------------------------------------------------------------------
 Center     Atomic      Atomic             Coordinates (Angstroms)
 Number     Number       Type             X           Y           Z
 ---------------------------------------------------------------------
      1          1           0       -3.770004   -1.265596    0.569113
      2          6           0       -2.884903   -0.797598    1.002713
      3          1           0       -2.288105   -1.571899    1.500213
      4          1           0       -3.189401   -0.061997    1.756213
      5          6           0       -2.054302   -0.179600   -0.109187
      6          8           0       -2.172603   -0.491300   -1.278787
      7          7           0       -1.195899    0.846398    0.307013
      8          1           0       -1.110799    0.893498    1.319313
      9          6           0        0.102001    1.017995   -0.350287
     10          1           0       -0.121999    1.075195   -1.422487
     11          6           0        0.728005    2.342093    0.094713
     12          1           0        1.014205    2.324992    1.154013
     13          1           0        1.615005    2.592091   -0.498787
     14          1           0        0.003307    3.148795   -0.046387
     15          6           0        0.976398   -0.261808   -0.197887
     16          8           0        0.495795   -1.380506   -0.310987
     17          7           0        2.284699   -0.059011    0.149713
     18          1           0        2.648501    0.881188    0.163113
     19          6           0        3.232096   -1.157013    0.255013
     20          1           0        2.657993   -2.079312    0.350013
     21          1           0        3.873296   -1.231615   -0.632687
     22          1           0        3.865096   -1.027015    1.139013
 ---------------------------------------------------------------------

 SCF Done:  E(RHF) =  -492.910830550     A.U. after   14 cycles
 E2 =    -0.1603387951D+01 EUMP2 =    -0.49451421850096D+03

 The electronic state is 1-A.
 Alpha  occ. eigenvalues --  -20.52996 -20.52366 -15.60087 -15.58941 -11.36220
 Alpha  occ. eigenvalues --  -11.35314 -11.29605 -11.27120 -11.25405 -11.23801
 Alpha  occ. eigenvalues --   -1.38993  -1.37361  -1.23747  -1.22945  -1.05528
 Alpha  occ. eigenvalues --   -0.98791  -0.95795  -0.88551  -0.79326  -0.78120
 Alpha  occ. eigenvalues --   -0.72289  -0.66867  -0.65746  -0.64419  -0.62427
 Alpha  occ. eigenvalues --   -0.61294  -0.59157  -0.58248  -0.57109  -0.56341
 Alpha  occ. eigenvalues --   -0.55047  -0.54843  -0.53272  -0.50533  -0.49705
 Alpha  occ. eigenvalues --   -0.44625  -0.41638  -0.39589  -0.38369
 Alpha virt. eigenvalues --    0.02430   0.03636   0.03949   0.04638   0.05583
 Alpha virt. eigenvalues --    0.05970   0.06144   0.06853   0.07178   0.08288
 Alpha virt. eigenvalues --    0.08844   0.09268   0.11354   0.12077   0.12237

 Mulliken atomic charges:
              1
     1  H   -0.051729
     2  C    0.301173
     3  H    0.077224
     4  H   -0.037906
     5  C    0.770026
     6  O   -0.846937
     7  N   -0.588155
     8  H   -0.003676
     9  C   -0.040675
    10  H   -0.100902
    11  C    0.799203
    12  H    0.001207
    13  H    0.027654
    14  H   -0.124603
    15  C    0.915255
    16  O   -0.826929
    17  N   -0.512439
    18  H   -0.154599
    19  C    0.759647
    20  H   -0.140959
    21  H   -0.074596
    22  H   -0.147286
 Sum of Mulliken atomic charges =   0.00000

 Dipole moment (field-independent basis, Debye):
    X=              3.6419    Y=              3.5708    Z=              3.9124  Tot=              6.4282
 Quadrupole moment (field-independent basis, Debye-Ang):
   XX=            -53.9597   YY=            -62.3200   ZZ=            -62.8096
   XY=              1.4066   XZ=             -8.0599   YZ=             -3.1944

 Normal termination of Gaussian 09 at Mon Feb 13 16:59:19 2017.
