 Gaussian 09, Revision A.02,
 Gaussian 09:  EM64L-G09RevA.02 11-Jun-2009

 ----------------------------------------------------------------------
 # b3lyp/6-31G* Opt=(ModRedundant, maxcycles=1000, calcfc) geom=nocrowd
 ----------------------------------------------------------------------

 ------------------
 Phi Psi fixed scan
 ------------------
 Symbolic Z-matrix:
 Charge =  0 Multiplicity = 1

 SCF Done:  E(RB3LYP) =  -495.842036269     A.U. after   15 cycles

  Exact polarizability:   0.000   0.000   0.000   0.000   0.000   0.000
 Approx polarizability: 104.068 -10.101 122.536  -4.692  17.940 108.482

 SCF Done:  E(RB3LYP) =  -495.844805222     A.U. after   11 cycles
 SCF Done:  E(RB3LYP) =  -495.848281694     A.U. after   12 cycles
 SCF Done:  E(RB3LYP) =  -495.849968820     A.U. after   13 cycles
 SCF Done:  E(RB3LYP) =  -495.850044769     A.U. after   13 cycles
 SCF Done:  E(RB3LYP) =  -495.850592966     A.U. after   12 cycles
 SCF Done:  E(RB3LYP) =  -495.850773488     A.U. after   12 cycles
 SCF Done:  E(RB3LYP) =  -495.834551571     A.U. after   13 cycles
 SCF Done:  E(RB3LYP) =  -495.850773478     A.U. after   13 cycles
 SCF Done:  E(RB3LYP) =  -495.850878026     A.U. after   11 cycles
 SCF Done:  E(RB3LYP) =  -495.850965706     A.U. after   11 cycles
 SCF Done:  E(RB3LYP) =  -495.851017010     A.U. after   11 cycles
 SCF Done:  E(RB3LYP) =  -495.851033368     A.U. after   11 cycles
 SCF Done:  E(RB3LYP) =  -495.851034926     A.U. after    9 cycles
 SCF Done:  E(RB3LYP) =  -495.851035122     A.U. after    7 cycles
 SCF Done:  E(RB3LYP) =  -495.851035566     A.U. after    8 cycles
 SCF Done:  E(RB3LYP) =  -495.851037183     A.U. after    9 cycles
 SCF Done:  E(RB3LYP) =  -495.851038539     A.U. after   10 cycles
 SCF Done:  E(RB3LYP) =  -495.851038510     A.U. after    9 cycles
 SCF Done:  E(RB3LYP) =  -495.851038509     A.U. after    6 cycles
 Optimization completed.
    -- Stationary point found.

                         Standard orientation:
 ---------------------------------------------------------------------
 Center     Atomic      Atomic             Coordinates (Angstroms)
 Number     Number       Type             X           Y           Z
 ---------------------------------------------------------------------
      1          1           0       -3.691934   -1.456782    0.055466
      2          6           0       -3.021631   -0.853576    0.672701
      3          1           0       -2.753424   -1.451284    1.551294
      4          1           0       -3.548246    0.045107    1.008161
      5          6           0       -1.763419   -0.551572   -0.123418
      6          8           0       -1.214605   -1.401065   -0.822010
      7          7           0       -1.296232    0.732919   -0.038120
      8          1           0       -1.653398    1.310010    0.713098
      9          6           0        0.038649    1.081234   -0.538711
     10          1           0        0.054746    0.821664   -1.602387
     11          6           0        0.280555    2.578035   -0.362624
     12          1           0        0.348524    2.824754    0.701640
     13          1           0        1.227161    2.865833   -0.829684
     14          1           0       -0.525322    3.156454   -0.826265
     15          6           0        1.134047    0.272310    0.199806
     16          8           0        1.503497    0.588141    1.326027
     17          7           0        1.679936   -0.744410   -0.526492
     18          1           0        1.061139   -1.135397   -1.228742
     19          6           0        2.635203   -1.652944    0.090462
     20          1           0        3.310710   -1.071293    0.719571
     21          1           0        2.143322   -2.407090    0.719203
     22          1           0        3.209234   -2.159072   -0.690504
 ---------------------------------------------------------------------

 The electronic state is 1-A.
 Alpha  occ. eigenvalues --  -19.11871 -19.10804 -14.36668 -14.35043 -10.29424
 Alpha  occ. eigenvalues --  -10.27684 -10.23560 -10.20952 -10.19689 -10.18741
 Alpha  occ. eigenvalues --   -1.03856  -1.02386  -0.92704  -0.91097  -0.78165
 Alpha  occ. eigenvalues --   -0.73228  -0.70531  -0.63723  -0.59232  -0.56613
 Alpha  occ. eigenvalues --   -0.52620  -0.49186  -0.48332  -0.46090  -0.44680
 Alpha  occ. eigenvalues --   -0.43631  -0.41905  -0.41606  -0.40532  -0.39330
 Alpha  occ. eigenvalues --   -0.38497  -0.37981  -0.36943  -0.35708  -0.35349
 Alpha  occ. eigenvalues --   -0.27755  -0.26060  -0.24984  -0.23256
 Alpha virt. eigenvalues --    0.01558   0.02695   0.07546   0.10047   0.11880
 Alpha virt. eigenvalues --    0.12797   0.13309   0.14948   0.15614   0.16404
 Alpha virt. eigenvalues --    0.16970   0.17483   0.18168   0.19179   0.20182

 Mulliken atomic charges:
              1
     1  H    0.189072
     2  C   -0.540274
     3  H    0.188277
     4  H    0.152139
     5  C    0.601252
     6  O   -0.524735
     7  N   -0.580430
     8  H    0.329017
     9  C   -0.030336
    10  H    0.158120
    11  C   -0.478701
    12  H    0.175618
    13  H    0.166713
    14  H    0.152426
    15  C    0.597296
    16  O   -0.527521
    17  N   -0.576569
    18  H    0.351876
    19  C   -0.307043
    20  H    0.188379
    21  H    0.162510
    22  H    0.152916
 Sum of Mulliken atomic charges =   0.00000

 Dipole moment (field-independent basis, Debye):
    X=             -1.6114    Y=              0.7649    Z=             -0.5053  Tot=              1.8539
 Quadrupole moment (field-independent basis, Debye-Ang):
   XX=            -54.8216   YY=            -58.0368   ZZ=            -62.7377
   XY=             -5.6310   XZ=             -7.6641   YZ=             -2.7729

 Normal termination of Gaussian 09 at Sat Feb 11 00:30:53 2017.
