 Gaussian 09, Revision A.02,
 Gaussian 09:  EM64L-G09RevA.02 11-Jun-2009

 ----------------------------------------------------------------------
 # b3lyp/6-31G* Opt=(ModRedundant, maxcycles=1000, calcfc) geom=nocrowd
 ----------------------------------------------------------------------

 ------------------
 Phi Psi fixed scan
 ------------------
 Symbolic Z-matrix:
 Charge =  0 Multiplicity = 1

 SCF Done:  E(RB3LYP) =  -495.821765270     A.U. after   16 cycles

  Exact polarizability:   0.000   0.000   0.000   0.000   0.000   0.000
 Approx polarizability: 119.285  -8.583 122.298  -9.795  -4.210  93.649

 SCF Done:  E(RB3LYP) =  -495.826983415     A.U. after   12 cycles
 SCF Done:  E(RB3LYP) =  -495.834055707     A.U. after   12 cycles
 SCF Done:  E(RB3LYP) =  -495.836865979     A.U. after   13 cycles
 SCF Done:  E(RB3LYP) =  -495.838170488     A.U. after   12 cycles
 SCF Done:  E(RB3LYP) =  -495.819214786     A.U. after   14 cycles
 SCF Done:  E(RB3LYP) =  -495.838843908     A.U. after   14 cycles
 SCF Done:  E(RB3LYP) =  -495.839741983     A.U. after   12 cycles
 SCF Done:  E(RB3LYP) =  -495.840686423     A.U. after   13 cycles
 SCF Done:  E(RB3LYP) =  -495.841145803     A.U. after   13 cycles
 SCF Done:  E(RB3LYP) =  -495.841749359     A.U. after   10 cycles
 SCF Done:  E(RB3LYP) =  -495.841751414     A.U. after    9 cycles
 SCF Done:  E(RB3LYP) =  -495.841751725     A.U. after    8 cycles
 SCF Done:  E(RB3LYP) =  -495.841751923     A.U. after    7 cycles
 SCF Done:  E(RB3LYP) =  -495.841752416     A.U. after    8 cycles
 SCF Done:  E(RB3LYP) =  -495.841753848     A.U. after    8 cycles
 SCF Done:  E(RB3LYP) =  -495.841758929     A.U. after   10 cycles
 SCF Done:  E(RB3LYP) =  -495.841769469     A.U. after   10 cycles
 SCF Done:  E(RB3LYP) =  -495.841775275     A.U. after   11 cycles
 SCF Done:  E(RB3LYP) =  -495.841775367     A.U. after    7 cycles
 Optimization completed.
    -- Stationary point found.

                         Standard orientation:
 ---------------------------------------------------------------------
 Center     Atomic      Atomic             Coordinates (Angstroms)
 Number     Number       Type             X           Y           Z
 ---------------------------------------------------------------------
      1          1           0        3.829572   -1.262519   -0.182375
      2          6           0        3.040000   -0.749201   -0.733645
      3          1           0        2.550503   -1.470528   -1.398645
      4          1           0        3.475973    0.046555   -1.347965
      5          6           0        2.007648   -0.224071    0.247329
      6          8           0        1.872222   -0.666942    1.374787
      7          7           0        1.257603    0.858897   -0.213917
      8          1           0        1.299340    0.967587   -1.223218
      9          6           0       -0.093965    1.021208    0.304590
     10          1           0       -0.001189    1.050551    1.396740
     11          6           0       -0.677412    2.349387   -0.195054
     12          1           0       -0.848605    2.329073   -1.278029
     13          1           0       -1.630298    2.592680    0.285575
     14          1           0        0.021956    3.160077    0.029330
     15          6           0       -0.959440   -0.227710   -0.035829
     16          8           0       -0.467778   -1.250378   -0.493332
     17          7           0       -2.309578   -0.063855    0.111178
     18          1           0       -2.642197    0.746463    0.613746
     19          6           0       -3.236933   -1.171443   -0.064939
     20          1           0       -2.784261   -1.878738   -0.760545
     21          1           0       -3.442043   -1.694216    0.878441
     22          1           0       -4.179863   -0.802744   -0.480235
 ---------------------------------------------------------------------

 The electronic state is 1-A.
 Alpha  occ. eigenvalues --  -19.11481 -19.10057 -14.36601 -14.34679 -10.28601
 Alpha  occ. eigenvalues --  -10.27614 -10.23624 -10.22051 -10.19963 -10.17957
 Alpha  occ. eigenvalues --   -1.03693  -1.01752  -0.92274  -0.91388  -0.77864
 Alpha  occ. eigenvalues --   -0.72265  -0.70835  -0.64470  -0.58607  -0.56996
 Alpha  occ. eigenvalues --   -0.53038  -0.47707  -0.47133  -0.45430  -0.45219
 Alpha  occ. eigenvalues --   -0.43631  -0.42761  -0.41534  -0.39991  -0.39461
 Alpha  occ. eigenvalues --   -0.38746  -0.38325  -0.37681  -0.35400  -0.33857
 Alpha  occ. eigenvalues --   -0.26982  -0.25415  -0.24632  -0.23228
 Alpha virt. eigenvalues --    0.02368   0.03526   0.06060   0.08786   0.11630
 Alpha virt. eigenvalues --    0.12912   0.14227   0.14653   0.15225   0.15899
 Alpha virt. eigenvalues --    0.16428   0.16850   0.17701   0.19132   0.19799

 Mulliken atomic charges:
              1
     1  H    0.181866
     2  C   -0.553510
     3  H    0.192067
     4  H    0.151577
     5  C    0.612240
     6  O   -0.498277
     7  N   -0.569945
     8  H    0.311760
     9  C   -0.072504
    10  H    0.191430
    11  C   -0.465770
    12  H    0.155966
    13  H    0.142341
    14  H    0.174853
    15  C    0.612532
    16  O   -0.511080
    17  N   -0.591877
    18  H    0.325014
    19  C   -0.307393
    20  H    0.201606
    21  H    0.163288
    22  H    0.153816
 Sum of Mulliken atomic charges =   0.00000

 Dipole moment (field-independent basis, Debye):
    X=             -3.1115    Y=              3.0724    Z=             -1.8555  Tot=              4.7501
 Quadrupole moment (field-independent basis, Debye-Ang):
   XX=            -50.4430   YY=            -60.6900   ZZ=            -61.5168
   XY=             -0.0196   XZ=             -8.3431   YZ=              1.2405

 Normal termination of Gaussian 09 at Sat Feb 11 00:26:25 2017.
