 Gaussian 09, Revision A.02,
 Gaussian 09:  EM64L-G09RevA.02 11-Jun-2009

 ----------------------------------------------------------------------
 # b3lyp/6-31G* Opt=(ModRedundant, maxcycles=1000, calcfc) geom=nocrowd
 ----------------------------------------------------------------------

 ------------------
 Phi Psi fixed scan
 ------------------
 Symbolic Z-matrix:
 Charge =  0 Multiplicity = 1

 SCF Done:  E(RB3LYP) =  -495.842219065     A.U. after   15 cycles

  Exact polarizability:   0.000   0.000   0.000   0.000   0.000   0.000
 Approx polarizability: 105.886 -11.322 116.820  -9.429  13.806 111.798

 SCF Done:  E(RB3LYP) =  -495.844659650     A.U. after   11 cycles
 SCF Done:  E(RB3LYP) =  -495.847606495     A.U. after   12 cycles
 SCF Done:  E(RB3LYP) =  -495.848883258     A.U. after   12 cycles
 SCF Done:  E(RB3LYP) =  -495.844790958     A.U. after   13 cycles
 SCF Done:  E(RB3LYP) =  -495.846894849     A.U. after   12 cycles
 SCF Done:  E(RB3LYP) =  -495.847061707     A.U. after   12 cycles
 SCF Done:  E(RB3LYP) =  -495.847775739     A.U. after   12 cycles
 SCF Done:  E(RB3LYP) =  -495.847353149     A.U. after   12 cycles
 SCF Done:  E(RB3LYP) =  -495.848883248     A.U. after   13 cycles
 SCF Done:  E(RB3LYP) =  -495.849840537     A.U. after   12 cycles
 SCF Done:  E(RB3LYP) =  -495.849868126     A.U. after   11 cycles
 SCF Done:  E(RB3LYP) =  -495.849874156     A.U. after   11 cycles
 SCF Done:  E(RB3LYP) =  -495.849884054     A.U. after   10 cycles
 SCF Done:  E(RB3LYP) =  -495.849885180     A.U. after    9 cycles
 SCF Done:  E(RB3LYP) =  -495.849885839     A.U. after    9 cycles
 SCF Done:  E(RB3LYP) =  -495.849886039     A.U. after    8 cycles
 SCF Done:  E(RB3LYP) =  -495.849886139     A.U. after    7 cycles
 SCF Done:  E(RB3LYP) =  -495.849886370     A.U. after    8 cycles
 SCF Done:  E(RB3LYP) =  -495.849886498     A.U. after    7 cycles
 Optimization completed.
    -- Stationary point found.

                         Standard orientation:
 ---------------------------------------------------------------------
 Center     Atomic      Atomic             Coordinates (Angstroms)
 Number     Number       Type             X           Y           Z
 ---------------------------------------------------------------------
      1          1           0       -3.678992   -1.541774   -0.022919
      2          6           0       -3.057736   -0.886512    0.592105
      3          1           0       -2.800634   -1.433432    1.506675
      4          1           0       -3.630218    0.004547    0.867825
      5          6           0       -1.782191   -0.564926   -0.167711
      6          8           0       -1.197538   -1.396726   -0.855310
      7          7           0       -1.327492    0.724476   -0.054417
      8          1           0       -1.682224    1.279306    0.714424
      9          6           0        0.017984    1.055871   -0.522975
     10          1           0        0.055534    0.811845   -1.589628
     11          6           0        0.285611    2.547206   -0.319732
     12          1           0        0.308831    2.781367    0.749772
     13          1           0        1.257310    2.819483   -0.743099
     14          1           0       -0.487410    3.148789   -0.809136
     15          6           0        1.074078    0.226419    0.242159
     16          8           0        1.229244    0.369809    1.449747
     17          7           0        1.850846   -0.581376   -0.535692
     18          1           0        1.422659   -0.888298   -1.400192
     19          6           0        2.814696   -1.485084    0.075307
     20          1           0        3.301815   -0.963905    0.900813
     21          1           0        2.337239   -2.390179    0.473119
     22          1           0        3.564314   -1.771964   -0.667302
 ---------------------------------------------------------------------

 The electronic state is 1-A.
 Alpha  occ. eigenvalues --  -19.11414 -19.10809 -14.36118 -14.35455 -10.28925
 Alpha  occ. eigenvalues --  -10.27753 -10.23455 -10.21148 -10.19313 -10.18900
 Alpha  occ. eigenvalues --   -1.03559  -1.02370  -0.92295  -0.91352  -0.78027
 Alpha  occ. eigenvalues --   -0.72996  -0.70598  -0.63748  -0.58849  -0.56993
 Alpha  occ. eigenvalues --   -0.52633  -0.48877  -0.48080  -0.46067  -0.44405
 Alpha  occ. eigenvalues --   -0.43689  -0.41970  -0.41456  -0.40128  -0.39442
 Alpha  occ. eigenvalues --   -0.38607  -0.38080  -0.36995  -0.35713  -0.34883
 Alpha  occ. eigenvalues --   -0.27241  -0.25729  -0.24978  -0.23400
 Alpha virt. eigenvalues --    0.01853   0.02975   0.07891   0.09089   0.11891
 Alpha virt. eigenvalues --    0.12834   0.13383   0.14997   0.15549   0.16234
 Alpha virt. eigenvalues --    0.16719   0.17711   0.18192   0.19072   0.20098

 Mulliken atomic charges:
              1
     1  H    0.187131
     2  C   -0.542471
     3  H    0.188495
     4  H    0.152230
     5  C    0.601975
     6  O   -0.523142
     7  N   -0.577283
     8  H    0.328705
     9  C   -0.028659
    10  H    0.152011
    11  C   -0.479265
    12  H    0.173245
    13  H    0.165153
    14  H    0.156099
    15  C    0.611243
    16  O   -0.532830
    17  N   -0.576383
    18  H    0.342150
    19  C   -0.306990
    20  H    0.189915
    21  H    0.166590
    22  H    0.152083
 Sum of Mulliken atomic charges =   0.00000

 Dipole moment (field-independent basis, Debye):
    X=             -0.8480    Y=              1.1506    Z=             -0.8727  Tot=              1.6747
 Quadrupole moment (field-independent basis, Debye-Ang):
   XX=            -52.5998   YY=            -58.3671   ZZ=            -62.8870
   XY=             -5.0283   XZ=             -7.6387   YZ=             -2.1160

 Normal termination of Gaussian 09 at Sat Feb 11 00:20:20 2017.
