 Gaussian 09, Revision A.02,
 Gaussian 09:  EM64L-G09RevA.02 11-Jun-2009

 ----------------------------------------------------------------------
 # b3lyp/6-31G* Opt=(ModRedundant, maxcycles=1000, calcfc) geom=nocrowd
 ----------------------------------------------------------------------

 ------------------
 Phi Psi fixed scan
 ------------------
 Symbolic Z-matrix:
 Charge =  0 Multiplicity = 1

 SCF Done:  E(RB3LYP) =  -495.839059031     A.U. after   16 cycles

  Exact polarizability:   0.000   0.000   0.000   0.000   0.000   0.000
 Approx polarizability: 105.854  -2.228 108.832 -14.937  -2.638 120.716

 SCF Done:  E(RB3LYP) =  -495.842296291     A.U. after   12 cycles
 SCF Done:  E(RB3LYP) =  -495.845752777     A.U. after   12 cycles
 SCF Done:  E(RB3LYP) =  -495.846327284     A.U. after   14 cycles
 SCF Done:  E(RB3LYP) =  -495.826601972     A.U. after   14 cycles
 SCF Done:  E(RB3LYP) =  -495.846339718     A.U. after   14 cycles
 SCF Done:  E(RB3LYP) =  -495.846502148     A.U. after   12 cycles
 SCF Done:  E(RB3LYP) =  -495.845302553     A.U. after   13 cycles
 SCF Done:  E(RB3LYP) =  -495.846589395     A.U. after   13 cycles
 SCF Done:  E(RB3LYP) =  -495.846632891     A.U. after   11 cycles
 SCF Done:  E(RB3LYP) =  -495.846637162     A.U. after    9 cycles
 SCF Done:  E(RB3LYP) =  -495.846641397     A.U. after   10 cycles
 SCF Done:  E(RB3LYP) =  -495.846647443     A.U. after   10 cycles
 SCF Done:  E(RB3LYP) =  -495.846653579     A.U. after   10 cycles
 SCF Done:  E(RB3LYP) =  -495.846655801     A.U. after   10 cycles
 SCF Done:  E(RB3LYP) =  -495.846656421     A.U. after    9 cycles
 SCF Done:  E(RB3LYP) =  -495.846656468     A.U. after    7 cycles
 Optimization completed.
    -- Stationary point found.

                         Standard orientation:
 ---------------------------------------------------------------------
 Center     Atomic      Atomic             Coordinates (Angstroms)
 Number     Number       Type             X           Y           Z
 ---------------------------------------------------------------------
      1          1           0        3.310177   -1.710668   -0.497623
      2          6           0        3.188400   -0.630596   -0.383510
      3          1           0        3.343551   -0.144781   -1.352442
      4          1           0        3.965084   -0.284740    0.307676
      5          6           0        1.822637   -0.352639    0.229207
      6          8           0        1.372608   -1.010509    1.156655
      7          7           0        1.129520    0.697219   -0.322151
      8          1           0        1.580396    1.261675   -1.029180
      9          6           0       -0.125148    1.189562    0.246251
     10          1           0        0.039071    1.460334    1.295337
     11          6           0       -0.598851    2.423546   -0.528642
     12          1           0       -0.781106    2.181392   -1.582278
     13          1           0       -1.533243    2.785617   -0.093070
     14          1           0        0.142257    3.229792   -0.474583
     15          6           0       -1.262434    0.147194    0.305241
     16          8           0       -2.163815    0.290552    1.120544
     17          7           0       -1.251404   -0.811278   -0.662760
     18          1           0       -0.386999   -0.933513   -1.170694
     19          6           0       -2.209012   -1.903625   -0.661462
     20          1           0       -3.094059   -1.568755   -0.118886
     21          1           0       -2.487182   -2.163559   -1.687992
     22          1           0       -1.808653   -2.795374   -0.161979
 ---------------------------------------------------------------------

 The electronic state is 1-A.
 Alpha  occ. eigenvalues --  -19.11658 -19.10083 -14.37106 -14.35231 -10.29479
 Alpha  occ. eigenvalues --  -10.27610 -10.23612 -10.21002 -10.20099 -10.19592
 Alpha  occ. eigenvalues --   -1.03869  -1.02047  -0.93215  -0.90875  -0.78488
 Alpha  occ. eigenvalues --   -0.73584  -0.70474  -0.64476  -0.59770  -0.57278
 Alpha  occ. eigenvalues --   -0.52278  -0.50340  -0.48175  -0.45366  -0.45033
 Alpha  occ. eigenvalues --   -0.43502  -0.42547  -0.41803  -0.40558  -0.39354
 Alpha  occ. eigenvalues --   -0.38888  -0.38577  -0.37809  -0.36106  -0.34247
 Alpha  occ. eigenvalues --   -0.27290  -0.25610  -0.24463  -0.23481
 Alpha virt. eigenvalues --    0.01843   0.03511   0.06091   0.10061   0.11139
 Alpha virt. eigenvalues --    0.12380   0.13901   0.14350   0.14960   0.15839
 Alpha virt. eigenvalues --    0.16734   0.17426   0.17624   0.18414   0.19449

 Mulliken atomic charges:
              1
     1  H    0.188305
     2  C   -0.541194
     3  H    0.144892
     4  H    0.189740
     5  C    0.581704
     6  O   -0.492392
     7  N   -0.629645
     8  H    0.325403
     9  C   -0.000898
    10  H    0.182277
    11  C   -0.487416
    12  H    0.153225
    13  H    0.191963
    14  H    0.151897
    15  C    0.619933
    16  O   -0.527887
    17  N   -0.580794
    18  H    0.326685
    19  C   -0.309053
    20  H    0.198636
    21  H    0.148620
    22  H    0.166001
 Sum of Mulliken atomic charges =   0.00000

 Dipole moment (field-independent basis, Debye):
    X=              3.0714    Y=              1.2224    Z=             -4.7754  Tot=              5.8079
 Quadrupole moment (field-independent basis, Debye-Ang):
   XX=            -59.0661   YY=            -55.2390   ZZ=            -63.2958
   XY=              4.9354   XZ=              0.9489   YZ=              2.5034

 Normal termination of Gaussian 09 at Sat Feb 11 00:30:40 2017.
