 Gaussian 09, Revision A.02,
 Gaussian 09:  EM64L-G09RevA.02 11-Jun-2009

 ----------------------------------------------------------------------
 # b3lyp/6-31G* Opt=(ModRedundant, maxcycles=1000, calcfc) geom=nocrowd
 ----------------------------------------------------------------------

 ------------------
 Phi Psi fixed scan
 ------------------
 Symbolic Z-matrix:
 Charge =  0 Multiplicity = 1

 SCF Done:  E(RB3LYP) =  -495.819760707     A.U. after   16 cycles

  Exact polarizability:   0.000   0.000   0.000   0.000   0.000   0.000
 Approx polarizability: 104.286   3.403 119.477   6.287  23.070 112.465

 SCF Done:  E(RB3LYP) =  -495.825634947     A.U. after   13 cycles
 SCF Done:  E(RB3LYP) =  -495.832092124     A.U. after   13 cycles
 SCF Done:  E(RB3LYP) =  -495.833441597     A.U. after   13 cycles
 SCF Done:  E(RB3LYP) =  -495.833330433     A.U. after   14 cycles
 SCF Done:  E(RB3LYP) =  -495.833457994     A.U. after   14 cycles
 SCF Done:  E(RB3LYP) =  -495.833854135     A.U. after   13 cycles
 SCF Done:  E(RB3LYP) =  -495.816810385     A.U. after   16 cycles
 SCF Done:  E(RB3LYP) =  -495.834052313     A.U. after   17 cycles
 SCF Done:  E(RB3LYP) =  -495.834349480     A.U. after   13 cycles
 SCF Done:  E(RB3LYP) =  -495.834746394     A.U. after   17 cycles
 SCF Done:  E(RB3LYP) =  -495.834768017     A.U. after   12 cycles
 SCF Done:  E(RB3LYP) =  -495.834847651     A.U. after   13 cycles
 SCF Done:  E(RB3LYP) =  -495.834862272     A.U. after   10 cycles
 SCF Done:  E(RB3LYP) =  -495.834875043     A.U. after   12 cycles
 SCF Done:  E(RB3LYP) =  -495.834882028     A.U. after   11 cycles
 SCF Done:  E(RB3LYP) =  -495.834895645     A.U. after   12 cycles
 SCF Done:  E(RB3LYP) =  -495.834901836     A.U. after   11 cycles
 SCF Done:  E(RB3LYP) =  -495.834903137     A.U. after   12 cycles
 SCF Done:  E(RB3LYP) =  -495.834903259     A.U. after    7 cycles
 Optimization completed.
    -- Stationary point found.

                         Standard orientation:
 ---------------------------------------------------------------------
 Center     Atomic      Atomic             Coordinates (Angstroms)
 Number     Number       Type             X           Y           Z
 ---------------------------------------------------------------------
      1          1           0       -3.871278   -1.090812    0.673936
      2          6           0       -2.962661   -0.672784    1.110919
      3          1           0       -2.505166   -1.443944    1.742881
      4          1           0       -3.222929    0.181341    1.745655
      5          6           0       -2.005433   -0.304739   -0.017534
      6          8           0       -2.015195   -0.866166   -1.097732
      7          7           0       -1.154719    0.746997    0.279350
      8          1           0       -1.122363    1.014961    1.256329
      9          6           0        0.072212    1.027045   -0.477430
     10          1           0       -0.223445    1.070525   -1.529466
     11          6           0        0.632667    2.385586   -0.053254
     12          1           0        0.854054    2.432046    1.022644
     13          1           0        1.555452    2.612677   -0.595288
     14          1           0       -0.098132    3.171805   -0.266324
     15          6           0        1.081414   -0.153003   -0.445767
     16          8           0        1.075128   -1.022275   -1.302371
     17          7           0        1.986745   -0.130802    0.584699
     18          1           0        1.938021    0.610737    1.267060
     19          6           0        2.970383   -1.181423    0.780261
     20          1           0        2.925099   -1.832818   -0.093423
     21          1           0        3.978704   -0.760826    0.867340
     22          1           0        2.756839   -1.775621    1.677961
 ---------------------------------------------------------------------

 The electronic state is 1-A.
 Alpha  occ. eigenvalues --  -19.10632 -19.10563 -14.36277 -14.36046 -10.28335
 Alpha  occ. eigenvalues --  -10.28122 -10.23666 -10.21818 -10.20326 -10.19046
 Alpha  occ. eigenvalues --   -1.03081  -1.02228  -0.92474  -0.91489  -0.78411
 Alpha  occ. eigenvalues --   -0.72903  -0.70796  -0.65049  -0.58750  -0.58049
 Alpha  occ. eigenvalues --   -0.52939  -0.48931  -0.47192  -0.45647  -0.44707
 Alpha  occ. eigenvalues --   -0.43766  -0.43007  -0.41877  -0.40132  -0.39597
 Alpha  occ. eigenvalues --   -0.39134  -0.38540  -0.37279  -0.35901  -0.34892
 Alpha  occ. eigenvalues --   -0.27399  -0.25047  -0.24536  -0.22681
 Alpha virt. eigenvalues --    0.02068   0.03528   0.05157   0.08759   0.11347
 Alpha virt. eigenvalues --    0.12301   0.13240   0.13846   0.15354   0.15846
 Alpha virt. eigenvalues --    0.16295   0.17067   0.17824   0.18470   0.19592

 Mulliken atomic charges:
              1
     1  H    0.190110
     2  C   -0.547618
     3  H    0.177290
     4  H    0.150850
     5  C    0.589183
     6  O   -0.470792
     7  N   -0.591277
     8  H    0.306732
     9  C   -0.033617
    10  H    0.195135
    11  C   -0.482402
    12  H    0.128711
    13  H    0.174427
    14  H    0.174954
    15  C    0.598283
    16  O   -0.489464
    17  N   -0.595381
    18  H    0.317336
    19  C   -0.309943
    20  H    0.208428
    21  H    0.154427
    22  H    0.154629
 Sum of Mulliken atomic charges =   0.00000

 Dipole moment (field-independent basis, Debye):
    X=              1.6859    Y=              3.4143    Z=              5.5669  Tot=              6.7447
 Quadrupole moment (field-independent basis, Debye-Ang):
   XX=            -55.7094   YY=            -59.5674   ZZ=            -61.4317
   XY=             -0.5486   XZ=             -1.7766   YZ=             -4.6230

 Normal termination of Gaussian 09 at Sat Feb 11 00:41:40 2017.
