 Gaussian 09, Revision A.02,
 Gaussian 09:  EM64L-G09RevA.02 11-Jun-2009

 ----------------------------------------------------------------------
 # b3lyp/6-31G* Opt=(ModRedundant, maxcycles=1000, calcfc) geom=nocrowd
 ----------------------------------------------------------------------

 ------------------
 Phi Psi fixed scan
 ------------------
 Symbolic Z-matrix:
 Charge =  0 Multiplicity = 1

 SCF Done:  E(RB3LYP) =  -495.836373590     A.U. after   15 cycles

  Exact polarizability:   0.000   0.000   0.000   0.000   0.000   0.000
 Approx polarizability: 114.913   0.671 115.037 -16.058   0.958 103.719

 SCF Done:  E(RB3LYP) =  -495.839747032     A.U. after   12 cycles
 SCF Done:  E(RB3LYP) =  -495.843643058     A.U. after   13 cycles
 SCF Done:  E(RB3LYP) =  -495.845130781     A.U. after   13 cycles
 SCF Done:  E(RB3LYP) =  -495.841010272     A.U. after   16 cycles
 SCF Done:  E(RB3LYP) =  -495.843380323     A.U. after   16 cycles
 SCF Done:  E(RB3LYP) =  -495.845139983     A.U. after   14 cycles
 SCF Done:  E(RB3LYP) =  -495.845831644     A.U. after   12 cycles
 SCF Done:  E(RB3LYP) =  -495.845897542     A.U. after   16 cycles
 SCF Done:  E(RB3LYP) =  -495.846664504     A.U. after   16 cycles
 SCF Done:  E(RB3LYP) =  -495.846675793     A.U. after   12 cycles
 SCF Done:  E(RB3LYP) =  -495.846841432     A.U. after   12 cycles
 SCF Done:  E(RB3LYP) =  -495.846876716     A.U. after   11 cycles
 SCF Done:  E(RB3LYP) =  -495.846888919     A.U. after   16 cycles
 SCF Done:  E(RB3LYP) =  -495.846892815     A.U. after   10 cycles
 SCF Done:  E(RB3LYP) =  -495.846894902     A.U. after   10 cycles
 SCF Done:  E(RB3LYP) =  -495.846895402     A.U. after    7 cycles
 SCF Done:  E(RB3LYP) =  -495.846896531     A.U. after   10 cycles
 SCF Done:  E(RB3LYP) =  -495.846896672     A.U. after    8 cycles
 SCF Done:  E(RB3LYP) =  -495.846896674     A.U. after    8 cycles
 Optimization completed on the basis of negligible forces.
    -- Stationary point found.

                         Standard orientation:
 ---------------------------------------------------------------------
 Center     Atomic      Atomic             Coordinates (Angstroms)
 Number     Number       Type             X           Y           Z
 ---------------------------------------------------------------------
      1          1           0        3.802911   -1.376573    0.063314
      2          6           0        3.140646   -0.746316   -0.532805
      3          1           0        2.796881   -1.325916   -1.398126
      4          1           0        3.691748    0.126011   -0.899892
      5          6           0        1.935079   -0.360450    0.305044
      6          8           0        1.545291   -1.020382    1.256837
      7          7           0        1.313009    0.820315   -0.066686
      8          1           0        1.494709    1.108105   -1.022225
      9          6           0       -0.064016    1.020815    0.354371
     10          1           0       -0.078170    0.956784    1.447645
     11          6           0       -0.550730    2.405541   -0.093289
     12          1           0       -0.558233    2.478577   -1.187721
     13          1           0       -1.569227    2.595896    0.257224
     14          1           0        0.107641    3.184898    0.302926
     15          6           0       -0.973764   -0.096736   -0.216983
     16          8           0       -0.642036   -0.762145   -1.189398
     17          7           0       -2.202502   -0.183491    0.372788
     18          1           0       -2.330880    0.279163    1.262473
     19          6           0       -3.172165   -1.198026   -0.008304
     20          1           0       -2.911744   -1.542243   -1.009790
     21          1           0       -3.154398   -2.058216    0.673076
     22          1           0       -4.181128   -0.773011   -0.019325
 ---------------------------------------------------------------------

 The electronic state is 1-A.
 Alpha  occ. eigenvalues --  -19.11130 -19.10609 -14.36278 -14.34963 -10.28234
 Alpha  occ. eigenvalues --  -10.27969 -10.23422 -10.21760 -10.19568 -10.18341
 Alpha  occ. eigenvalues --   -1.03435  -1.02113  -0.92019  -0.91609  -0.77897
 Alpha  occ. eigenvalues --   -0.72488  -0.70819  -0.64025  -0.58513  -0.57199
 Alpha  occ. eigenvalues --   -0.52894  -0.48088  -0.47484  -0.45555  -0.44756
 Alpha  occ. eigenvalues --   -0.43606  -0.42593  -0.41330  -0.40097  -0.39206
 Alpha  occ. eigenvalues --   -0.38934  -0.38080  -0.37665  -0.35509  -0.34171
 Alpha  occ. eigenvalues --   -0.26566  -0.25361  -0.24672  -0.23783
 Alpha virt. eigenvalues --    0.02446   0.03346   0.06989   0.08614   0.11990
 Alpha virt. eigenvalues --    0.12791   0.14226   0.15057   0.15254   0.15826
 Alpha virt. eigenvalues --    0.16584   0.17012   0.17576   0.18809   0.19466

 Mulliken atomic charges:
              1
     1  H    0.183185
     2  C   -0.551286
     3  H    0.191241
     4  H    0.154848
     5  C    0.605052
     6  O   -0.506213
     7  N   -0.569252
     8  H    0.320964
     9  C   -0.057803
    10  H    0.168181
    11  C   -0.461509
    12  H    0.157313
    13  H    0.154693
    14  H    0.167970
    15  C    0.625944
    16  O   -0.528935
    17  N   -0.590430
    18  H    0.325155
    19  C   -0.308669
    20  H    0.201581
    21  H    0.164376
    22  H    0.153595
 Sum of Mulliken atomic charges =   0.00000

 Dipole moment (field-independent basis, Debye):
    X=             -1.7900    Y=              2.8342    Z=             -0.2112  Tot=              3.3588
 Quadrupole moment (field-independent basis, Debye-Ang):
   XX=            -49.3582   YY=            -60.0682   ZZ=            -62.2915
   XY=              1.8109   XZ=             -8.6279   YZ=              0.7233

 Normal termination of Gaussian 09 at Sat Feb 11 00:21:20 2017.
