 Gaussian 09, Revision A.02,
 Gaussian 09:  EM64L-G09RevA.02 11-Jun-2009

 ----------------------------------------------------------------------
 # b3lyp/6-31G* Opt=(ModRedundant, maxcycles=1000, calcfc) geom=nocrowd
 ----------------------------------------------------------------------

 ------------------
 Phi Psi fixed scan
 ------------------
 Symbolic Z-matrix:
 Charge =  0 Multiplicity = 1

 SCF Done:  E(RB3LYP) =  -495.826799779     A.U. after   16 cycles

  Exact polarizability:   0.000   0.000   0.000   0.000   0.000   0.000
 Approx polarizability: 100.262   0.522 112.043   2.206 -20.858 123.196

 SCF Done:  E(RB3LYP) =  -495.831357779     A.U. after   12 cycles
 SCF Done:  E(RB3LYP) =  -495.836409919     A.U. after   13 cycles
 SCF Done:  E(RB3LYP) =  -495.837468043     A.U. after   12 cycles
 SCF Done:  E(RB3LYP) =  -495.833796358     A.U. after   14 cycles
 SCF Done:  E(RB3LYP) =  -495.837502051     A.U. after   13 cycles
 SCF Done:  E(RB3LYP) =  -495.837662198     A.U. after   13 cycles
 SCF Done:  E(RB3LYP) =  -495.828214241     A.U. after   13 cycles
 SCF Done:  E(RB3LYP) =  -495.837741375     A.U. after   14 cycles
 SCF Done:  E(RB3LYP) =  -495.837844055     A.U. after   11 cycles
 SCF Done:  E(RB3LYP) =  -495.837868039     A.U. after   12 cycles
 SCF Done:  E(RB3LYP) =  -495.837884786     A.U. after   11 cycles
 SCF Done:  E(RB3LYP) =  -495.837904661     A.U. after   11 cycles
 SCF Done:  E(RB3LYP) =  -495.837917484     A.U. after   11 cycles
 SCF Done:  E(RB3LYP) =  -495.837925609     A.U. after   10 cycles
 SCF Done:  E(RB3LYP) =  -495.837929100     A.U. after   10 cycles
 SCF Done:  E(RB3LYP) =  -495.837931308     A.U. after   10 cycles
 SCF Done:  E(RB3LYP) =  -495.837933129     A.U. after   10 cycles
 SCF Done:  E(RB3LYP) =  -495.837933714     A.U. after    9 cycles
 SCF Done:  E(RB3LYP) =  -495.837933744     A.U. after    7 cycles
 Optimization completed.
    -- Stationary point found.

                         Standard orientation:
 ---------------------------------------------------------------------
 Center     Atomic      Atomic             Coordinates (Angstroms)
 Number     Number       Type             X           Y           Z
 ---------------------------------------------------------------------
      1          1           0        3.342268   -1.585304   -1.089729
      2          6           0        3.232492   -0.551144   -0.753325
      3          1           0        3.292024    0.116244   -1.619461
      4          1           0        4.072916   -0.333123   -0.085232
      5          6           0        1.931785   -0.431235    0.032455
      6          8           0        1.602971   -1.246518    0.879110
      7          7           0        1.162578    0.663678   -0.277085
      8          1           0        1.543244    1.348272   -0.915997
      9          6           0       -0.043384    1.042855    0.465158
     10          1           0        0.212332    1.115771    1.528600
     11          6           0       -0.550153    2.398665   -0.030707
     12          1           0       -0.797730    2.382095   -1.098495
     13          1           0       -1.451684    2.687373    0.516474
     14          1           0        0.208801    3.172881    0.133453
     15          6           0       -1.137698   -0.056544    0.447021
     16          8           0       -1.473131   -0.638632    1.464318
     17          7           0       -1.820130   -0.175328   -0.739840
     18          1           0       -1.345045    0.151164   -1.571634
     19          6           0       -2.813644   -1.223921   -0.920196
     20          1           0       -3.360429   -1.336203    0.016908
     21          1           0       -3.507569   -0.935628   -1.715171
     22          1           0       -2.361370   -2.192839   -1.171100
 ---------------------------------------------------------------------

 The electronic state is 1-A.
 Alpha  occ. eigenvalues --  -19.10698 -19.10495 -14.36495 -14.35635 -10.28648
 Alpha  occ. eigenvalues --  -10.27750 -10.23649 -10.21338 -10.20152 -10.19412
 Alpha  occ. eigenvalues --   -1.03124  -1.02218  -0.92650  -0.91092  -0.78456
 Alpha  occ. eigenvalues --   -0.73130  -0.70362  -0.64877  -0.59332  -0.57332
 Alpha  occ. eigenvalues --   -0.51844  -0.50196  -0.47499  -0.45101  -0.44553
 Alpha  occ. eigenvalues --   -0.43783  -0.42599  -0.41856  -0.40039  -0.39362
 Alpha  occ. eigenvalues --   -0.39050  -0.38622  -0.37764  -0.35794  -0.34620
 Alpha  occ. eigenvalues --   -0.26847  -0.24837  -0.24279  -0.23494
 Alpha virt. eigenvalues --    0.02463   0.02913   0.06009   0.08442   0.11422
 Alpha virt. eigenvalues --    0.12513   0.12890   0.14326   0.15351   0.15661
 Alpha virt. eigenvalues --    0.16523   0.17727   0.17804   0.18971   0.19763

 Mulliken atomic charges:
              1
     1  H    0.188515
     2  C   -0.540532
     3  H    0.140257
     4  H    0.186109
     5  C    0.591189
     6  O   -0.483511
     7  N   -0.615892
     8  H    0.318276
     9  C   -0.024977
    10  H    0.181964
    11  C   -0.483337
    12  H    0.143495
    13  H    0.182302
    14  H    0.156258
    15  C    0.617201
    16  O   -0.495349
    17  N   -0.582182
    18  H    0.317433
    19  C   -0.305101
    20  H    0.197251
    21  H    0.148571
    22  H    0.162062
 Sum of Mulliken atomic charges =   0.00000

 Dipole moment (field-independent basis, Debye):
    X=              0.8627    Y=              3.6618    Z=             -5.1721  Tot=              6.3956
 Quadrupole moment (field-independent basis, Debye-Ang):
   XX=            -54.2273   YY=            -59.0850   ZZ=            -62.0129
   XY=              3.4201   XZ=              1.1723   YZ=              4.7494

 Normal termination of Gaussian 09 at Sat Feb 11 00:27:42 2017.
