 Gaussian 09, Revision A.02,
 Gaussian 09:  EM64L-G09RevA.02 11-Jun-2009

 ----------------------------------------------------------------------
 # b3lyp/6-31G* Opt=(ModRedundant, maxcycles=1000, calcfc) geom=nocrowd
 ----------------------------------------------------------------------

 ------------------
 Phi Psi fixed scan
 ------------------
 Symbolic Z-matrix:
 Charge =  0 Multiplicity = 1

 SCF Done:  E(RB3LYP) =  -495.839730925     A.U. after   15 cycles

  Exact polarizability:   0.000   0.000   0.000   0.000   0.000   0.000
 Approx polarizability: 112.053  -4.561 112.549 -16.079   3.357 109.238

 SCF Done:  E(RB3LYP) =  -495.842562844     A.U. after   12 cycles
 SCF Done:  E(RB3LYP) =  -495.845776857     A.U. after   12 cycles
 SCF Done:  E(RB3LYP) =  -495.846925874     A.U. after   12 cycles
 SCF Done:  E(RB3LYP) =  -495.822922374     A.U. after   13 cycles
 SCF Done:  E(RB3LYP) =  -495.846927569     A.U. after   13 cycles
 SCF Done:  E(RB3LYP) =  -495.847479310     A.U. after   12 cycles
 SCF Done:  E(RB3LYP) =  -495.847355065     A.U. after   13 cycles
 SCF Done:  E(RB3LYP) =  -495.848072499     A.U. after   12 cycles
 SCF Done:  E(RB3LYP) =  -495.847882872     A.U. after   12 cycles
 SCF Done:  E(RB3LYP) =  -495.848084067     A.U. after   12 cycles
 SCF Done:  E(RB3LYP) =  -495.848163079     A.U. after   12 cycles
 SCF Done:  E(RB3LYP) =  -495.848176143     A.U. after   11 cycles
 SCF Done:  E(RB3LYP) =  -495.848195857     A.U. after   11 cycles
 SCF Done:  E(RB3LYP) =  -495.848200415     A.U. after   10 cycles
 SCF Done:  E(RB3LYP) =  -495.848207186     A.U. after   11 cycles
 SCF Done:  E(RB3LYP) =  -495.848208046     A.U. after   10 cycles
 SCF Done:  E(RB3LYP) =  -495.848208679     A.U. after    9 cycles
 SCF Done:  E(RB3LYP) =  -495.848208733     A.U. after    7 cycles
 Optimization completed.
    -- Stationary point found.

                         Standard orientation:
 ---------------------------------------------------------------------
 Center     Atomic      Atomic             Coordinates (Angstroms)
 Number     Number       Type             X           Y           Z
 ---------------------------------------------------------------------
      1          1           0       -3.756098   -1.469737   -0.083320
      2          6           0       -3.137463   -0.792541    0.508655
      3          1           0       -2.848695   -1.311202    1.430914
      4          1           0       -3.717917    0.095275    0.779949
      5          6           0       -1.884103   -0.452300   -0.278269
      6          8           0       -1.396786   -1.204336   -1.111558
      7          7           0       -1.331186    0.782804   -0.005213
      8          1           0       -1.578030    1.182080    0.893102
      9          6           0        0.043392    1.024779   -0.419653
     10          1           0        0.081487    0.887414   -1.505352
     11          6           0        0.453756    2.457581   -0.060101
     12          1           0        0.440340    2.597864    1.027205
     13          1           0        1.468792    2.665976   -0.411266
     14          1           0       -0.231102    3.178663   -0.517630
     15          6           0        0.996558    0.015969    0.261478
     16          8           0        0.798642   -0.365065    1.408644
     17          7           0        2.110604   -0.299632   -0.460473
     18          1           0        2.085125   -0.122406   -1.455476
     19          6           0        3.089300   -1.258752    0.026965
     20          1           0        3.055983   -1.244882    1.117031
     21          1           0        2.869965   -2.278575   -0.314615
     22          1           0        4.090731   -0.975882   -0.311876
 ---------------------------------------------------------------------

 The electronic state is 1-A.
 Alpha  occ. eigenvalues --  -19.10899 -19.10866 -14.36079 -14.35233 -10.28220
 Alpha  occ. eigenvalues --  -10.28024 -10.23389 -10.21580 -10.19336 -10.18628
 Alpha  occ. eigenvalues --   -1.03357  -1.02224  -0.91826  -0.91747  -0.77915
 Alpha  occ. eigenvalues --   -0.72627  -0.70781  -0.63881  -0.58500  -0.57290
 Alpha  occ. eigenvalues --   -0.52810  -0.48286  -0.47699  -0.45758  -0.44467
 Alpha  occ. eigenvalues --   -0.43697  -0.42331  -0.41313  -0.40028  -0.39289
 Alpha  occ. eigenvalues --   -0.38873  -0.38064  -0.37469  -0.35555  -0.34354
 Alpha  occ. eigenvalues --   -0.26602  -0.25389  -0.24672  -0.23822
 Alpha virt. eigenvalues --    0.02263   0.03321   0.07562   0.08556   0.12041
 Alpha virt. eigenvalues --    0.12709   0.14167   0.15037   0.15173   0.16045
 Alpha virt. eigenvalues --    0.16443   0.17404   0.17686   0.18744   0.19837

 Mulliken atomic charges:
              1
     1  H    0.184348
     2  C   -0.548833
     3  H    0.189850
     4  H    0.155074
     5  C    0.603264
     6  O   -0.511049
     7  N   -0.570456
     8  H    0.324964
     9  C   -0.045297
    10  H    0.156891
    11  C   -0.467100
    12  H    0.162241
    13  H    0.160053
    14  H    0.164746
    15  C    0.626786
    16  O   -0.535253
    17  N   -0.588301
    18  H    0.328488
    19  C   -0.307728
    20  H    0.198013
    21  H    0.166733
    22  H    0.152567
 Sum of Mulliken atomic charges =   0.00000

 Dipole moment (field-independent basis, Debye):
    X=              0.9748    Y=              2.3584    Z=             -0.5193  Tot=              2.6042
 Quadrupole moment (field-independent basis, Debye-Ang):
   XX=            -49.7466   YY=            -59.4893   ZZ=            -62.5826
   XY=             -3.0440   XZ=             -8.4399   YZ=             -0.9521

 Normal termination of Gaussian 09 at Sat Feb 11 00:21:37 2017.
