 Gaussian 09, Revision A.02,
 Gaussian 09:  EM64L-G09RevA.02 11-Jun-2009

 ----------------------------------------------------------------------
 # b3lyp/6-31G* Opt=(ModRedundant, maxcycles=1000, calcfc) geom=nocrowd
 ----------------------------------------------------------------------

 ------------------
 Phi Psi fixed scan
 ------------------
 Symbolic Z-matrix:
 Charge =  0 Multiplicity = 1

 SCF Done:  E(RB3LYP) =  -495.841538980     A.U. after   15 cycles

  Exact polarizability:   0.000   0.000   0.000   0.000   0.000   0.000
 Approx polarizability: 108.855  -9.134 112.995 -13.641   8.289 112.292

 SCF Done:  E(RB3LYP) =  -495.844030985     A.U. after   11 cycles
 SCF Done:  E(RB3LYP) =  -495.846891166     A.U. after   12 cycles
 SCF Done:  E(RB3LYP) =  -495.847937783     A.U. after   12 cycles
 SCF Done:  E(RB3LYP) =  -495.832822694     A.U. after   13 cycles
 SCF Done:  E(RB3LYP) =  -495.838927694     A.U. after   12 cycles
 SCF Done:  E(RB3LYP) =  -495.842909583     A.U. after   12 cycles
 SCF Done:  E(RB3LYP) =  -495.845419412     A.U. after   12 cycles
 SCF Done:  E(RB3LYP) =  -495.844977834     A.U. after   12 cycles
 SCF Done:  E(RB3LYP) =  -495.846610088     A.U. after   12 cycles
 SCF Done:  E(RB3LYP) =  -495.848707306     A.U. after   13 cycles
 SCF Done:  E(RB3LYP) =  -495.848824982     A.U. after   12 cycles
 SCF Done:  E(RB3LYP) =  -495.848986712     A.U. after   12 cycles
 SCF Done:  E(RB3LYP) =  -495.848978403     A.U. after   11 cycles
 SCF Done:  E(RB3LYP) =  -495.849001046     A.U. after   11 cycles
 SCF Done:  E(RB3LYP) =  -495.849003004     A.U. after    8 cycles
 SCF Done:  E(RB3LYP) =  -495.849003672     A.U. after    8 cycles
 SCF Done:  E(RB3LYP) =  -495.849004616     A.U. after    9 cycles
 SCF Done:  E(RB3LYP) =  -495.849005023     A.U. after    8 cycles
 SCF Done:  E(RB3LYP) =  -495.849005068     A.U. after    6 cycles
 Optimization completed.
    -- Stationary point found.

                         Standard orientation:
 ---------------------------------------------------------------------
 Center     Atomic      Atomic             Coordinates (Angstroms)
 Number     Number       Type             X           Y           Z
 ---------------------------------------------------------------------
      1          1           0       -3.708867   -1.535621   -0.068019
      2          6           0       -3.105128   -0.851576    0.532178
      3          1           0       -2.846476   -1.362467    1.467340
      4          1           0       -3.692901    0.039324    0.775060
      5          6           0       -1.828416   -0.528178   -0.224547
      6          8           0       -1.269350   -1.335537   -0.957718
      7          7           0       -1.337547    0.744618   -0.047455
      8          1           0       -1.650185    1.242951    0.776918
      9          6           0        0.024201    1.035658   -0.482294
     10          1           0        0.069270    0.833253   -1.557444
     11          6           0        0.353892    2.506698   -0.214750
     12          1           0        0.346627    2.705393    0.862774
     13          1           0        1.351600    2.748198   -0.593993
     14          1           0       -0.373985    3.160671   -0.705944
     15          6           0        1.030060    0.134168    0.266584
     16          8           0        0.995799    0.038456    1.487793
     17          7           0        1.995124   -0.433078   -0.512742
     18          1           0        1.777728   -0.538800   -1.494750
     19          6           0        2.967536   -1.354735    0.055125
     20          1           0        3.218559   -1.009641    1.059100
     21          1           0        2.571918   -2.376019    0.129897
     22          1           0        3.869206   -1.363595   -0.563934
 ---------------------------------------------------------------------

 The electronic state is 1-A.
 Alpha  occ. eigenvalues --  -19.11086 -19.10788 -14.35806 -14.35624 -10.28520
 Alpha  occ. eigenvalues --  -10.27848 -10.23403 -10.21373 -10.19109 -10.18952
 Alpha  occ. eigenvalues --   -1.03387  -1.02291  -0.91974  -0.91586  -0.77947
 Alpha  occ. eigenvalues --   -0.72790  -0.70692  -0.63800  -0.58574  -0.57280
 Alpha  occ. eigenvalues --   -0.52711  -0.48566  -0.47876  -0.45937  -0.44299
 Alpha  occ. eigenvalues --   -0.43743  -0.42102  -0.41351  -0.39972  -0.39419
 Alpha  occ. eigenvalues --   -0.38757  -0.38084  -0.37209  -0.35633  -0.34552
 Alpha  occ. eigenvalues --   -0.26822  -0.25478  -0.24837  -0.23612
 Alpha virt. eigenvalues --    0.02086   0.03214   0.07981   0.08502   0.11977
 Alpha virt. eigenvalues --    0.12756   0.13789   0.15040   0.15351   0.16139
 Alpha virt. eigenvalues --    0.16435   0.17737   0.18031   0.18843   0.20112

 Mulliken atomic charges:
              1
     1  H    0.185591
     2  C   -0.545500
     3  H    0.188972
     4  H    0.153548
     5  C    0.602741
     6  O   -0.517785
     7  N   -0.573542
     8  H    0.327555
     9  C   -0.034192
    10  H    0.151034
    11  C   -0.474539
    12  H    0.168245
    13  H    0.163323
    14  H    0.160526
    15  C    0.622120
    16  O   -0.536761
    17  N   -0.582514
    18  H    0.334669
    19  C   -0.306623
    20  H    0.193101
    21  H    0.168262
    22  H    0.151767
 Sum of Mulliken atomic charges =   0.00000

 Dipole moment (field-independent basis, Debye):
    X=              0.0564    Y=              1.7349    Z=             -0.9143  Tot=              1.9618
 Quadrupole moment (field-independent basis, Debye-Ang):
   XX=            -50.8633   YY=            -58.8680   ZZ=            -62.7761
   XY=             -4.2113   XZ=             -8.0243   YZ=             -1.4397

 Normal termination of Gaussian 09 at Sat Feb 11 00:30:55 2017.
