 Gaussian 09, Revision A.02,
 Gaussian 09:  EM64L-G09RevA.02 11-Jun-2009

 ----------------------------------------------------------------------
 # b3lyp/6-31G* Opt=(ModRedundant, maxcycles=1000, calcfc) geom=nocrowd
 ----------------------------------------------------------------------

 ------------------
 Phi Psi fixed scan
 ------------------
 Symbolic Z-matrix:
 Charge =  0 Multiplicity = 1

 SCF Done:  E(RB3LYP) =  -495.813381456     A.U. after   15 cycles

  Exact polarizability:   0.000   0.000   0.000   0.000   0.000   0.000
 Approx polarizability: 122.866 -11.403 124.838  -1.876  -8.617  92.157

 SCF Done:  E(RB3LYP) =  -495.824463531     A.U. after   12 cycles
 SCF Done:  E(RB3LYP) =  -495.838352014     A.U. after   16 cycles
 SCF Done:  E(RB3LYP) =  -495.843981340     A.U. after   13 cycles
 SCF Done:  E(RB3LYP) =  -495.846309159     A.U. after   12 cycles
 SCF Done:  E(RB3LYP) =  -495.847337335     A.U. after   14 cycles
 SCF Done:  E(RB3LYP) =  -495.848315173     A.U. after   16 cycles
 SCF Done:  E(RB3LYP) =  -495.849420290     A.U. after   14 cycles
 SCF Done:  E(RB3LYP) =  -495.848847050     A.U. after   12 cycles
 SCF Done:  E(RB3LYP) =  -495.849609352     A.U. after   12 cycles
 SCF Done:  E(RB3LYP) =  -495.849886766     A.U. after   11 cycles
 SCF Done:  E(RB3LYP) =  -495.849918404     A.U. after   11 cycles
 SCF Done:  E(RB3LYP) =  -495.849931764     A.U. after   10 cycles
 SCF Done:  E(RB3LYP) =  -495.849935022     A.U. after    9 cycles
 SCF Done:  E(RB3LYP) =  -495.849935940     A.U. after    8 cycles
 SCF Done:  E(RB3LYP) =  -495.849938343     A.U. after   10 cycles
 SCF Done:  E(RB3LYP) =  -495.849941210     A.U. after   10 cycles
 SCF Done:  E(RB3LYP) =  -495.849943086     A.U. after   10 cycles
 SCF Done:  E(RB3LYP) =  -495.849943813     A.U. after    9 cycles
 SCF Done:  E(RB3LYP) =  -495.849943908     A.U. after    8 cycles
 Optimization completed.
    -- Stationary point found.

                         Standard orientation:
 ---------------------------------------------------------------------
 Center     Atomic      Atomic             Coordinates (Angstroms)
 Number     Number       Type             X           Y           Z
 ---------------------------------------------------------------------
      1          1           0        3.988775   -0.654723    0.180859
      2          6           0        3.217402   -0.454196   -0.568096
      3          1           0        3.195066   -1.310870   -1.249733
      4          1           0        3.492055    0.441828   -1.132784
      5          6           0        1.874588   -0.354434    0.138554
      6          8           0        1.495510   -1.241187    0.908085
      7          7           0        1.155894    0.769465   -0.120905
      8          1           0        1.513135    1.376240   -0.846625
      9          6           0       -0.181642    1.129442    0.381638
     10          1           0       -0.114752    1.109614    1.479754
     11          6           0       -0.494744    2.558064   -0.061439
     12          1           0       -0.522195    2.630031   -1.155673
     13          1           0       -1.478474    2.846523    0.308154
     14          1           0        0.258959    3.253577    0.322512
     15          6           0       -1.374439    0.185027    0.043918
     16          8           0       -2.502279    0.660284   -0.060878
     17          7           0       -1.106508   -1.133978   -0.113417
     18          1           0       -0.224014   -1.475839    0.264462
     19          6           0       -2.199981   -2.074335   -0.304871
     20          1           0       -2.863134   -1.709517   -1.092567
     21          1           0       -1.784545   -3.041258   -0.599783
     22          1           0       -2.799531   -2.204200    0.605795
 ---------------------------------------------------------------------

 The electronic state is 1-A.
 Alpha  occ. eigenvalues --  -19.12458 -19.10316 -14.37728 -14.34139 -10.30315
 Alpha  occ. eigenvalues --  -10.27612 -10.24274 -10.20677 -10.20360 -10.18788
 Alpha  occ. eigenvalues --   -1.04431  -1.02136  -0.93598  -0.90397  -0.78643
 Alpha  occ. eigenvalues --   -0.73634  -0.70295  -0.64163  -0.60203  -0.56575
 Alpha  occ. eigenvalues --   -0.52849  -0.50085  -0.48654  -0.45755  -0.45165
 Alpha  occ. eigenvalues --   -0.43282  -0.42091  -0.41690  -0.41136  -0.39289
 Alpha  occ. eigenvalues --   -0.38562  -0.38279  -0.37306  -0.36385  -0.34600
 Alpha  occ. eigenvalues --   -0.28154  -0.26472  -0.24491  -0.23240
 Alpha virt. eigenvalues --    0.00876   0.03430   0.06430   0.10933   0.11639
 Alpha virt. eigenvalues --    0.12860   0.13923   0.14494   0.15644   0.16038
 Alpha virt. eigenvalues --    0.16675   0.17434   0.18389   0.18702   0.20957

 Mulliken atomic charges:
              1
     1  H    0.193052
     2  C   -0.533976
     3  H    0.188317
     4  H    0.148674
     5  C    0.603240
     6  O   -0.535280
     7  N   -0.596824
     8  H    0.331574
     9  C   -0.037504
    10  H    0.184553
    11  C   -0.477405
    12  H    0.152051
    13  H    0.199419
    14  H    0.146689
    15  C    0.599872
    16  O   -0.524946
    17  N   -0.614231
    18  H    0.379254
    19  C   -0.296968
    20  H    0.179114
    21  H    0.149635
    22  H    0.161690
 Sum of Mulliken atomic charges =   0.00000

 Dipole moment (field-independent basis, Debye):
    X=              3.3579    Y=              0.8309    Z=             -1.6687  Tot=              3.8406
 Quadrupole moment (field-independent basis, Debye-Ang):
   XX=            -62.8684   YY=            -56.6790   ZZ=            -59.9644
   XY=              7.4477   XZ=             -4.5521   YZ=              1.9247

 Normal termination of Gaussian 09 at Sat Feb 11 00:29:09 2017.
