 Gaussian 09, Revision A.02,
 Gaussian 09:  EM64L-G09RevA.02 11-Jun-2009

 ----------------------------------------------------------------------
 # b3lyp/6-31G* Opt=(ModRedundant, maxcycles=1000, calcfc) geom=nocrowd
 ----------------------------------------------------------------------

 ------------------
 Phi Psi fixed scan
 ------------------
 Symbolic Z-matrix:
 Charge =  0 Multiplicity = 1

 SCF Done:  E(RB3LYP) =  -495.807488600     A.U. after   16 cycles

  Exact polarizability:   0.000   0.000   0.000   0.000   0.000   0.000
 Approx polarizability: 119.010  11.438 126.241   0.697  12.629  93.050

 SCF Done:  E(RB3LYP) =  -495.816684758     A.U. after   14 cycles
 SCF Done:  E(RB3LYP) =  -495.827175622     A.U. after   15 cycles
 SCF Done:  E(RB3LYP) =  -495.830725943     A.U. after   13 cycles
 SCF Done:  E(RB3LYP) =  -495.831418377     A.U. after   15 cycles
 SCF Done:  E(RB3LYP) =  -495.832927114     A.U. after   12 cycles
 SCF Done:  E(RB3LYP) =  -495.834211303     A.U. after   13 cycles
 SCF Done:  E(RB3LYP) =  -495.835082314     A.U. after   13 cycles
 SCF Done:  E(RB3LYP) =  -495.835643784     A.U. after   13 cycles
 SCF Done:  E(RB3LYP) =  -495.827184707     A.U. after   14 cycles
 SCF Done:  E(RB3LYP) =  -495.835764806     A.U. after   14 cycles
 SCF Done:  E(RB3LYP) =  -495.835777592     A.U. after   16 cycles
 SCF Done:  E(RB3LYP) =  -495.835879886     A.U. after   16 cycles
 SCF Done:  E(RB3LYP) =  -495.835906190     A.U. after   10 cycles
 SCF Done:  E(RB3LYP) =  -495.835921864     A.U. after   10 cycles
 SCF Done:  E(RB3LYP) =  -495.835925593     A.U. after   10 cycles
 SCF Done:  E(RB3LYP) =  -495.835927164     A.U. after    9 cycles
 SCF Done:  E(RB3LYP) =  -495.835927461     A.U. after    7 cycles
 SCF Done:  E(RB3LYP) =  -495.835927544     A.U. after    7 cycles
 Optimization completed.
    -- Stationary point found.

                         Standard orientation:
 ---------------------------------------------------------------------
 Center     Atomic      Atomic             Coordinates (Angstroms)
 Number     Number       Type             X           Y           Z
 ---------------------------------------------------------------------
      1          1           0       -3.770037   -1.265634    0.569072
      2          6           0       -2.884932   -0.797622    1.002740
      3          1           0       -2.288143   -1.571922    1.500209
      4          1           0       -3.189377   -0.062012    1.756173
      5          6           0       -2.054261   -0.179565   -0.109241
      6          8           0       -2.172554   -0.491318   -1.278780
      7          7           0       -1.195884    0.846389    0.306995
      8          1           0       -1.110757    0.893512    1.319330
      9          6           0        0.101986    1.017951   -0.350264
     10          1           0       -0.122018    1.075207   -1.422539
     11          6           0        0.727982    2.342145    0.094706
     12          1           0        1.014173    2.324983    1.154029
     13          1           0        1.614953    2.592127   -0.498810
     14          1           0        0.003274    3.148797   -0.046364
     15          6           0        0.976354   -0.261798   -0.197892
     16          8           0        0.495803   -1.380481   -0.310984
     17          7           0        2.284685   -0.059040    0.149717
     18          1           0        2.648512    0.881237    0.163128
     19          6           0        3.232107   -1.157013    0.255048
     20          1           0        2.657995   -2.079291    0.350012
     21          1           0        3.873294   -1.231624   -0.632729
     22          1           0        3.865112   -1.027017    1.139036
 ---------------------------------------------------------------------

 The electronic state is 1-A.
 Alpha  occ. eigenvalues --  -19.11115 -19.10066 -14.36722 -14.34931 -10.28646
 Alpha  occ. eigenvalues --  -10.27713 -10.23772 -10.22104 -10.20192 -10.18209
 Alpha  occ. eigenvalues --   -1.03510  -1.01758  -0.92304  -0.91432  -0.78052
 Alpha  occ. eigenvalues --   -0.72424  -0.70890  -0.64866  -0.58674  -0.57117
 Alpha  occ. eigenvalues --   -0.53123  -0.47694  -0.47091  -0.45981  -0.44934
 Alpha  occ. eigenvalues --   -0.43649  -0.42884  -0.41773  -0.39935  -0.39378
 Alpha  occ. eigenvalues --   -0.39028  -0.38598  -0.37731  -0.35307  -0.34016
 Alpha  occ. eigenvalues --   -0.27297  -0.25555  -0.24277  -0.22804
 Alpha virt. eigenvalues --    0.01455   0.04116   0.06659   0.08801   0.11288
 Alpha virt. eigenvalues --    0.12978   0.13561   0.14143   0.14995   0.15853
 Alpha virt. eigenvalues --    0.16263   0.16485   0.17968   0.18563   0.19726

 Mulliken atomic charges:
              1
     1  H    0.184703
     2  C   -0.552906
     3  H    0.185912
     4  H    0.151676
     5  C    0.611902
     6  O   -0.483424
     7  N   -0.576000
     8  H    0.305933
     9  C   -0.053318
    10  H    0.197876
    11  C   -0.492655
    12  H    0.150313
    13  H    0.151468
    14  H    0.181593
    15  C    0.595007
    16  O   -0.499719
    17  N   -0.596454
    18  H    0.327828
    19  C   -0.310775
    20  H    0.205553
    21  H    0.161097
    22  H    0.154390
 Sum of Mulliken atomic charges =   0.00000

 Dipole moment (field-independent basis, Debye):
    X=              3.6750    Y=              3.0855    Z=              3.4369  Tot=              5.9024
 Quadrupole moment (field-independent basis, Debye-Ang):
   XX=            -52.8195   YY=            -60.5731   ZZ=            -60.9482
   XY=              1.0358   XZ=             -6.5742   YZ=             -2.5923

 Normal termination of Gaussian 09 at Sat Feb 11 00:33:27 2017.
