 Gaussian 09, Revision A.02,
 Gaussian 09:  EM64L-G09RevA.02 11-Jun-2009

 ----------------------------------------------------------------------
 # b3lyp/6-31G* Opt=(ModRedundant, maxcycles=1000, calcfc) geom=nocrowd
 ----------------------------------------------------------------------

 ------------------
 Phi Psi fixed scan
 ------------------
 Symbolic Z-matrix:
 Charge =  0 Multiplicity = 1

 SCF Done:  E(RB3LYP) =  -495.813754350     A.U. after   15 cycles

  Exact polarizability:   0.000   0.000   0.000   0.000   0.000   0.000
 Approx polarizability: 121.215 -10.390 128.423   2.181 -11.723  91.049

 SCF Done:  E(RB3LYP) =  -495.825035962     A.U. after   12 cycles
 SCF Done:  E(RB3LYP) =  -495.839511648     A.U. after   13 cycles
 SCF Done:  E(RB3LYP) =  -495.845714395     A.U. after   16 cycles
 SCF Done:  E(RB3LYP) =  -495.847694292     A.U. after   12 cycles
 SCF Done:  E(RB3LYP) =  -495.848989999     A.U. after   14 cycles
 SCF Done:  E(RB3LYP) =  -495.849247113     A.U. after   14 cycles
 SCF Done:  E(RB3LYP) =  -495.816588322     A.U. after   16 cycles
 SCF Done:  E(RB3LYP) =  -495.849443994     A.U. after   16 cycles
 SCF Done:  E(RB3LYP) =  -495.849953815     A.U. after   16 cycles
 SCF Done:  E(RB3LYP) =  -495.850864192     A.U. after   11 cycles
 SCF Done:  E(RB3LYP) =  -495.850873592     A.U. after   11 cycles
 SCF Done:  E(RB3LYP) =  -495.850860863     A.U. after   11 cycles
 SCF Done:  E(RB3LYP) =  -495.850879129     A.U. after   11 cycles
 SCF Done:  E(RB3LYP) =  -495.850889869     A.U. after   11 cycles
 SCF Done:  E(RB3LYP) =  -495.850890774     A.U. after    9 cycles
 SCF Done:  E(RB3LYP) =  -495.850891049     A.U. after    9 cycles
 SCF Done:  E(RB3LYP) =  -495.850891225     A.U. after    9 cycles
 SCF Done:  E(RB3LYP) =  -495.850891293     A.U. after    7 cycles
 SCF Done:  E(RB3LYP) =  -495.850891317     A.U. after    6 cycles
 Optimization completed.
    -- Stationary point found.

                         Standard orientation:
 ---------------------------------------------------------------------
 Center     Atomic      Atomic             Coordinates (Angstroms)
 Number     Number       Type             X           Y           Z
 ---------------------------------------------------------------------
      1          1           0        3.963803   -0.747559    0.045410
      2          6           0        3.170996   -0.474132   -0.656244
      3          1           0        3.085778   -1.287098   -1.385216
      4          1           0        3.456845    0.442786   -1.180408
      5          6           0        1.863437   -0.365046    0.112080
      6          8           0        1.505205   -1.261117    0.880808
      7          7           0        1.162545    0.784263   -0.082379
      8          1           0        1.493560    1.390047   -0.821973
      9          6           0       -0.179912    1.120540    0.428156
     10          1           0       -0.121351    1.024965    1.522385
     11          6           0       -0.481414    2.574521    0.074496
     12          1           0       -0.528362    2.710508   -1.012255
     13          1           0       -1.454732    2.859370    0.474419
     14          1           0        0.288582    3.234738    0.487307
     15          6           0       -1.358359    0.195038   -0.004355
     16          8           0       -2.428777    0.688866   -0.351614
     17          7           0       -1.142076   -1.138526    0.055887
     18          1           0       -0.276124   -1.466136    0.481625
     19          6           0       -2.213492   -2.075055   -0.237712
     20          1           0       -2.727980   -1.774418   -1.153955
     21          1           0       -1.784044   -3.071022   -0.371981
     22          1           0       -2.958216   -2.113529    0.568015
 ---------------------------------------------------------------------

 The electronic state is 1-A.
 Alpha  occ. eigenvalues --  -19.12539 -19.10197 -14.37716 -14.34097 -10.30325
 Alpha  occ. eigenvalues --  -10.27490 -10.24190 -10.20739 -10.20333 -10.18688
 Alpha  occ. eigenvalues --   -1.04437  -1.01996  -0.93572  -0.90366  -0.78594
 Alpha  occ. eigenvalues --   -0.73596  -0.70409  -0.64034  -0.60125  -0.56618
 Alpha  occ. eigenvalues --   -0.52887  -0.49974  -0.48692  -0.45670  -0.45162
 Alpha  occ. eigenvalues --   -0.43469  -0.42005  -0.41646  -0.41202  -0.39204
 Alpha  occ. eigenvalues --   -0.38540  -0.37936  -0.37300  -0.36416  -0.34827
 Alpha  occ. eigenvalues --   -0.28293  -0.26396  -0.24148  -0.23287
 Alpha virt. eigenvalues --    0.00853   0.03444   0.06609   0.10737   0.11741
 Alpha virt. eigenvalues --    0.12854   0.13993   0.14590   0.15569   0.15964
 Alpha virt. eigenvalues --    0.16727   0.17344   0.18325   0.18739   0.21366

 Mulliken atomic charges:
              1
     1  H    0.193009
     2  C   -0.534337
     3  H    0.188402
     4  H    0.149670
     5  C    0.606872
     6  O   -0.535747
     7  N   -0.593710
     8  H    0.330647
     9  C   -0.045053
    10  H    0.180548
    11  C   -0.469160
    12  H    0.155689
    13  H    0.191461
    14  H    0.145984
    15  C    0.597927
    16  O   -0.525920
    17  N   -0.613600
    18  H    0.382001
    19  C   -0.295365
    20  H    0.178277
    21  H    0.150676
    22  H    0.161727
 Sum of Mulliken atomic charges =   0.00000

 Dipole moment (field-independent basis, Debye):
    X=              3.1748    Y=              0.7132    Z=             -1.2140  Tot=              3.4730
 Quadrupole moment (field-independent basis, Debye-Ang):
   XX=            -62.7226   YY=            -56.9046   ZZ=            -59.8592
   XY=              7.5236   XZ=             -6.1800   YZ=              2.2681

 Normal termination of Gaussian 09 at Sat Feb 11 00:38:23 2017.
