 Gaussian 09, Revision A.02,
 Gaussian 09:  EM64L-G09RevA.02 11-Jun-2009

 ----------------------------------------------------------------------
 # b3lyp/6-31G* Opt=(ModRedundant, maxcycles=1000, calcfc) geom=nocrowd
 ----------------------------------------------------------------------

 ------------------
 Phi Psi fixed scan
 ------------------
 Symbolic Z-matrix:
 Charge =  0 Multiplicity = 1

 SCF Done:  E(RB3LYP) =  -495.808702433     A.U. after   16 cycles

  Exact polarizability:   0.000   0.000   0.000   0.000   0.000   0.000
 Approx polarizability: 115.413  10.356 125.872   4.760  17.305  96.807

 SCF Done:  E(RB3LYP) =  -495.817267521     A.U. after   14 cycles
 SCF Done:  E(RB3LYP) =  -495.826627729     A.U. after   16 cycles
 SCF Done:  E(RB3LYP) =  -495.829989548     A.U. after   14 cycles
 SCF Done:  E(RB3LYP) =  -495.830479204     A.U. after   16 cycles
 SCF Done:  E(RB3LYP) =  -495.831853662     A.U. after   12 cycles
 SCF Done:  E(RB3LYP) =  -495.833063531     A.U. after   13 cycles
 SCF Done:  E(RB3LYP) =  -495.833574325     A.U. after   13 cycles
 SCF Done:  E(RB3LYP) =  -495.832787145     A.U. after   16 cycles
 SCF Done:  E(RB3LYP) =  -495.833882864     A.U. after   13 cycles
 SCF Done:  E(RB3LYP) =  -495.834058640     A.U. after   12 cycles
 SCF Done:  E(RB3LYP) =  -495.833017160     A.U. after   13 cycles
 SCF Done:  E(RB3LYP) =  -495.834206407     A.U. after   13 cycles
 SCF Done:  E(RB3LYP) =  -495.834103720     A.U. after   12 cycles
 SCF Done:  E(RB3LYP) =  -495.834197354     A.U. after   12 cycles
 SCF Done:  E(RB3LYP) =  -495.834239936     A.U. after   12 cycles
 SCF Done:  E(RB3LYP) =  -495.834248507     A.U. after   10 cycles
 SCF Done:  E(RB3LYP) =  -495.834252706     A.U. after   10 cycles
 SCF Done:  E(RB3LYP) =  -495.834253255     A.U. after    8 cycles
 SCF Done:  E(RB3LYP) =  -495.834253354     A.U. after    7 cycles
 Optimization completed.
    -- Stationary point found.

                         Standard orientation:
 ---------------------------------------------------------------------
 Center     Atomic      Atomic             Coordinates (Angstroms)
 Number     Number       Type             X           Y           Z
 ---------------------------------------------------------------------
      1          1           0       -3.784989   -1.207968    0.719985
      2          6           0       -2.877981   -0.745762    1.112600
      3          1           0       -2.297145   -1.513882    1.638316
      4          1           0       -3.146466    0.033106    1.835542
      5          6           0       -2.058488   -0.203741   -0.049605
      6          8           0       -2.210944   -0.577462   -1.196233
      7          7           0       -1.173045    0.819639    0.299534
      8          1           0       -1.063853    0.919282    1.305222
      9          6           0        0.098255    1.008456   -0.411121
     10          1           0       -0.166773    1.049959   -1.473586
     11          6           0        0.710045    2.349349   -0.001923
     12          1           0        0.966571    2.377662    1.065870
     13          1           0        1.613509    2.569628   -0.581097
     14          1           0       -0.010800    3.150404   -0.188270
     15          6           0        1.005068   -0.250714   -0.301304
     16          8           0        0.620234   -1.346676   -0.679842
     17          7           0        2.225617   -0.063166    0.292716
     18          1           0        2.517753    0.871237    0.533714
     19          6           0        3.194669   -1.138237    0.424614
     20          1           0        2.688463   -2.066888    0.158536
     21          1           0        4.051199   -0.995334   -0.246176
     22          1           0        3.560806   -1.205513    1.455222
 ---------------------------------------------------------------------

 The electronic state is 1-A.
 Alpha  occ. eigenvalues --  -19.10823 -19.10283 -14.36592 -14.35312 -10.28485
 Alpha  occ. eigenvalues --  -10.27922 -10.23775 -10.22002 -10.20264 -10.18532
 Alpha  occ. eigenvalues --   -1.03295  -1.01943  -0.92236  -0.91557  -0.78206
 Alpha  occ. eigenvalues --   -0.72601  -0.70851  -0.65001  -0.58596  -0.57440
 Alpha  occ. eigenvalues --   -0.53081  -0.48041  -0.47085  -0.45988  -0.44776
 Alpha  occ. eigenvalues --   -0.43678  -0.42942  -0.41853  -0.39981  -0.39518
 Alpha  occ. eigenvalues --   -0.38936  -0.38721  -0.37638  -0.35383  -0.34358
 Alpha  occ. eigenvalues --   -0.27416  -0.25422  -0.24380  -0.22581
 Alpha virt. eigenvalues --    0.01388   0.04065   0.06629   0.08740   0.11228
 Alpha virt. eigenvalues --    0.12885   0.13301   0.14174   0.14817   0.15907
 Alpha virt. eigenvalues --    0.16126   0.16455   0.18031   0.18118   0.19546

 Mulliken atomic charges:
              1
     1  H    0.187169
     2  C   -0.551256
     3  H    0.180707
     4  H    0.153154
     5  C    0.602487
     6  O   -0.473543
     7  N   -0.581333
     8  H    0.305659
     9  C   -0.038345
    10  H    0.196591
    11  C   -0.495230
    12  H    0.142696
    13  H    0.158995
    14  H    0.181240
    15  C    0.588590
    16  O   -0.494286
    17  N   -0.599271
    18  H    0.327473
    19  C   -0.312580
    20  H    0.207807
    21  H    0.158903
    22  H    0.154372
 Sum of Mulliken atomic charges =   0.00000

 Dipole moment (field-independent basis, Debye):
    X=              3.3541    Y=              3.3040    Z=              4.1637  Tot=              6.2851
 Quadrupole moment (field-independent basis, Debye-Ang):
   XX=            -53.8109   YY=            -60.4688   ZZ=            -60.8490
   XY=              0.7804   XZ=             -5.1890   YZ=             -3.4901

 Normal termination of Gaussian 09 at Sat Feb 11 00:23:32 2017.
