 Gaussian 09, Revision A.02,
 Gaussian 09:  EM64L-G09RevA.02 11-Jun-2009

 ----------------------------------------------------------------------
 # b3lyp/6-31G* Opt=(ModRedundant, maxcycles=1000, calcfc) geom=nocrowd
 ----------------------------------------------------------------------

 ------------------
 Phi Psi fixed scan
 ------------------
 Symbolic Z-matrix:
 Charge =  0 Multiplicity = 1

 SCF Done:  E(RB3LYP) =  -495.836993425     A.U. after   15 cycles

  Exact polarizability:   0.000   0.000   0.000   0.000   0.000   0.000
 Approx polarizability: 101.529   0.720 105.371 -10.960  -6.070 128.369

 SCF Done:  E(RB3LYP) =  -495.840407208     A.U. after   12 cycles
 SCF Done:  E(RB3LYP) =  -495.844222205     A.U. after   13 cycles
 SCF Done:  E(RB3LYP) =  -495.845150531     A.U. after   14 cycles
 SCF Done:  E(RB3LYP) =  -495.842611856     A.U. after   13 cycles
 SCF Done:  E(RB3LYP) =  -495.845167550     A.U. after   13 cycles
 SCF Done:  E(RB3LYP) =  -495.845356604     A.U. after   12 cycles
 SCF Done:  E(RB3LYP) =  -495.844284852     A.U. after   13 cycles
 SCF Done:  E(RB3LYP) =  -495.845473709     A.U. after   13 cycles
 SCF Done:  E(RB3LYP) =  -495.845533092     A.U. after   11 cycles
 SCF Done:  E(RB3LYP) =  -495.845546963     A.U. after   11 cycles
 SCF Done:  E(RB3LYP) =  -495.845557688     A.U. after   11 cycles
 SCF Done:  E(RB3LYP) =  -495.845565037     A.U. after   10 cycles
 SCF Done:  E(RB3LYP) =  -495.845570512     A.U. after   10 cycles
 SCF Done:  E(RB3LYP) =  -495.845574013     A.U. after   10 cycles
 SCF Done:  E(RB3LYP) =  -495.845576272     A.U. after   10 cycles
 SCF Done:  E(RB3LYP) =  -495.845576636     A.U. after    9 cycles
 Optimization completed.
    -- Stationary point found.

                         Standard orientation:
 ---------------------------------------------------------------------
 Center     Atomic      Atomic             Coordinates (Angstroms)
 Number     Number       Type             X           Y           Z
 ---------------------------------------------------------------------
      1          1           0        3.325214   -1.744498   -0.540975
      2          6           0        3.195172   -0.665023   -0.432262
      3          1           0        3.336866   -0.183402   -1.405331
      4          1           0        3.974373   -0.307253    0.250279
      5          6           0        1.830974   -0.396158    0.187270
      6          8           0        1.378421   -1.070549    1.100488
      7          7           0        1.134313    0.660138   -0.350914
      8          1           0        1.614747    1.268545   -1.000797
      9          6           0       -0.084516    1.175285    0.276667
     10          1           0        0.127505    1.445768    1.317300
     11          6           0       -0.583505    2.407212   -0.483906
     12          1           0       -0.817243    2.162935   -1.526033
     13          1           0       -1.492670    2.785832   -0.009039
     14          1           0        0.166337    3.207560   -0.468085
     15          6           0       -1.205233    0.119310    0.384869
     16          8           0       -1.942778    0.097448    1.358652
     17          7           0       -1.406579   -0.626918   -0.743255
     18          1           0       -0.629195   -0.675532   -1.388803
     19          6           0       -2.370375   -1.715146   -0.760276
     20          1           0       -3.179925   -1.455899   -0.076664
     21          1           0       -2.772371   -1.840514   -1.770467
     22          1           0       -1.928022   -2.664157   -0.429488
 ---------------------------------------------------------------------

 The electronic state is 1-A.
 Alpha  occ. eigenvalues --  -19.11650 -19.10140 -14.36985 -14.35149 -10.29377
 Alpha  occ. eigenvalues --  -10.27540 -10.23532 -10.20983 -10.19997 -10.19744
 Alpha  occ. eigenvalues --   -1.03827  -1.02039  -0.93139  -0.90785  -0.78493
 Alpha  occ. eigenvalues --   -0.73556  -0.70319  -0.64517  -0.59630  -0.57024
 Alpha  occ. eigenvalues --   -0.51879  -0.50458  -0.48098  -0.45270  -0.44907
 Alpha  occ. eigenvalues --   -0.43398  -0.42549  -0.41877  -0.40502  -0.39281
 Alpha  occ. eigenvalues --   -0.38918  -0.38673  -0.37793  -0.35984  -0.34426
 Alpha  occ. eigenvalues --   -0.27145  -0.25389  -0.24589  -0.23503
 Alpha virt. eigenvalues --    0.01901   0.03348   0.06177   0.09784   0.11245
 Alpha virt. eigenvalues --    0.12326   0.13642   0.14519   0.14953   0.15626
 Alpha virt. eigenvalues --    0.16645   0.17502   0.17678   0.18593   0.19431

 Mulliken atomic charges:
              1
     1  H    0.189786
     2  C   -0.542915
     3  H    0.145660
     4  H    0.188078
     5  C    0.587896
     6  O   -0.487118
     7  N   -0.624956
     8  H    0.322819
     9  C   -0.012502
    10  H    0.178786
    11  C   -0.484446
    12  H    0.155337
    13  H    0.186903
    14  H    0.150936
    15  C    0.619043
    16  O   -0.518435
    17  N   -0.581075
    18  H    0.324010
    19  C   -0.307097
    20  H    0.196890
    21  H    0.147967
    22  H    0.164433
 Sum of Mulliken atomic charges =   0.00000

 Dipole moment (field-independent basis, Debye):
    X=              2.6905    Y=              1.7628    Z=             -5.0901  Tot=              6.0212
 Quadrupole moment (field-independent basis, Debye-Ang):
   XX=            -56.9564   YY=            -55.8466   ZZ=            -63.8494
   XY=              4.3869   XZ=              1.5663   YZ=              3.0963

 Normal termination of Gaussian 09 at Sat Feb 11 00:30:08 2017.
