 Gaussian 09, Revision A.02,
 Gaussian 09:  EM64L-G09RevA.02 11-Jun-2009

 ----------------------------------------------------------------------
 # b3lyp/6-31G* Opt=(ModRedundant, maxcycles=1000, calcfc) geom=nocrowd
 ----------------------------------------------------------------------

 ------------------
 Phi Psi fixed scan
 ------------------
 Symbolic Z-matrix:
 Charge =  0 Multiplicity = 1

 SCF Done:  E(RB3LYP) =  -495.826111663     A.U. after   15 cycles

  Exact polarizability:   0.000   0.000   0.000   0.000   0.000   0.000
 Approx polarizability: 114.425   7.120 130.559   3.842  15.707  93.540

 SCF Done:  E(RB3LYP) =  -495.834455587     A.U. after   12 cycles
 SCF Done:  E(RB3LYP) =  -495.844904553     A.U. after   12 cycles
 SCF Done:  E(RB3LYP) =  -495.848413736     A.U. after   12 cycles
 SCF Done:  E(RB3LYP) =  -495.849584360     A.U. after   12 cycles
 SCF Done:  E(RB3LYP) =  -495.850565628     A.U. after   13 cycles
 SCF Done:  E(RB3LYP) =  -495.850007185     A.U. after   13 cycles
 SCF Done:  E(RB3LYP) =  -495.850685455     A.U. after   12 cycles
 SCF Done:  E(RB3LYP) =  -495.850943900     A.U. after   11 cycles
 SCF Done:  E(RB3LYP) =  -495.814717463     A.U. after   15 cycles
 SCF Done:  E(RB3LYP) =  -495.851589603     A.U. after   10 cycles
 SCF Done:  E(RB3LYP) =  -495.851592060     A.U. after   10 cycles
 SCF Done:  E(RB3LYP) =  -495.851589598     A.U. after   11 cycles
 SCF Done:  E(RB3LYP) =  -495.851594654     A.U. after   10 cycles
 SCF Done:  E(RB3LYP) =  -495.851595351     A.U. after    7 cycles
 SCF Done:  E(RB3LYP) =  -495.851598673     A.U. after   10 cycles
 SCF Done:  E(RB3LYP) =  -495.851598906     A.U. after    9 cycles
 SCF Done:  E(RB3LYP) =  -495.851598959     A.U. after    8 cycles
 SCF Done:  E(RB3LYP) =  -495.851599030     A.U. after    7 cycles
 SCF Done:  E(RB3LYP) =  -495.851599034     A.U. after    6 cycles
 Optimization completed.
    -- Stationary point found.

                         Standard orientation:
 ---------------------------------------------------------------------
 Center     Atomic      Atomic             Coordinates (Angstroms)
 Number     Number       Type             X           Y           Z
 ---------------------------------------------------------------------
      1          1           0       -3.915559   -0.884441    0.060908
      2          6           0       -3.121602   -0.523335    0.719873
      3          1           0       -2.971080   -1.280853    1.496846
      4          1           0       -3.443860    0.408694    1.193919
      5          6           0       -1.842961   -0.390635   -0.091887
      6          8           0       -1.479248   -1.291652   -0.851511
      7          7           0       -1.176321    0.788043    0.050225
      8          1           0       -1.496701    1.395810    0.793405
      9          6           0        0.163869    1.116075   -0.473898
     10          1           0        0.109789    0.962488   -1.560477
     11          6           0        0.456042    2.584853   -0.185749
     12          1           0        0.535187    2.762123    0.892174
     13          1           0        1.413323    2.869381   -0.625475
     14          1           0       -0.332803    3.218967   -0.603950
     15          6           0        1.325862    0.212555    0.039681
     16          8           0        2.289264    0.703037    0.624428
     17          7           0        1.221196   -1.106643   -0.235512
     18          1           0        0.361698   -1.442510   -0.666725
     19          6           0        2.250463   -2.036965    0.195270
     20          1           0        3.225741   -1.751993   -0.212867
     21          1           0        2.340439   -2.058038    1.287903
     22          1           0        1.989532   -3.035794   -0.161734
 ---------------------------------------------------------------------

 The electronic state is 1-A.
 Alpha  occ. eigenvalues --  -19.12585 -19.10187 -14.37666 -14.34134 -10.30302
 Alpha  occ. eigenvalues --  -10.27372 -10.24054 -10.20811 -10.20300 -10.18651
 Alpha  occ. eigenvalues --   -1.04431  -1.01945  -0.93513  -0.90388  -0.78547
 Alpha  occ. eigenvalues --   -0.73580  -0.70466  -0.63935  -0.60043  -0.56579
 Alpha  occ. eigenvalues --   -0.52851  -0.49888  -0.48719  -0.45651  -0.45170
 Alpha  occ. eigenvalues --   -0.43601  -0.41936  -0.41608  -0.41234  -0.39126
 Alpha  occ. eigenvalues --   -0.38639  -0.37630  -0.37345  -0.36348  -0.35028
 Alpha  occ. eigenvalues --   -0.28352  -0.26389  -0.24002  -0.23334
 Alpha virt. eigenvalues --    0.00900   0.03257   0.06757   0.10630   0.11835
 Alpha virt. eigenvalues --    0.12671   0.13828   0.14766   0.15346   0.15885
 Alpha virt. eigenvalues --    0.16823   0.17248   0.18431   0.18850   0.21480

 Mulliken atomic charges:
              1
     1  H    0.192856
     2  C   -0.534974
     3  H    0.188264
     4  H    0.150898
     5  C    0.605070
     6  O   -0.532917
     7  N   -0.591614
     8  H    0.330031
     9  C   -0.043509
    10  H    0.175314
    11  C   -0.466050
    12  H    0.162323
    13  H    0.182560
    14  H    0.145854
    15  C    0.594473
    16  O   -0.526590
    17  N   -0.608817
    18  H    0.381510
    19  C   -0.292739
    20  H    0.172381
    21  H    0.164500
    22  H    0.151177
 Sum of Mulliken atomic charges =   0.00000

 Dipole moment (field-independent basis, Debye):
    X=             -2.9743    Y=              0.6378    Z=              0.7871  Tot=              3.1421
 Quadrupole moment (field-independent basis, Debye-Ang):
   XX=            -61.7068   YY=            -57.0332   ZZ=            -60.3532
   XY=             -7.3502   XZ=             -7.4357   YZ=             -2.6051

 Normal termination of Gaussian 09 at Sat Feb 11 00:38:57 2017.
