 Gaussian 09, Revision A.02,
 Gaussian 09:  EM64L-G09RevA.02 11-Jun-2009

 ----------------------------------------------------------------------
 # b3lyp/6-31G* Opt=(ModRedundant, maxcycles=1000, calcfc) geom=nocrowd
 ----------------------------------------------------------------------

 ------------------
 Phi Psi fixed scan
 ------------------
 Symbolic Z-matrix:
 Charge =  0 Multiplicity = 1

 SCF Done:  E(RB3LYP) =  -495.832765064     A.U. after   15 cycles

  Exact polarizability:   0.000   0.000   0.000   0.000   0.000   0.000
 Approx polarizability:  99.350   2.154 105.800  -4.468 -13.557 130.062

 SCF Done:  E(RB3LYP) =  -495.836526634     A.U. after   12 cycles
 SCF Done:  E(RB3LYP) =  -495.840739560     A.U. after   13 cycles
 SCF Done:  E(RB3LYP) =  -495.841839997     A.U. after   14 cycles
 SCF Done:  E(RB3LYP) =  -495.840573656     A.U. after   13 cycles
 SCF Done:  E(RB3LYP) =  -495.841864825     A.U. after   14 cycles
 SCF Done:  E(RB3LYP) =  -495.842134650     A.U. after   12 cycles
 SCF Done:  E(RB3LYP) =  -495.841526465     A.U. after   13 cycles
 SCF Done:  E(RB3LYP) =  -495.842265425     A.U. after   13 cycles
 SCF Done:  E(RB3LYP) =  -495.842326449     A.U. after   12 cycles
 SCF Done:  E(RB3LYP) =  -495.842337693     A.U. after   10 cycles
 SCF Done:  E(RB3LYP) =  -495.842348952     A.U. after   10 cycles
 SCF Done:  E(RB3LYP) =  -495.842371331     A.U. after   11 cycles
 SCF Done:  E(RB3LYP) =  -495.842381548     A.U. after   10 cycles
 SCF Done:  E(RB3LYP) =  -495.842383356     A.U. after   10 cycles
 SCF Done:  E(RB3LYP) =  -495.842383522     A.U. after    8 cycles
 SCF Done:  E(RB3LYP) =  -495.842383536     A.U. after    7 cycles
 SCF Done:  E(RB3LYP) =  -495.842383548     A.U. after    7 cycles
 SCF Done:  E(RB3LYP) =  -495.842383551     A.U. after    7 cycles
 Optimization completed.
    -- Stationary point found.

                         Standard orientation:
 ---------------------------------------------------------------------
 Center     Atomic      Atomic             Coordinates (Angstroms)
 Number     Number       Type             X           Y           Z
 ---------------------------------------------------------------------
      1          1           0        3.357494   -1.710071   -0.747306
      2          6           0        3.219115   -0.642027   -0.562792
      3          1           0        3.325733   -0.095260   -1.505405
      4          1           0        4.014401   -0.320089    0.119056
      5          6           0        1.870367   -0.433848    0.112963
      6          8           0        1.453766   -1.173660    0.990912
      7          7           0        1.147789    0.646217   -0.336766
      8          1           0        1.612120    1.301494   -0.952093
      9          6           0       -0.051892    1.124666    0.356804
     10          1           0        0.193365    1.323399    1.406496
     11          6           0       -0.559579    2.407701   -0.305489
     12          1           0       -0.820425    2.243345   -1.356490
     13          1           0       -1.453886    2.763605    0.213645
     14          1           0        0.198968    3.198237   -0.251345
     15          6           0       -1.161065    0.050425    0.438398
     16          8           0       -1.706171   -0.215897    1.497036
     17          7           0       -1.608976   -0.400687   -0.777447
     18          1           0       -0.957927   -0.317994   -1.548468
     19          6           0       -2.593219   -1.469825   -0.853764
     20          1           0       -3.301597   -1.335549   -0.035173
     21          1           0       -3.124355   -1.411206   -1.808435
     22          1           0       -2.138708   -2.464714   -0.755291
 ---------------------------------------------------------------------

 The electronic state is 1-A.
 Alpha  occ. eigenvalues --  -19.11339 -19.10307 -14.36766 -14.35312 -10.29097
 Alpha  occ. eigenvalues --  -10.27602 -10.23544 -10.21110 -10.19902 -10.19764
 Alpha  occ. eigenvalues --   -1.03555  -1.02142  -0.92932  -0.90879  -0.78471
 Alpha  occ. eigenvalues --   -0.73400  -0.70272  -0.64643  -0.59466  -0.57030
 Alpha  occ. eigenvalues --   -0.51683  -0.50415  -0.47862  -0.45211  -0.44715
 Alpha  occ. eigenvalues --   -0.43532  -0.42509  -0.41892  -0.40293  -0.39306
 Alpha  occ. eigenvalues --   -0.38983  -0.38685  -0.37801  -0.35824  -0.34619
 Alpha  occ. eigenvalues --   -0.26988  -0.24972  -0.24710  -0.23547
 Alpha virt. eigenvalues --    0.02163   0.02984   0.06233   0.09138   0.11426
 Alpha virt. eigenvalues --    0.12341   0.13299   0.14794   0.14910   0.15396
 Alpha virt. eigenvalues --    0.16529   0.17589   0.17822   0.18798   0.19533

 Mulliken atomic charges:
              1
     1  H    0.189824
     2  C   -0.542855
     3  H    0.144571
     4  H    0.186648
     5  C    0.589730
     6  O   -0.484439
     7  N   -0.618071
     8  H    0.320345
     9  C   -0.024173
    10  H    0.178593
    11  C   -0.481822
    12  H    0.152565
    13  H    0.183375
    14  H    0.151436
    15  C    0.619939
    16  O   -0.507368
    17  N   -0.580583
    18  H    0.320692
    19  C   -0.305736
    20  H    0.195853
    21  H    0.147910
    22  H    0.163565
 Sum of Mulliken atomic charges =   0.00000

 Dipole moment (field-independent basis, Debye):
    X=              1.9541    Y=              2.5964    Z=             -5.2306  Tot=              6.1579
 Quadrupole moment (field-independent basis, Debye-Ang):
   XX=            -55.1972   YY=            -57.1978   ZZ=            -63.4571
   XY=              3.9476   XZ=              1.6574   YZ=              4.0635

 Normal termination of Gaussian 09 at Sat Feb 11 00:32:44 2017.
