 Gaussian 09, Revision A.02,
 Gaussian 09:  EM64L-G09RevA.02 11-Jun-2009

 ----------------------------------------------------------------------
 # b3lyp/6-31G* Opt=(ModRedundant, maxcycles=1000, calcfc) geom=nocrowd
 ----------------------------------------------------------------------

 ------------------
 Phi Psi fixed scan
 ------------------
 Symbolic Z-matrix:
 Charge =  0 Multiplicity = 1

 SCF Done:  E(RB3LYP) =  -495.836809286     A.U. after   15 cycles

  Exact polarizability:   0.000   0.000   0.000   0.000   0.000   0.000
 Approx polarizability: 108.022   1.107 130.806   2.693  18.786  98.220

 SCF Done:  E(RB3LYP) =  -495.842821204     A.U. after   12 cycles
 SCF Done:  E(RB3LYP) =  -495.849268822     A.U. after   12 cycles
 SCF Done:  E(RB3LYP) =  -495.850905784     A.U. after   13 cycles
 SCF Done:  E(RB3LYP) =  -495.851244022     A.U. after   13 cycles
 SCF Done:  E(RB3LYP) =  -495.850967704     A.U. after   14 cycles
 SCF Done:  E(RB3LYP) =  -495.851625355     A.U. after   12 cycles
 SCF Done:  E(RB3LYP) =  -495.852082865     A.U. after   12 cycles
 SCF Done:  E(RB3LYP) =  -495.852131575     A.U. after   12 cycles
 SCF Done:  E(RB3LYP) =  -495.851763306     A.U. after   12 cycles
 SCF Done:  E(RB3LYP) =  -495.852189029     A.U. after   11 cycles
 SCF Done:  E(RB3LYP) =  -495.852197357     A.U. after   10 cycles
 SCF Done:  E(RB3LYP) =  -495.852198711     A.U. after    8 cycles
 SCF Done:  E(RB3LYP) =  -495.852201168     A.U. after   10 cycles
 SCF Done:  E(RB3LYP) =  -495.852204052     A.U. after   10 cycles
 SCF Done:  E(RB3LYP) =  -495.852204614     A.U. after    9 cycles
 SCF Done:  E(RB3LYP) =  -495.852204635     A.U. after    7 cycles
 SCF Done:  E(RB3LYP) =  -495.852204636     A.U. after    6 cycles
 SCF Done:  E(RB3LYP) =  -495.852204677     A.U. after    7 cycles
 SCF Done:  E(RB3LYP) =  -495.852204714     A.U. after    6 cycles
 Optimization completed.
    -- Stationary point found.

                         Standard orientation:
 ---------------------------------------------------------------------
 Center     Atomic      Atomic             Coordinates (Angstroms)
 Number     Number       Type             X           Y           Z
 ---------------------------------------------------------------------
      1          1           0       -3.836025   -1.077510    0.130056
      2          6           0       -3.067694   -0.609591    0.750571
      3          1           0       -2.851645   -1.294061    1.578609
      4          1           0       -3.456436    0.326948    1.161813
      5          6           0       -1.810532   -0.433156   -0.085453
      6          8           0       -1.409933   -1.329218   -0.830532
      7          7           0       -1.200512    0.782587    0.016765
      8          1           0       -1.523172    1.386558    0.762503
      9          6           0        0.137038    1.111517   -0.510703
     10          1           0        0.099512    0.902431   -1.587130
     11          6           0        0.411481    2.593570   -0.283742
     12          1           0        0.513353    2.807249    0.784837
     13          1           0        1.353641    2.878436   -0.757748
     14          1           0       -0.394642    3.200896   -0.708503
     15          6           0        1.279897    0.241198    0.090589
     16          8           0        2.079102    0.714839    0.894155
     17          7           0        1.341651   -1.030234   -0.378735
     18          1           0        0.510487   -1.379151   -0.852793
     19          6           0        2.308108   -1.977803    0.149572
     20          1           0        3.237253   -1.448419    0.367905
     21          1           0        1.959679   -2.454138    1.076292
     22          1           0        2.496886   -2.755085   -0.596034
 ---------------------------------------------------------------------

 The electronic state is 1-A.
 Alpha  occ. eigenvalues --  -19.12541 -19.10382 -14.37502 -14.34321 -10.30182
 Alpha  occ. eigenvalues --  -10.27506 -10.23903 -10.20759 -10.20207 -10.18640
 Alpha  occ. eigenvalues --   -1.04363  -1.02064  -0.93378  -0.90583  -0.78474
 Alpha  occ. eigenvalues --   -0.73538  -0.70500  -0.63829  -0.59878  -0.56431
 Alpha  occ. eigenvalues --   -0.52766  -0.49736  -0.48680  -0.45793  -0.45125
 Alpha  occ. eigenvalues --   -0.43632  -0.41898  -0.41697  -0.41178  -0.39021
 Alpha  occ. eigenvalues --   -0.38612  -0.37683  -0.37131  -0.36214  -0.35400
 Alpha  occ. eigenvalues --   -0.28347  -0.26389  -0.24414  -0.23159
 Alpha virt. eigenvalues --    0.01014   0.02933   0.06950   0.10638   0.11931
 Alpha virt. eigenvalues --    0.12698   0.13804   0.14864   0.15495   0.16613
 Alpha virt. eigenvalues --    0.16923   0.17181   0.18360   0.18698   0.21113

 Mulliken atomic charges:
              1
     1  H    0.192331
     2  C   -0.536678
     3  H    0.188092
     4  H    0.152345
     5  C    0.602080
     6  O   -0.528224
     7  N   -0.588109
     8  H    0.329515
     9  C   -0.039109
    10  H    0.170079
    11  C   -0.468508
    12  H    0.169633
    13  H    0.174762
    14  H    0.147140
    15  C    0.592554
    16  O   -0.526411
    17  N   -0.598389
    18  H    0.372778
    19  C   -0.302980
    20  H    0.187519
    21  H    0.155990
    22  H    0.153590
 Sum of Mulliken atomic charges =   0.00000

 Dipole moment (field-independent basis, Debye):
    X=             -2.6312    Y=              0.6286    Z=              0.3859  Tot=              2.7327
 Quadrupole moment (field-independent basis, Debye-Ang):
   XX=            -59.7030   YY=            -57.4826   ZZ=            -61.2146
   XY=             -6.9265   XZ=             -7.9734   YZ=             -2.9441

 Normal termination of Gaussian 09 at Sat Feb 11 00:35:04 2017.
