 Gaussian 09, Revision A.02,
 Gaussian 09:  EM64L-G09RevA.02 11-Jun-2009

 ----------------------------------------------------------------------
 # b3lyp/6-31G* Opt=(ModRedundant, maxcycles=1000, calcfc) geom=nocrowd
 ----------------------------------------------------------------------

 ------------------
 Phi Psi fixed scan
 ------------------
 Symbolic Z-matrix:
 Charge =  0 Multiplicity = 1

 SCF Done:  E(RB3LYP) =  -495.830592688     A.U. after   15 cycles

  Exact polarizability:   0.000   0.000   0.000   0.000   0.000   0.000
 Approx polarizability: 117.332  -5.216 118.743 -13.802  -1.506  97.949

 SCF Done:  E(RB3LYP) =  -495.834434731     A.U. after   12 cycles
 SCF Done:  E(RB3LYP) =  -495.839491054     A.U. after   13 cycles
 SCF Done:  E(RB3LYP) =  -495.841034002     A.U. after   13 cycles
 SCF Done:  E(RB3LYP) =  -495.842118666     A.U. after   12 cycles
 SCF Done:  E(RB3LYP) =  -495.788642114     A.U. after   15 cycles
 SCF Done:  E(RB3LYP) =  -495.842376730     A.U. after   15 cycles
 SCF Done:  E(RB3LYP) =  -495.843152811     A.U. after   12 cycles
 SCF Done:  E(RB3LYP) =  -495.843926705     A.U. after   15 cycles
 SCF Done:  E(RB3LYP) =  -495.844300514     A.U. after   13 cycles
 SCF Done:  E(RB3LYP) =  -495.844547447     A.U. after   11 cycles
 SCF Done:  E(RB3LYP) =  -495.844632707     A.U. after   11 cycles
 SCF Done:  E(RB3LYP) =  -495.844687237     A.U. after   11 cycles
 SCF Done:  E(RB3LYP) =  -495.844734851     A.U. after   11 cycles
 SCF Done:  E(RB3LYP) =  -495.844756598     A.U. after   11 cycles
 SCF Done:  E(RB3LYP) =  -495.844758067     A.U. after    9 cycles
 SCF Done:  E(RB3LYP) =  -495.844758508     A.U. after    7 cycles
 SCF Done:  E(RB3LYP) =  -495.844759100     A.U. after    9 cycles
 SCF Done:  E(RB3LYP) =  -495.844759733     A.U. after    9 cycles
 SCF Done:  E(RB3LYP) =  -495.844759983     A.U. after    9 cycles
 Optimization completed.
    -- Stationary point found.

                         Standard orientation:
 ---------------------------------------------------------------------
 Center     Atomic      Atomic             Coordinates (Angstroms)
 Number     Number       Type             X           Y           Z
 ---------------------------------------------------------------------
      1          1           0        3.830087   -1.301145   -0.023346
      2          6           0        3.108625   -0.730864   -0.610893
      3          1           0        2.697731   -1.384769   -1.389426
      4          1           0        3.612077    0.111229   -1.098183
      5          6           0        1.973999   -0.283398    0.292495
      6          8           0        1.698457   -0.839343    1.343459
      7          7           0        1.287930    0.845614   -0.140970
      8          1           0        1.403566    1.036573   -1.131254
      9          6           0       -0.081038    1.020362    0.317218
     10          1           0       -0.051935    1.012246    1.412460
     11          6           0       -0.622472    2.368774   -0.177601
     12          1           0       -0.685094    2.388155   -1.272595
     13          1           0       -1.624755    2.570911    0.210825
     14          1           0        0.040957    3.176881    0.145074
     15          6           0       -0.962940   -0.175189   -0.139284
     16          8           0       -0.533991   -1.055497   -0.872753
     17          7           0       -2.272725   -0.099799    0.246348
     18          1           0       -2.513737    0.560172    0.973182
     19          6           0       -3.213298   -1.177544   -0.020061
     20          1           0       -2.865083   -1.711590   -0.904736
     21          1           0       -3.274288   -1.888361    0.814282
     22          1           0       -4.208934   -0.765133   -0.210821
 ---------------------------------------------------------------------

 The electronic state is 1-A.
 Alpha  occ. eigenvalues --  -19.11384 -19.10317 -14.36440 -14.34782 -10.28431
 Alpha  occ. eigenvalues --  -10.27759 -10.23506 -10.21927 -10.19764 -10.18106
 Alpha  occ. eigenvalues --   -1.03590  -1.01940  -0.92169  -0.91488  -0.77868
 Alpha  occ. eigenvalues --   -0.72354  -0.70808  -0.64231  -0.58520  -0.57097
 Alpha  occ. eigenvalues --   -0.52963  -0.47899  -0.47281  -0.45392  -0.45040
 Alpha  occ. eigenvalues --   -0.43579  -0.42729  -0.41396  -0.40074  -0.39361
 Alpha  occ. eigenvalues --   -0.38829  -0.38179  -0.37699  -0.35464  -0.33986
 Alpha  occ. eigenvalues --   -0.26753  -0.25376  -0.24726  -0.23518
 Alpha virt. eigenvalues --    0.02522   0.03332   0.06426   0.08683   0.11815
 Alpha virt. eigenvalues --    0.12941   0.14242   0.14919   0.15407   0.15647
 Alpha virt. eigenvalues --    0.16517   0.16974   0.17620   0.19030   0.19289

 Mulliken atomic charges:
              1
     1  H    0.182271
     2  C   -0.552799
     3  H    0.192137
     4  H    0.153372
     5  C    0.608295
     6  O   -0.502677
     7  N   -0.569053
     8  H    0.316430
     9  C   -0.068463
    10  H    0.180677
    11  C   -0.459352
    12  H    0.155108
    13  H    0.147812
    14  H    0.170685
    15  C    0.620261
    16  O   -0.519771
    17  N   -0.590647
    18  H    0.324514
    19  C   -0.307415
    20  H    0.201019
    21  H    0.163993
    22  H    0.153605
 Sum of Mulliken atomic charges =   0.00000

 Dipole moment (field-independent basis, Debye):
    X=             -2.4774    Y=              3.0296    Z=             -1.0138  Tot=              4.0427
 Quadrupole moment (field-independent basis, Debye-Ang):
   XX=            -49.6596   YY=            -60.5267   ZZ=            -61.8565
   XY=              0.8707   XZ=             -8.6311   YZ=              0.8361

 Normal termination of Gaussian 09 at Sat Feb 11 00:22:37 2017.
