 Gaussian 09, Revision A.02,
 Gaussian 09:  EM64L-G09RevA.02 11-Jun-2009

 ----------------------------------------------------------------------
 # b3lyp/6-31G* Opt=(ModRedundant, maxcycles=1000, calcfc) geom=nocrowd
 ----------------------------------------------------------------------

 ------------------
 Phi Psi fixed scan
 ------------------
 Symbolic Z-matrix:
 Charge =  0 Multiplicity = 1

 SCF Done:  E(RB3LYP) =  -495.821711240     A.U. after   15 cycles

  Exact polarizability:   0.000   0.000   0.000   0.000   0.000   0.000
 Approx polarizability: 119.889 -10.600 121.170  -7.309  -6.776  96.548

 SCF Done:  E(RB3LYP) =  -495.831359186     A.U. after   12 cycles
 SCF Done:  E(RB3LYP) =  -495.841981658     A.U. after   13 cycles
 SCF Done:  E(RB3LYP) =  -495.845566212     A.U. after   13 cycles
 SCF Done:  E(RB3LYP) =  -495.847400524     A.U. after   16 cycles
 SCF Done:  E(RB3LYP) =  -495.847704816     A.U. after   16 cycles
 SCF Done:  E(RB3LYP) =  -495.848348242     A.U. after   13 cycles
 SCF Done:  E(RB3LYP) =  -495.848389097     A.U. after   13 cycles
 SCF Done:  E(RB3LYP) =  -495.848568373     A.U. after   12 cycles
 SCF Done:  E(RB3LYP) =  -495.848591418     A.U. after   11 cycles
 SCF Done:  E(RB3LYP) =  -495.848600050     A.U. after   11 cycles
 SCF Done:  E(RB3LYP) =  -495.848602249     A.U. after    9 cycles
 SCF Done:  E(RB3LYP) =  -495.848605631     A.U. after   10 cycles
 SCF Done:  E(RB3LYP) =  -495.848610280     A.U. after   10 cycles
 SCF Done:  E(RB3LYP) =  -495.848614072     A.U. after   10 cycles
 SCF Done:  E(RB3LYP) =  -495.848617943     A.U. after   10 cycles
 SCF Done:  E(RB3LYP) =  -495.848620714     A.U. after    9 cycles
 SCF Done:  E(RB3LYP) =  -495.848621076     A.U. after   10 cycles
 SCF Done:  E(RB3LYP) =  -495.848621141     A.U. after    9 cycles
 SCF Done:  E(RB3LYP) =  -495.848621173     A.U. after    7 cycles
 Optimization completed.
    -- Stationary point found.

                         Standard orientation:
 ---------------------------------------------------------------------
 Center     Atomic      Atomic             Coordinates (Angstroms)
 Number     Number       Type             X           Y           Z
 ---------------------------------------------------------------------
      1          1           0        4.003447   -0.471550    0.336401
      2          6           0        3.259029   -0.458981   -0.466013
      3          1           0        3.338642   -1.411851   -0.997635
      4          1           0        3.496680    0.356985   -1.155206
      5          6           0        1.876358   -0.361058    0.160079
      6          8           0        1.458873   -1.233630    0.924585
      7          7           0        1.156608    0.744170   -0.167966
      8          1           0        1.550387    1.357088   -0.868409
      9          6           0       -0.166892    1.138533    0.339340
     10          1           0       -0.082564    1.204616    1.433887
     11          6           0       -0.499471    2.529292   -0.205822
     12          1           0       -0.542317    2.518034   -1.302028
     13          1           0       -1.478720    2.834103    0.162997
     14          1           0        0.252400    3.259791    0.111853
     15          6           0       -1.371344    0.182314    0.106363
     16          8           0       -2.506334    0.629919    0.242112
     17          7           0       -1.113160   -1.097140   -0.270517
     18          1           0       -0.210747   -1.469551    0.016557
     19          6           0       -2.219790   -2.037064   -0.387606
     20          1           0       -3.008142   -1.592957   -0.998711
     21          1           0       -1.857443   -2.948565   -0.869872
     22          1           0       -2.653422   -2.293882    0.587917
 ---------------------------------------------------------------------

 The electronic state is 1-A.
 Alpha  occ. eigenvalues --  -19.12307 -19.10420 -14.37643 -14.34299 -10.30224
 Alpha  occ. eigenvalues --  -10.27711 -10.24261 -10.20655 -10.20359 -10.18949
 Alpha  occ. eigenvalues --   -1.04362  -1.02264  -0.93542  -0.90492  -0.78650
 Alpha  occ. eigenvalues --   -0.73661  -0.70205  -0.64282  -0.60215  -0.56552
 Alpha  occ. eigenvalues --   -0.52724  -0.50196  -0.48562  -0.45867  -0.45163
 Alpha  occ. eigenvalues --   -0.43153  -0.42191  -0.41701  -0.41012  -0.39386
 Alpha  occ. eigenvalues --   -0.38801  -0.38274  -0.37394  -0.36347  -0.34390
 Alpha  occ. eigenvalues --   -0.27936  -0.26532  -0.24735  -0.23256
 Alpha virt. eigenvalues --    0.00983   0.03264   0.06303   0.11121   0.11519
 Alpha virt. eigenvalues --    0.12696   0.13934   0.14717   0.15652   0.15988
 Alpha virt. eigenvalues --    0.16633   0.17432   0.18445   0.18638   0.20318

 Mulliken atomic charges:
              1
     1  H    0.192403
     2  C   -0.533166
     3  H    0.188171
     4  H    0.147406
     5  C    0.595967
     6  O   -0.532265
     7  N   -0.601845
     8  H    0.331856
     9  C   -0.021932
    10  H    0.185332
    11  C   -0.485560
    12  H    0.152067
    13  H    0.203265
    14  H    0.146988
    15  C    0.601454
    16  O   -0.524867
    17  N   -0.608889
    18  H    0.371223
    19  C   -0.299803
    20  H    0.180645
    21  H    0.148863
    22  H    0.162686
 Sum of Mulliken atomic charges =   0.00000

 Dipole moment (field-independent basis, Debye):
    X=              3.4900    Y=              0.9462    Z=             -2.1557  Tot=              4.2098
 Quadrupole moment (field-independent basis, Debye-Ang):
   XX=            -62.1574   YY=            -56.4301   ZZ=            -60.5310
   XY=              7.2906   XZ=             -2.6175   YZ=              1.7137

 Normal termination of Gaussian 09 at Sat Feb 11 00:29:33 2017.
