 Gaussian 09, Revision A.02,
 Gaussian 09:  EM64L-G09RevA.02 11-Jun-2009

 ----------------------------------------------------------------------
 # b3lyp/6-31G* Opt=(ModRedundant, maxcycles=1000, calcfc) geom=nocrowd
 ----------------------------------------------------------------------

 ------------------
 Phi Psi fixed scan
 ------------------
 Symbolic Z-matrix:
 Charge =  0 Multiplicity = 1

 SCF Done:  E(RB3LYP) =  -495.831315114     A.U. after   15 cycles

  Exact polarizability:   0.000   0.000   0.000   0.000   0.000   0.000
 Approx polarizability: 115.748  -8.258 117.566 -12.716  -4.753 102.875

 SCF Done:  E(RB3LYP) =  -495.837314994     A.U. after   12 cycles
 SCF Done:  E(RB3LYP) =  -495.844652204     A.U. after   16 cycles
 SCF Done:  E(RB3LYP) =  -495.845327441     A.U. after   16 cycles
 SCF Done:  E(RB3LYP) =  -495.845268184     A.U. after   16 cycles
 SCF Done:  E(RB3LYP) =  -495.845718970     A.U. after   13 cycles
 SCF Done:  E(RB3LYP) =  -495.846044279     A.U. after   11 cycles
 SCF Done:  E(RB3LYP) =  -495.846409541     A.U. after   12 cycles
 SCF Done:  E(RB3LYP) =  -495.846630312     A.U. after   16 cycles
 SCF Done:  E(RB3LYP) =  -495.846808308     A.U. after   12 cycles
 SCF Done:  E(RB3LYP) =  -495.846926569     A.U. after   11 cycles
 SCF Done:  E(RB3LYP) =  -495.846976785     A.U. after   13 cycles
 SCF Done:  E(RB3LYP) =  -495.846970631     A.U. after   12 cycles
 SCF Done:  E(RB3LYP) =  -495.846985620     A.U. after   10 cycles
 SCF Done:  E(RB3LYP) =  -495.847031647     A.U. after   11 cycles
 SCF Done:  E(RB3LYP) =  -495.847042959     A.U. after   10 cycles
 SCF Done:  E(RB3LYP) =  -495.847045691     A.U. after   10 cycles
 SCF Done:  E(RB3LYP) =  -495.847047651     A.U. after    9 cycles
 SCF Done:  E(RB3LYP) =  -495.847048128     A.U. after   10 cycles
 SCF Done:  E(RB3LYP) =  -495.847048236     A.U. after    7 cycles
 Optimization completed.
    -- Stationary point found.

                         Standard orientation:
 ---------------------------------------------------------------------
 Center     Atomic      Atomic             Coordinates (Angstroms)
 Number     Number       Type             X           Y           Z
 ---------------------------------------------------------------------
      1          1           0        3.431513   -1.511721   -0.742827
      2          6           0        3.278059   -0.489518   -0.387070
      3          1           0        3.486740    0.211355   -1.201317
      4          1           0        3.997805   -0.312555    0.419508
      5          6           0        1.871508   -0.373656    0.181666
      6          8           0        1.416757   -1.214572    0.956611
      7          7           0        1.161170    0.717539   -0.217035
      8          1           0        1.589248    1.331506   -0.895785
      9          6           0       -0.142271    1.147469    0.303764
     10          1           0       -0.035844    1.296515    1.386964
     11          6           0       -0.508154    2.489610   -0.338889
     12          1           0       -0.593769    2.389661   -1.427892
     13          1           0       -1.471737    2.820099    0.050172
     14          1           0        0.249227    3.248480   -0.112239
     15          6           0       -1.346827    0.179697    0.172911
     16          8           0       -2.446315    0.580725    0.539945
     17          7           0       -1.149415   -1.030768   -0.419570
     18          1           0       -0.226047   -1.428809   -0.288267
     19          6           0       -2.258012   -1.975960   -0.470341
     20          1           0       -3.144314   -1.465483   -0.851141
     21          1           0       -1.993259   -2.795051   -1.144110
     22          1           0       -2.501207   -2.386460    0.518473
 ---------------------------------------------------------------------

 The electronic state is 1-A.
 Alpha  occ. eigenvalues --  -19.12101 -19.10496 -14.37421 -14.34633 -10.30020
 Alpha  occ. eigenvalues --  -10.27787 -10.24130 -10.20731 -10.20303 -10.19142
 Alpha  occ. eigenvalues --   -1.04219  -1.02373  -0.93401  -0.90676  -0.78609
 Alpha  occ. eigenvalues --   -0.73646  -0.70191  -0.64371  -0.60105  -0.56697
 Alpha  occ. eigenvalues --   -0.52548  -0.50242  -0.48415  -0.45957  -0.45134
 Alpha  occ. eigenvalues --   -0.43141  -0.42282  -0.41718  -0.40841  -0.39421
 Alpha  occ. eigenvalues --   -0.38983  -0.38258  -0.37555  -0.36322  -0.34246
 Alpha  occ. eigenvalues --   -0.27695  -0.26454  -0.24863  -0.23338
 Alpha virt. eigenvalues --    0.01231   0.02989   0.06312   0.11188   0.11291
 Alpha virt. eigenvalues --    0.12486   0.14079   0.14903   0.15300   0.15620
 Alpha virt. eigenvalues --    0.16806   0.17301   0.18388   0.18595   0.19706

 Mulliken atomic charges:
              1
     1  H    0.187670
     2  C   -0.534898
     3  H    0.147674
     4  H    0.191040
     5  C    0.586803
     6  O   -0.525396
     7  N   -0.607825
     8  H    0.330441
     9  C   -0.005436
    10  H    0.183635
    11  C   -0.489659
    12  H    0.153993
    13  H    0.202151
    14  H    0.147465
    15  C    0.603707
    16  O   -0.525363
    17  N   -0.597095
    18  H    0.357439
    19  C   -0.302856
    20  H    0.183279
    21  H    0.148324
    22  H    0.164908
 Sum of Mulliken atomic charges =   0.00000

 Dipole moment (field-independent basis, Debye):
    X=              3.4887    Y=              1.0113    Z=             -2.7614  Tot=              4.5628
 Quadrupole moment (field-independent basis, Debye-Ang):
   XX=            -61.0029   YY=            -56.0848   ZZ=            -61.4646
   XY=              6.9551   XZ=             -0.9127   YZ=              1.7369

 Normal termination of Gaussian 09 at Sat Feb 11 00:26:58 2017.
