 Gaussian 09, Revision A.02,
 Gaussian 09:  EM64L-G09RevA.02 11-Jun-2009

 ----------------------------------------------------------------------
 # b3lyp/6-31G* Opt=(ModRedundant, maxcycles=1000, calcfc) geom=nocrowd
 ----------------------------------------------------------------------

 ------------------
 Phi Psi fixed scan
 ------------------
 Symbolic Z-matrix:
 Charge =  0 Multiplicity = 1

 SCF Done:  E(RB3LYP) =  -495.813406467     A.U. after   16 cycles

  Exact polarizability:   0.000   0.000   0.000   0.000   0.000   0.000
 Approx polarizability: 110.035   7.472 123.973   6.900  21.207 103.211

 SCF Done:  E(RB3LYP) =  -495.820432708     A.U. after   14 cycles
 SCF Done:  E(RB3LYP) =  -495.828841502     A.U. after   15 cycles
 SCF Done:  E(RB3LYP) =  -495.831829761     A.U. after   13 cycles
 SCF Done:  E(RB3LYP) =  -495.832705597     A.U. after   16 cycles
 SCF Done:  E(RB3LYP) =  -495.833484818     A.U. after   13 cycles
 SCF Done:  E(RB3LYP) =  -495.820359999     A.U. after   17 cycles
 SCF Done:  E(RB3LYP) =  -495.833795112     A.U. after   16 cycles
 SCF Done:  E(RB3LYP) =  -495.833723769     A.U. after   13 cycles
 SCF Done:  E(RB3LYP) =  -495.833888030     A.U. after   13 cycles
 SCF Done:  E(RB3LYP) =  -495.833954833     A.U. after   12 cycles
 SCF Done:  E(RB3LYP) =  -495.833969030     A.U. after   11 cycles
 SCF Done:  E(RB3LYP) =  -495.833978706     A.U. after   10 cycles
 SCF Done:  E(RB3LYP) =  -495.833980657     A.U. after   10 cycles
 SCF Done:  E(RB3LYP) =  -495.833981882     A.U. after   10 cycles
 SCF Done:  E(RB3LYP) =  -495.833982441     A.U. after    8 cycles
 SCF Done:  E(RB3LYP) =  -495.833982587     A.U. after    8 cycles
 Optimization completed.
    -- Stationary point found.

                         Standard orientation:
 ---------------------------------------------------------------------
 Center     Atomic      Atomic             Coordinates (Angstroms)
 Number     Number       Type             X           Y           Z
 ---------------------------------------------------------------------
      1          1           0       -3.811400   -1.148392    0.778260
      2          6           0       -2.898515   -0.691379    1.163497
      3          1           0       -2.357218   -1.445644    1.748252
      4          1           0       -3.157986    0.136965    1.832385
      5          6           0       -2.039959   -0.245993   -0.014085
      6          8           0       -2.158486   -0.714591   -1.129837
      7          7           0       -1.157541    0.788706    0.284937
      8          1           0       -1.055349    0.960828    1.280441
      9          6           0        0.088012    1.009516   -0.464501
     10          1           0       -0.203472    1.040395   -1.518960
     11          6           0        0.678994    2.363727   -0.070114
     12          1           0        0.907622    2.421588    1.003652
     13          1           0        1.598042    2.570705   -0.627799
     14          1           0       -0.041312    3.157253   -0.289318
     15          6           0        1.037726   -0.218001   -0.387595
     16          8           0        0.804941   -1.243005   -1.008899
     17          7           0        2.124177   -0.082310    0.438303
     18          1           0        2.295881    0.805348    0.884949
     19          6           0        3.106316   -1.139058    0.609388
     20          1           0        2.758637   -1.998991    0.035549
     21          1           0        4.091522   -0.833722    0.236137
     22          1           0        3.201498   -1.423207    1.664119
 ---------------------------------------------------------------------

 The electronic state is 1-A.
 Alpha  occ. eigenvalues --  -19.10679 -19.10466 -14.36431 -14.35693 -10.28301
 Alpha  occ. eigenvalues --  -10.28133 -10.23731 -10.21906 -10.20324 -10.18802
 Alpha  occ. eigenvalues --   -1.03151  -1.02112  -0.92299  -0.91572  -0.78330
 Alpha  occ. eigenvalues --   -0.72755  -0.70821  -0.65060  -0.58569  -0.57779
 Alpha  occ. eigenvalues --   -0.53019  -0.48455  -0.47095  -0.45915  -0.44664
 Alpha  occ. eigenvalues --   -0.43735  -0.42989  -0.41888  -0.40061  -0.39611
 Alpha  occ. eigenvalues --   -0.39000  -0.38643  -0.37431  -0.35592  -0.34706
 Alpha  occ. eigenvalues --   -0.27479  -0.25227  -0.24538  -0.22495
 Alpha virt. eigenvalues --    0.01668   0.03804   0.06028   0.08713   0.11274
 Alpha virt. eigenvalues --    0.12536   0.13187   0.13977   0.15282   0.15925
 Alpha virt. eigenvalues --    0.16122   0.16666   0.17766   0.18195   0.19576

 Mulliken atomic charges:
              1
     1  H    0.188877
     2  C   -0.549657
     3  H    0.177544
     4  H    0.153491
     5  C    0.592264
     6  O   -0.467546
     7  N   -0.585621
     8  H    0.306107
     9  C   -0.031021
    10  H    0.195571
    11  C   -0.490927
    12  H    0.134959
    13  H    0.166712
    14  H    0.179182
    15  C    0.588460
    16  O   -0.490130
    17  N   -0.599746
    18  H    0.324007
    19  C   -0.312187
    20  H    0.208760
    21  H    0.156855
    22  H    0.154047
 Sum of Mulliken atomic charges =   0.00000

 Dipole moment (field-independent basis, Debye):
    X=              2.7312    Y=              3.4804    Z=              4.8468  Tot=              6.5623
 Quadrupole moment (field-independent basis, Debye-Ang):
   XX=            -54.7210   YY=            -60.1666   ZZ=            -61.0371
   XY=              0.2856   XZ=             -3.5911   YZ=             -4.2350

 Normal termination of Gaussian 09 at Sat Feb 11 00:24:21 2017.
