 Gaussian 09, Revision A.02,
 Gaussian 09:  EM64L-G09RevA.02 11-Jun-2009

 ----------------------------------------------------------------------
 # b3lyp/6-31G* Opt=(ModRedundant, maxcycles=1000, calcfc) geom=nocrowd
 ----------------------------------------------------------------------

 ------------------
 Phi Psi fixed scan
 ------------------
 Symbolic Z-matrix:
 Charge =  0 Multiplicity = 1

 SCF Done:  E(RB3LYP) =  -495.840894712     A.U. after   15 cycles

  Exact polarizability:   0.000   0.000   0.000   0.000   0.000   0.000
 Approx polarizability: 104.433  -5.530 127.886  -0.414  19.690 103.609

 SCF Done:  E(RB3LYP) =  -495.844925771     A.U. after   12 cycles
 SCF Done:  E(RB3LYP) =  -495.849365311     A.U. after   13 cycles
 SCF Done:  E(RB3LYP) =  -495.850748227     A.U. after   12 cycles
 SCF Done:  E(RB3LYP) =  -495.850525879     A.U. after   12 cycles
 SCF Done:  E(RB3LYP) =  -495.851238122     A.U. after   12 cycles
 SCF Done:  E(RB3LYP) =  -495.851735549     A.U. after   13 cycles
 SCF Done:  E(RB3LYP) =  -495.851768242     A.U. after   13 cycles
 SCF Done:  E(RB3LYP) =  -495.837460657     A.U. after   14 cycles
 SCF Done:  E(RB3LYP) =  -495.851791066     A.U. after   13 cycles
 SCF Done:  E(RB3LYP) =  -495.851870885     A.U. after    8 cycles
 SCF Done:  E(RB3LYP) =  -495.851873454     A.U. after    8 cycles
 SCF Done:  E(RB3LYP) =  -495.851883130     A.U. after   10 cycles
 SCF Done:  E(RB3LYP) =  -495.851913887     A.U. after   11 cycles
 SCF Done:  E(RB3LYP) =  -495.851944065     A.U. after   11 cycles
 SCF Done:  E(RB3LYP) =  -495.851971972     A.U. after   11 cycles
 SCF Done:  E(RB3LYP) =  -495.851981282     A.U. after   10 cycles
 SCF Done:  E(RB3LYP) =  -495.851984581     A.U. after   10 cycles
 SCF Done:  E(RB3LYP) =  -495.851984862     A.U. after    9 cycles
 SCF Done:  E(RB3LYP) =  -495.851984906     A.U. after    6 cycles
 Optimization completed.
    -- Stationary point found.

                         Standard orientation:
 ---------------------------------------------------------------------
 Center     Atomic      Atomic             Coordinates (Angstroms)
 Number     Number       Type             X           Y           Z
 ---------------------------------------------------------------------
      1          1           0       -3.751496   -1.286284    0.123934
      2          6           0       -3.026661   -0.742267    0.734580
      3          1           0       -2.768698   -1.380456    1.587302
      4          1           0       -3.487352    0.176168    1.110913
      5          6           0       -1.777718   -0.496879   -0.095486
      6          8           0       -1.304882   -1.371717   -0.820826
      7          7           0       -1.246780    0.759890   -0.012293
      8          1           0       -1.585736    1.351758    0.736021
      9          6           0        0.086655    1.101789   -0.533809
     10          1           0        0.074149    0.854745   -1.601309
     11          6           0        0.337760    2.593996   -0.346784
     12          1           0        0.439119    2.831216    0.716711
     13          1           0        1.272840    2.883160   -0.834406
     14          1           0       -0.478511    3.179039   -0.783114
     15          6           0        1.208950    0.270087    0.145995
     16          8           0        1.802191    0.689714    1.135243
     17          7           0        1.501013   -0.903892   -0.477010
     18          1           0        0.746587   -1.286878   -1.041064
     19          6           0        2.450053   -1.834941    0.113126
     20          1           0        3.286497   -1.268275    0.525643
     21          1           0        2.003558   -2.426129    0.924151
     22          1           0        2.816705   -2.514749   -0.660731
 ---------------------------------------------------------------------

 The electronic state is 1-A.
 Alpha  occ. eigenvalues --  -19.12297 -19.10638 -14.37165 -14.34633 -10.29883
 Alpha  occ. eigenvalues --  -10.27585 -10.23721 -10.20831 -10.20004 -10.18660
 Alpha  occ. eigenvalues --   -1.04162  -1.02255  -0.93101  -0.90824  -0.78335
 Alpha  occ. eigenvalues --   -0.73423  -0.70507  -0.63756  -0.59606  -0.56406
 Alpha  occ. eigenvalues --   -0.52672  -0.49498  -0.48551  -0.45973  -0.44951
 Alpha  occ. eigenvalues --   -0.43620  -0.41864  -0.41717  -0.40939  -0.39164
 Alpha  occ. eigenvalues --   -0.38517  -0.37823  -0.37030  -0.35872  -0.35543
 Alpha  occ. eigenvalues --   -0.28151  -0.26300  -0.24776  -0.23173
 Alpha virt. eigenvalues --    0.01247   0.02680   0.07208   0.10533   0.11940
 Alpha virt. eigenvalues --    0.12702   0.13564   0.14898   0.15560   0.16566
 Alpha virt. eigenvalues --    0.17064   0.17240   0.18205   0.18986   0.20662

 Mulliken atomic charges:
              1
     1  H    0.190992
     2  C   -0.538368
     3  H    0.188146
     4  H    0.152552
     5  C    0.601029
     6  O   -0.525662
     7  N   -0.583902
     8  H    0.329217
     9  C   -0.034852
    10  H    0.164654
    11  C   -0.474257
    12  H    0.174637
    13  H    0.169499
    14  H    0.149461
    15  C    0.591215
    16  O   -0.525713
    17  N   -0.585978
    18  H    0.363162
    19  C   -0.304966
    20  H    0.187220
    21  H    0.158512
    22  H    0.153403
 Sum of Mulliken atomic charges =   0.00000

 Dipole moment (field-independent basis, Debye):
    X=             -2.2014    Y=              0.6264    Z=             -0.0508  Tot=              2.2894
 Quadrupole moment (field-independent basis, Debye-Ang):
   XX=            -57.3203   YY=            -57.7609   ZZ=            -62.1267
   XY=             -6.2887   XZ=             -7.9522   YZ=             -3.0671

 Normal termination of Gaussian 09 at Sat Feb 11 00:40:29 2017.
