 Gaussian 09, Revision A.02,
 Gaussian 09:  EM64L-G09RevA.02 11-Jun-2009

 ----------------------------------------------------------------------
 # b3lyp/6-31G* Opt=(ModRedundant, maxcycles=1000, calcfc) geom=nocrowd
 ----------------------------------------------------------------------

 ------------------
 Phi Psi fixed scan
 ------------------
 Symbolic Z-matrix:
 Charge =  0 Multiplicity = 1

 SCF Done:  E(RB3LYP) =  -495.837552785     A.U. after   16 cycles

  Exact polarizability:   0.000   0.000   0.000   0.000   0.000   0.000
 Approx polarizability: 110.957  -5.368 113.320 -15.537  -2.800 111.285

 SCF Done:  E(RB3LYP) =  -495.841859020     A.U. after   12 cycles
 SCF Done:  E(RB3LYP) =  -495.845553645     A.U. after   14 cycles
 SCF Done:  E(RB3LYP) =  -495.845871377     A.U. after   12 cycles
 SCF Done:  E(RB3LYP) =  -495.846174947     A.U. after   14 cycles
 SCF Done:  E(RB3LYP) =  -495.845928326     A.U. after   12 cycles
 SCF Done:  E(RB3LYP) =  -495.846242505     A.U. after   12 cycles
 SCF Done:  E(RB3LYP) =  -495.846251371     A.U. after   10 cycles
 SCF Done:  E(RB3LYP) =  -495.846252497     A.U. after    9 cycles
 SCF Done:  E(RB3LYP) =  -495.846253152     A.U. after    9 cycles
 SCF Done:  E(RB3LYP) =  -495.846254031     A.U. after    9 cycles
 SCF Done:  E(RB3LYP) =  -495.846254427     A.U. after    7 cycles
 SCF Done:  E(RB3LYP) =  -495.846255188     A.U. after    8 cycles
 SCF Done:  E(RB3LYP) =  -495.846258202     A.U. after   10 cycles
 SCF Done:  E(RB3LYP) =  -495.846262213     A.U. after   10 cycles
 SCF Done:  E(RB3LYP) =  -495.846262796     A.U. after   10 cycles
 SCF Done:  E(RB3LYP) =  -495.846262822     A.U. after    8 cycles
 SCF Done:  E(RB3LYP) =  -495.846262785     A.U. after    6 cycles
 Optimization completed.
    -- Stationary point found.

                         Standard orientation:
 ---------------------------------------------------------------------
 Center     Atomic      Atomic             Coordinates (Angstroms)
 Number     Number       Type             X           Y           Z
 ---------------------------------------------------------------------
      1          1           0        3.353501   -1.641130   -0.566509
      2          6           0        3.216280   -0.570813   -0.392837
      3          1           0        3.371181   -0.028927   -1.331506
      4          1           0        3.984122   -0.254217    0.321680
      5          6           0        1.844392   -0.344013    0.228600
      6          8           0        1.407875   -1.052826    1.127167
      7          7           0        1.142814    0.722358   -0.269055
      8          1           0        1.548372    1.258174   -1.023582
      9          6           0       -0.145309    1.173176    0.258063
     10          1           0       -0.021855    1.388462    1.326089
     11          6           0       -0.569298    2.458002   -0.461945
     12          1           0       -0.696853    2.281362   -1.537084
     13          1           0       -1.523635    2.797181   -0.054831
     14          1           0        0.175692    3.249174   -0.320432
     15          6           0       -1.315263    0.162564    0.222910
     16          8           0       -2.340725    0.444891    0.832153
     17          7           0       -1.177500   -0.942298   -0.558273
     18          1           0       -0.240652   -1.193483   -0.835031
     19          6           0       -2.181612   -1.993693   -0.554965
     20          1           0       -3.139300   -1.542030   -0.293967
     21          1           0       -2.249786   -2.448443   -1.548247
     22          1           0       -1.950325   -2.774409    0.181194
 ---------------------------------------------------------------------

 The electronic state is 1-A.
 Alpha  occ. eigenvalues --  -19.11699 -19.10227 -14.37171 -14.35344 -10.29602
 Alpha  occ. eigenvalues --  -10.27795 -10.23800 -10.21037 -10.20168 -10.19334
 Alpha  occ. eigenvalues --   -1.03909  -1.02223  -0.93233  -0.91026  -0.78481
 Alpha  occ. eigenvalues --   -0.73559  -0.70543  -0.64440  -0.59861  -0.57457
 Alpha  occ. eigenvalues --   -0.52651  -0.50115  -0.48207  -0.45678  -0.45070
 Alpha  occ. eigenvalues --   -0.43539  -0.42447  -0.41740  -0.40593  -0.39454
 Alpha  occ. eigenvalues --   -0.38915  -0.38416  -0.37766  -0.36227  -0.34211
 Alpha  occ. eigenvalues --   -0.27538  -0.25868  -0.24606  -0.23404
 Alpha virt. eigenvalues --    0.01720   0.03280   0.06144   0.10241   0.11220
 Alpha virt. eigenvalues --    0.12453   0.14193   0.14270   0.15064   0.15773
 Alpha virt. eigenvalues --    0.16760   0.17277   0.17864   0.18351   0.19457

 Mulliken atomic charges:
              1
     1  H    0.186296
     2  C   -0.538595
     3  H    0.145250
     4  H    0.191018
     5  C    0.572644
     6  O   -0.502599
     7  N   -0.623356
     8  H    0.327349
     9  C    0.002569
    10  H    0.185722
    11  C   -0.488825
    12  H    0.150989
    13  H    0.197345
    14  H    0.151859
    15  C    0.617303
    16  O   -0.530984
    17  N   -0.582599
    18  H    0.334702
    19  C   -0.310642
    20  H    0.197528
    21  H    0.149386
    22  H    0.167640
 Sum of Mulliken atomic charges =   0.00000

 Dipole moment (field-independent basis, Debye):
    X=              3.2305    Y=              0.8604    Z=             -4.0916  Tot=              5.2837
 Quadrupole moment (field-independent basis, Debye-Ang):
   XX=            -60.7069   YY=            -55.3609   ZZ=            -62.4386
   XY=              5.7956   XZ=             -0.1388   YZ=              2.2569

 Normal termination of Gaussian 09 at Sat Feb 11 00:33:07 2017.
