 Gaussian 09, Revision A.02,
 Gaussian 09:  EM64L-G09RevA.02 11-Jun-2009

 ----------------------------------------------------------------------
 # b3lyp/6-31G* Opt=(ModRedundant, maxcycles=1000, calcfc) geom=nocrowd
 ----------------------------------------------------------------------

 ------------------
 Phi Psi fixed scan
 ------------------
 Symbolic Z-matrix:
 Charge =  0 Multiplicity = 1

 SCF Done:  E(RB3LYP) =  -495.812319641     A.U. after   16 cycles

  Exact polarizability:   0.000   0.000   0.000   0.000   0.000   0.000
 Approx polarizability: 120.198  10.725 125.012  -4.578   8.097  91.884

 SCF Done:  E(RB3LYP) =  -495.819613609     A.U. after   17 cycles
 SCF Done:  E(RB3LYP) =  -495.829180567     A.U. after   14 cycles
 SCF Done:  E(RB3LYP) =  -495.834180318     A.U. after   12 cycles
 SCF Done:  E(RB3LYP) =  -495.835343275     A.U. after   15 cycles
 SCF Done:  E(RB3LYP) =  -495.837092301     A.U. after   14 cycles
 SCF Done:  E(RB3LYP) =  -495.833025798     A.U. after   15 cycles
 SCF Done:  E(RB3LYP) =  -495.837800922     A.U. after   13 cycles
 SCF Done:  E(RB3LYP) =  -495.838177341     A.U. after   13 cycles
 SCF Done:  E(RB3LYP) =  -495.838127006     A.U. after   14 cycles
 SCF Done:  E(RB3LYP) =  -495.838477213     A.U. after   12 cycles
 SCF Done:  E(RB3LYP) =  -495.838591512     A.U. after   11 cycles
 SCF Done:  E(RB3LYP) =  -495.838622812     A.U. after   11 cycles
 SCF Done:  E(RB3LYP) =  -495.838627285     A.U. after    8 cycles
 SCF Done:  E(RB3LYP) =  -495.838632361     A.U. after    9 cycles
 SCF Done:  E(RB3LYP) =  -495.838639603     A.U. after   10 cycles
 SCF Done:  E(RB3LYP) =  -495.838646423     A.U. after   10 cycles
 SCF Done:  E(RB3LYP) =  -495.838652542     A.U. after   10 cycles
 SCF Done:  E(RB3LYP) =  -495.838653418     A.U. after   10 cycles
 SCF Done:  E(RB3LYP) =  -495.838653502     A.U. after    7 cycles
 Optimization completed.
    -- Stationary point found.

                         Standard orientation:
 ---------------------------------------------------------------------
 Center     Atomic      Atomic             Coordinates (Angstroms)
 Number     Number       Type             X           Y           Z
 ---------------------------------------------------------------------
      1          1           0        3.802515   -1.261348   -0.376433
      2          6           0        2.956571   -0.781094   -0.870801
      3          1           0        2.399973   -1.541422   -1.431656
      4          1           0        3.322124   -0.028744   -1.579024
      5          6           0        2.036027   -0.187810    0.180649
      6          8           0        2.043439   -0.536547    1.346970
      7          7           0        1.225732    0.859065   -0.274679
      8          1           0        1.197196    0.915297   -1.289449
      9          6           0       -0.101246    1.019976    0.313947
     10          1           0        0.061522    1.069172    1.397867
     11          6           0       -0.716749    2.341410   -0.159448
     12          1           0       -0.981489    2.309719   -1.223216
     13          1           0       -1.617445    2.604355    0.406793
     14          1           0        0.005789    3.148421   -0.008640
     15          6           0       -0.962910   -0.256606    0.079258
     16          8           0       -0.451610   -1.355462   -0.087426
     17          7           0       -2.312363   -0.056206   -0.020959
     18          1           0       -2.688331    0.850167    0.212944
     19          6           0       -3.245098   -1.166070   -0.140264
     20          1           0       -2.704835   -2.010234   -0.569950
     21          1           0       -3.651427   -1.470728    0.833064
     22          1           0       -4.073378   -0.887417   -0.799228
 ---------------------------------------------------------------------

 The electronic state is 1-A.
 Alpha  occ. eigenvalues --  -19.11363 -19.09959 -14.36707 -14.34721 -10.28676
 Alpha  occ. eigenvalues --  -10.27596 -10.23718 -10.22120 -10.20116 -10.17988
 Alpha  occ. eigenvalues --   -1.03656  -1.01671  -0.92325  -0.91357  -0.77935
 Alpha  occ. eigenvalues --   -0.72292  -0.70880  -0.64694  -0.58681  -0.56977
 Alpha  occ. eigenvalues --   -0.53104  -0.47593  -0.47080  -0.45801  -0.45063
 Alpha  occ. eigenvalues --   -0.43653  -0.42815  -0.41671  -0.39932  -0.39444
 Alpha  occ. eigenvalues --   -0.38870  -0.38448  -0.37708  -0.35314  -0.33854
 Alpha  occ. eigenvalues --   -0.27154  -0.25518  -0.24392  -0.22999
 Alpha virt. eigenvalues --    0.01911   0.03881   0.06260   0.08839   0.11450
 Alpha virt. eigenvalues --    0.12873   0.13920   0.14286   0.15253   0.15883
 Alpha virt. eigenvalues --    0.16389   0.16628   0.17833   0.18989   0.20047

 Mulliken atomic charges:
              1
     1  H    0.182724
     2  C   -0.553719
     3  H    0.189909
     4  H    0.150952
     5  C    0.614533
     6  O   -0.491897
     7  N   -0.572180
     8  H    0.308018
     9  C   -0.066420
    10  H    0.197254
    11  C   -0.481654
    12  H    0.155401
    13  H    0.145150
    14  H    0.179336
    15  C    0.603727
    16  O   -0.504662
    17  N   -0.593831
    18  H    0.326066
    19  C   -0.308360
    20  H    0.203083
    21  H    0.162558
    22  H    0.154011
 Sum of Mulliken atomic charges =   0.00000

 Dipole moment (field-independent basis, Debye):
    X=             -3.5546    Y=              3.0642    Z=             -2.6826  Tot=              5.4056
 Quadrupole moment (field-independent basis, Debye-Ang):
   XX=            -51.5586   YY=            -60.6701   ZZ=            -61.2144
   XY=             -0.7363   XZ=             -7.6028   YZ=              1.8146

 Normal termination of Gaussian 09 at Sat Feb 11 00:35:27 2017.
