 Gaussian 09, Revision A.02,
 Gaussian 09:  EM64L-G09RevA.02 11-Jun-2009

 -------------------
 #SP MP2/aug-cc-pVDZ
 -------------------

 ------------------
 Phi Psi fixed scan
 ------------------
 Symbolic Z-matrix:
 Charge =  0 Multiplicity = 1

                         Standard orientation:
 ---------------------------------------------------------------------
 Center     Atomic      Atomic             Coordinates (Angstroms)
 Number     Number       Type             X           Y           Z
 ---------------------------------------------------------------------
      1          1           0       -3.373261   -3.943921    1.145099
      2          6           0       -3.837469   -2.983125    1.389199
      3          1           0       -3.408972   -2.606922    2.323199
      4          1           0       -4.906567   -3.165734    1.534899
      5          6           0       -3.656977   -2.038824    0.209899
      6          8           0       -4.103175   -2.293927   -0.905301
      7          7           0       -2.970886   -0.891618    0.475199
      8          1           0       -2.544888   -0.710314    1.376599
      9          6           0       -2.655194    0.069185   -0.562101
     10          1           0       -2.353990   -0.481713   -1.462401
     11          6           0       -3.865801    0.957175   -0.915701
     12          1           0       -4.186106    1.533972   -0.041901
     13          1           0       -3.629107    1.656177   -1.726301
     14          1           0       -4.686696    0.314368   -1.241801
     15          6           0       -1.479101    0.914294   -0.047001
     16          8           0       -1.167401    0.934197    1.140699
     17          7           0       -0.824307    1.641500   -0.997601
     18          1           0       -1.179907    1.611197   -1.943301
     19          6           0        0.202485    2.644608   -0.683701
     20          1           0        0.595082    2.969111   -1.655801
     21          6           0       -0.363525    3.862503    0.053699
     22          1           0       -0.806823    3.556100    1.004099
     23          1           0        0.441169    4.569810    0.262899
     24          1           0       -1.128329    4.352497   -0.558001
     25          6           0        1.416890    2.054418    0.074899
     26          8           0        2.110284    2.764524    0.796499
     27          7           0        1.705400    0.759021   -0.192601
     28          1           0        1.092805    0.182615   -0.756801
     29          6           0        2.802706    0.061330    0.446399
     30          1           0        3.687501    0.708737    0.411499
     31          6           0        2.494409   -0.279173    1.918699
     32          1           0        1.609614   -0.920280    1.980999
     33          1           0        3.337913   -0.794966    2.391599
     34          1           0        2.297601    0.646725    2.463999
     35          6           0        3.046217   -1.216868   -0.371501
     36          8           0        2.169320   -1.694176   -1.087901
     37          7           0        4.273421   -1.779658   -0.208301
     38          1           0        4.942717   -1.308153    0.383599
     39          6           0        4.661331   -3.030055   -0.839501
     40          1           0        3.811334   -3.376062   -1.428501
     41          1           0        5.522430   -2.886248   -1.502101
     42          1           0        4.913038   -3.789453   -0.090101
 ---------------------------------------------------------------------

 SCF Done:  E(RHF) =  -984.695645534     A.U. after   15 cycles
 E2 =    -0.3195301915D+01 EUMP2 =    -0.98789094744820D+03

 The electronic state is 1-A.
 Alpha  occ. eigenvalues --  -20.55351 -20.54312 -20.52914 -20.52429 -15.61532
 Alpha  occ. eigenvalues --  -15.60716 -15.59034 -15.58664 -11.37872 -11.37087
 Alpha  occ. eigenvalues --  -11.36066 -11.35882 -11.30363 -11.29805 -11.29401
 Alpha  occ. eigenvalues --  -11.27676 -11.24262 -11.24029 -11.23265 -11.22669
 Alpha  occ. eigenvalues --   -1.40858  -1.39804  -1.38227  -1.37809  -1.25952
 Alpha  occ. eigenvalues --   -1.24490  -1.23724  -1.23303  -1.07203  -1.04720
 Alpha  occ. eigenvalues --   -1.02690  -0.98686  -0.96355  -0.91655  -0.89938
 Alpha  occ. eigenvalues --   -0.86704  -0.82121  -0.79755  -0.78691  -0.78354
 Alpha  occ. eigenvalues --   -0.74349  -0.72779  -0.68902  -0.67474  -0.66864
 Alpha  occ. eigenvalues --   -0.66321  -0.64276  -0.64092  -0.63369  -0.63052
 Alpha  occ. eigenvalues --   -0.61369  -0.61229  -0.60270  -0.59128  -0.58618
 Alpha  occ. eigenvalues --   -0.58053  -0.56827  -0.56115  -0.55799  -0.55352
 Alpha  occ. eigenvalues --   -0.54870  -0.54305  -0.53263  -0.53104  -0.52612
 Alpha  occ. eigenvalues --   -0.51991  -0.51979  -0.49985  -0.49388  -0.44415
 Alpha  occ. eigenvalues --   -0.43790  -0.43528  -0.42057  -0.40654  -0.40456
 Alpha  occ. eigenvalues --   -0.38990  -0.38615
 Alpha virt. eigenvalues --    0.02658   0.02936   0.03669   0.04311   0.04576
 Alpha virt. eigenvalues --    0.04627   0.04987   0.05831   0.06021   0.06192
 Alpha virt. eigenvalues --    0.06699   0.06961   0.07094   0.07715   0.07874

 Mulliken atomic charges:
              1
     1  H    0.050274
     2  C    0.369105
     3  H   -0.174059
     4  H    0.028006
     5  C    0.475682
     6  O   -0.877894
     7  N   -0.091998
     8  H   -0.085954
     9  C   -0.302284
    10  H   -0.147301
    11  C    0.867740
    12  H   -0.030850
    13  H   -0.083366
    14  H   -0.072367
    15  C    1.091240
    16  O   -0.885174
    17  N   -0.059648
    18  H   -0.136365
    19  C   -0.367483
    20  H   -0.227086
    21  C    0.893866
    22  H   -0.056142
    23  H   -0.070711
    24  H   -0.050237
    25  C    0.727658
    26  O   -0.899165
    27  N   -0.058606
    28  H   -0.043947
    29  C   -0.329079
    30  H   -0.251793
    31  C    0.961221
    32  H   -0.011821
    33  H   -0.159407
    34  H   -0.047375
    35  C    1.129108
    36  O   -0.882760
    37  N   -0.440575
    38  H   -0.129990
    39  C    0.723427
    40  H   -0.144495
    41  H   -0.100831
    42  H   -0.098561
 Sum of Mulliken atomic charges =   0.00000

 Dipole moment (field-independent basis, Debye):
    X=              2.8351    Y=             -0.1385    Z=             -0.1265  Tot=              2.8413
 Quadrupole moment (field-independent basis, Debye-Ang):
   XX=           -109.7075   YY=           -126.9290   ZZ=           -121.3353
   XY=            -22.4821   XZ=             -6.9165   YZ=            -20.8792

 Normal termination of Gaussian 09 at Thu Jan 19 12:52:51 2017.
