 Gaussian 09, Revision A.02,
 Gaussian 09:  EM64L-G09RevA.02 11-Jun-2009

 -------------------
 #SP MP2/aug-cc-pVDZ
 -------------------

 ------------------
 Phi Psi fixed scan
 ------------------
 Symbolic Z-matrix:
 Charge =  0 Multiplicity = 1

                         Standard orientation:
 ---------------------------------------------------------------------
 Center     Atomic      Atomic             Coordinates (Angstroms)
 Number     Number       Type             X           Y           Z
 ---------------------------------------------------------------------
      1          1           0        5.005201   -3.565696   -0.466601
      2          6           0        5.210301   -2.627496   -0.992301
      3          1           0        4.661501   -2.622696   -1.939001
      4          1           0        6.284000   -2.599295   -1.201201
      5          6           0        4.857199   -1.465196   -0.075201
      6          8           0        5.416299   -1.296296    1.005499
      7          7           0        3.888999   -0.626497   -0.537801
      8          1           0        3.349599   -0.834998   -1.370501
      9          6           0        3.361798    0.455003    0.270399
     10          1           0        3.238098    0.090502    1.298999
     11          6           0        4.306796    1.672403    0.291799
     12          1           0        4.439296    2.071504   -0.719301
     13          1           0        3.917396    2.471803    0.931699
     14          1           0        5.276997    1.354504    0.680899
     15          6           0        1.981097    0.811601   -0.306101
     16          8           0        1.601998    0.367901   -1.384301
     17          7           0        1.265296    1.718601    0.435099
     18          1           0        1.570396    1.798501    1.397199
     19          6           0       -0.173904    1.885699    0.248399
     20          1           0       -0.492504    2.585299    1.031799
     21          6           0       -0.519304    2.513099   -1.112601
     22          1           0       -0.297004    1.821099   -1.925401
     23          1           0       -1.575705    2.798098   -1.159801
     24          1           0        0.075995    3.420299   -1.253401
     25          6           0       -0.906902    0.545998    0.537399
     26          8           0       -0.313502   -0.443201    0.953299
     27          7           0       -2.256902    0.586497    0.393599
     28          1           0       -2.737103    1.366897   -0.041501
     29          6           0       -3.085901   -0.588904    0.592099
     30          1           0       -2.559501   -1.457803    0.177199
     31          6           0       -3.364601   -0.850804    2.084699
     32          1           0       -3.901902   -0.005904    2.527599
     33          1           0       -3.964600   -1.756704    2.226799
     34          1           0       -2.412301   -0.982203    2.604299
     35          6           0       -4.387902   -0.344105   -0.190601
     36          8           0       -4.695203    0.779595   -0.583501
     37          7           0       -5.160901   -1.444605   -0.381801
     38          1           0       -4.814600   -2.336705   -0.058101
     39          6           0       -6.443201   -1.403507   -1.065801
     40          1           0       -6.639002   -0.364407   -1.332101
     41          1           0       -6.422500   -2.009507   -1.978801
     42          1           0       -7.246800   -1.767307   -0.415501
 ---------------------------------------------------------------------

 SCF Done:  E(RHF) =  -984.693377874     A.U. after   15 cycles
 E2 =    -0.3192958644D+01 EUMP2 =    -0.98788633651763D+03

 The electronic state is 1-A.
 Alpha  occ. eigenvalues --  -20.54936 -20.54278 -20.53703 -20.51673 -15.61202
 Alpha  occ. eigenvalues --  -15.59928 -15.59501 -15.58056 -11.37703 -11.36713
 Alpha  occ. eigenvalues --  -11.36507 -11.35090 -11.30331 -11.30099 -11.28640
 Alpha  occ. eigenvalues --  -11.28063 -11.24287 -11.23656 -11.23629 -11.22953
 Alpha  occ. eigenvalues --   -1.40512  -1.39981  -1.38697  -1.36995  -1.25028
 Alpha  occ. eigenvalues --   -1.24542  -1.24325  -1.22734  -1.07316  -1.04828
 Alpha  occ. eigenvalues --   -1.02105  -0.97903  -0.96853  -0.91517  -0.89839
 Alpha  occ. eigenvalues --   -0.86929  -0.81730  -0.79435  -0.78696  -0.77433
 Alpha  occ. eigenvalues --   -0.74147  -0.72525  -0.68516  -0.68152  -0.66427
 Alpha  occ. eigenvalues --   -0.65863  -0.65050  -0.64257  -0.63336  -0.62524
 Alpha  occ. eigenvalues --   -0.61075  -0.60539  -0.60405  -0.59364  -0.58214
 Alpha  occ. eigenvalues --   -0.57082  -0.56688  -0.56104  -0.55907  -0.55379
 Alpha  occ. eigenvalues --   -0.54644  -0.54421  -0.53887  -0.53750  -0.52433
 Alpha  occ. eigenvalues --   -0.52302  -0.51533  -0.49991  -0.48501  -0.44408
 Alpha  occ. eigenvalues --   -0.43804  -0.42883  -0.41343  -0.41278  -0.40644
 Alpha  occ. eigenvalues --   -0.39432  -0.38116
 Alpha virt. eigenvalues --    0.02528   0.03069   0.03904   0.04013   0.04477
 Alpha virt. eigenvalues --    0.04804   0.04864   0.05717   0.05957   0.06335
 Alpha virt. eigenvalues --    0.06533   0.06916   0.07100   0.07366   0.07974

 Mulliken atomic charges:
              1
     1  H    0.043081
     2  C    0.366736
     3  H   -0.168678
     4  H    0.035600
     5  C    0.476526
     6  O   -0.877516
     7  N   -0.174802
     8  H   -0.063639
     9  C   -0.146281
    10  H   -0.131332
    11  C    0.872152
    12  H   -0.044570
    13  H   -0.078611
    14  H   -0.070866
    15  C    1.191419
    16  O   -0.935158
    17  N   -0.383594
    18  H   -0.054894
    19  C    0.045327
    20  H   -0.228205
    21  C    0.711330
    22  H    0.027734
    23  H   -0.145580
    24  H   -0.068876
    25  C    0.648062
    26  O   -0.825650
    27  N   -0.361019
    28  H   -0.076257
    29  C   -0.224402
    30  H   -0.156463
    31  C    0.891958
    32  H   -0.058108
    33  H   -0.106606
    34  H   -0.055320
    35  C    1.244347
    36  O   -0.901379
    37  N   -0.476922
    38  H   -0.119637
    39  C    0.705520
    40  H   -0.144477
    41  H   -0.081465
    42  H   -0.099483
 Sum of Mulliken atomic charges =   0.00000

 Dipole moment (field-independent basis, Debye):
    X=             -5.2771    Y=             -0.3523    Z=             -0.3451  Tot=              5.3001
 Quadrupole moment (field-independent basis, Debye-Ang):
   XX=           -125.7814   YY=           -108.7598   ZZ=           -124.0179
   XY=             20.9129   XZ=            -13.5364   YZ=             10.3266

 Normal termination of Gaussian 09 at Thu Jan 19 06:55:02 2017.
