 Gaussian 09, Revision A.02,
 Gaussian 09:  EM64L-G09RevA.02 11-Jun-2009

 -------------------
 #SP MP2/aug-cc-pVDZ
 -------------------

 ------------------
 Phi Psi fixed scan
 ------------------
 Symbolic Z-matrix:
 Charge =  0 Multiplicity = 1

                         Standard orientation:
 ---------------------------------------------------------------------
 Center     Atomic      Atomic             Coordinates (Angstroms)
 Number     Number       Type             X           Y           Z
 ---------------------------------------------------------------------
      1          1           0       -5.538016   -2.898280    1.350699
      2          6           0       -4.448116   -2.810883    1.306999
      3          1           0       -4.046619   -3.818384    1.158499
      4          1           0       -4.083215   -2.418084    2.260899
      5          6           0       -4.072213   -1.951784    0.108799
      6          8           0       -4.418614   -2.237483   -1.034301
      7          7           0       -3.330310   -0.843987    0.390299
      8          1           0       -2.981909   -0.646288    1.321199
      9          6           0       -2.835007    0.032712   -0.651301
     10          1           0       -2.493909   -0.586389   -1.491001
     11          6           0       -3.927804    0.991615   -1.166101
     12          1           0       -4.282402    1.639016   -0.357401
     13          1           0       -3.558702    1.624214   -1.982001
     14          1           0       -4.764006    0.397518   -1.542401
     15          6           0       -1.646605    0.806208   -0.055801
     16          8           0       -1.449005    0.854608    1.154499
     17          7           0       -0.836303    1.418506   -0.965701
     18          1           0       -1.129303    1.399207   -1.933501
     19          6           0        0.196000    2.402803   -0.599101
     20          1           0        0.722601    2.627201   -1.534201
     21          6           0       -0.389196    3.689704   -0.016401
     22          1           0       -0.910396    3.477006    0.918899
     23          1           0        0.411106    4.402402    0.198799
     24          1           0       -1.086694    4.142407   -0.729401
     25          6           0        1.244398    1.781899    0.360799
     26          8           0        1.534900    2.294199    1.433699
     27          7           0        1.906495    0.713097   -0.157401
     28          1           0        1.588994    0.252598   -1.003401
     29          6           0        2.892393   -0.029606    0.604899
     30          1           0        3.593095    0.690592    1.044399
     31          6           0        2.258090   -0.861104    1.738699
     32          1           0        1.575788   -1.610102    1.323699
     33          1           0        3.025789   -1.377306    2.326499
     34          1           0        1.696792   -0.196102    2.398999
     35          6           0        3.618290   -0.943008   -0.394601
     36          8           0        3.081689   -1.291406   -1.443901
     37          7           0        4.854689   -1.355512   -0.007801
     38          1           0        5.230990   -0.996713    0.858399
     39          6           0        5.660586   -2.280914   -0.786701
     40          1           0        5.079085   -2.559612   -1.666101
     41          1           0        6.597487   -1.812817   -1.110001
     42          1           0        5.894783   -3.182015   -0.208501
 ---------------------------------------------------------------------

 SCF Done:  E(RHF) =  -984.693075586     A.U. after   15 cycles
 E2 =    -0.3194298310D+01 EUMP2 =    -0.98788737389589D+03

 The electronic state is 1-A.
 Alpha  occ. eigenvalues --  -20.55141 -20.54355 -20.53039 -20.52462 -15.61397
 Alpha  occ. eigenvalues --  -15.60806 -15.59023 -15.58837 -11.37681 -11.37147
 Alpha  occ. eigenvalues --  -11.36050 -11.35907 -11.30355 -11.29754 -11.29483
 Alpha  occ. eigenvalues --  -11.27740 -11.24289 -11.24040 -11.23367 -11.22735
 Alpha  occ. eigenvalues --   -1.40693  -1.39855  -1.38300  -1.37822  -1.25745
 Alpha  occ. eigenvalues --   -1.24567  -1.23700  -1.23390  -1.07220  -1.04802
 Alpha  occ. eigenvalues --   -1.02625  -0.98701  -0.96443  -0.91733  -0.89977
 Alpha  occ. eigenvalues --   -0.86540  -0.82135  -0.79763  -0.78692  -0.78158
 Alpha  occ. eigenvalues --   -0.74202  -0.72617  -0.68632  -0.67527  -0.66830
 Alpha  occ. eigenvalues --   -0.66253  -0.64371  -0.64080  -0.63654  -0.62969
 Alpha  occ. eigenvalues --   -0.61401  -0.61241  -0.60411  -0.59127  -0.58693
 Alpha  occ. eigenvalues --   -0.58240  -0.56833  -0.56180  -0.55782  -0.55361
 Alpha  occ. eigenvalues --   -0.54788  -0.53890  -0.53325  -0.53023  -0.52700
 Alpha  occ. eigenvalues --   -0.52084  -0.51924  -0.50421  -0.49412  -0.44372
 Alpha  occ. eigenvalues --   -0.43674  -0.43321  -0.42083  -0.40785  -0.40463
 Alpha  occ. eigenvalues --   -0.39045  -0.38677
 Alpha virt. eigenvalues --    0.02651   0.02927   0.03664   0.04268   0.04538
 Alpha virt. eigenvalues --    0.04557   0.04919   0.05852   0.05898   0.06092
 Alpha virt. eigenvalues --    0.06738   0.06878   0.07148   0.07305   0.07963

 Mulliken atomic charges:
              1
     1  H    0.035160
     2  C    0.372902
     3  H    0.045664
     4  H   -0.169922
     5  C    0.478574
     6  O   -0.878048
     7  N   -0.099608
     8  H   -0.083052
     9  C   -0.268234
    10  H   -0.159408
    11  C    0.842173
    12  H   -0.022672
    13  H   -0.087157
    14  H   -0.077500
    15  C    1.124096
    16  O   -0.909954
    17  N   -0.155406
    18  H   -0.151586
    19  C   -0.196669
    20  H   -0.268404
    21  C    0.837282
    22  H    0.003792
    23  H   -0.086246
    24  H   -0.019460
    25  C    0.759984
    26  O   -0.874330
    27  N   -0.265083
    28  H   -0.065788
    29  C   -0.194605
    30  H   -0.245868
    31  C    0.918940
    32  H   -0.010377
    33  H   -0.151213
    34  H   -0.032628
    35  C    1.140779
    36  O   -0.896470
    37  N   -0.448126
    38  H   -0.122823
    39  C    0.711664
    40  H   -0.143019
    41  H   -0.086069
    42  H   -0.101281
 Sum of Mulliken atomic charges =   0.00000

 Dipole moment (field-independent basis, Debye):
    X=              3.3791    Y=              0.3149    Z=             -0.0319  Tot=              3.3939
 Quadrupole moment (field-independent basis, Debye-Ang):
   XX=           -105.1746   YY=           -124.8456   ZZ=           -126.1384
   XY=            -16.0872   XZ=             -3.7961   YZ=            -22.8152

 Normal termination of Gaussian 09 at Thu Jan 19 14:42:23 2017.
