 Gaussian 09, Revision A.02,
 Gaussian 09:  EM64L-G09RevA.02 11-Jun-2009

 -------------------
 #SP MP2/aug-cc-pVDZ
 -------------------

 ------------------
 Phi Psi fixed scan
 ------------------
 Symbolic Z-matrix:
 Charge =  0 Multiplicity = 1

                         Standard orientation:
 ---------------------------------------------------------------------
 Center     Atomic      Atomic             Coordinates (Angstroms)
 Number     Number       Type             X           Y           Z
 ---------------------------------------------------------------------
      1          1           0       -3.522005    3.785696    0.565893
      2          6           0       -3.703104    3.091196   -0.260107
      3          1           0       -2.935604    3.237097   -1.026107
      4          1           0       -4.681504    3.338295   -0.684407
      5          6           0       -3.751202    1.675396    0.293993
      6          8           0       -4.522702    1.350295    1.192693
      7          7           0       -2.887501    0.790297   -0.278807
      8          1           0       -2.205902    1.070598   -0.974407
      9          6           0       -2.781500   -0.579003    0.185293
     10          1           0       -2.872600   -0.573703    1.278793
     11          6           0       -3.893499   -1.477704   -0.392207
     12          1           0       -3.828699   -1.509204   -1.484607
     13          1           0       -3.817898   -2.501004   -0.007707
     14          1           0       -4.862900   -1.065205   -0.101907
     15          6           0       -1.392899   -1.086701   -0.230707
     16          8           0       -0.788200   -0.562301   -1.169207
     17          7           0       -0.940998   -2.171901    0.447793
     18          1           0       -1.459498   -2.419502    1.280393
     19          6           0        0.395602   -2.790000    0.330793
     20          1           0        0.426403   -3.555600    1.107693
     21          6           0        0.585703   -3.459699   -1.040207
     22          1           0        0.534002   -2.724199   -1.845907
     23          1           0        1.561004   -3.955998   -1.077007
     24          1           0       -0.193696   -4.211400   -1.202407
     25          6           0        1.605001   -1.883398    0.678693
     26          8           0        2.390902   -2.260497    1.548593
     27          7           0        1.789500   -0.752898   -0.042707
     28          1           0        1.082100   -0.428299   -0.702707
     29          6           0        2.921199    0.116203    0.231693
     30          1           0        3.127199    0.062903    1.307093
     31          6           0        4.184100   -0.335796   -0.528507
     32          1           0        4.009500   -0.304096   -1.608907
     33          1           0        5.039699    0.308405   -0.295607
     34          1           0        4.430601   -1.359795   -0.235407
     35          6           0        2.531698    1.547703   -0.164107
     36          8           0        1.663097    1.775202   -0.999407
     37          7           0        3.255297    2.522903    0.455593
     38          1           0        3.923597    2.251104    1.162493
     39          6           0        3.082495    3.936303    0.167993
     40          1           0        2.333495    4.018103   -0.620607
     41          1           0        2.731895    4.481503    1.052293
     42          1           0        4.020395    4.386904   -0.177107
 ---------------------------------------------------------------------

 SCF Done:  E(RHF) =  -984.692514383     A.U. after   15 cycles
 E2 =    -0.3196425799D+01 EUMP2 =    -0.98788894018134D+03

 The electronic state is 1-A.
 Alpha  occ. eigenvalues --  -20.55509 -20.53737 -20.53126 -20.52451 -15.61930
 Alpha  occ. eigenvalues --  -15.60287 -15.59025 -15.58345 -11.38262 -11.36587
 Alpha  occ. eigenvalues --  -11.36027 -11.35882 -11.30488 -11.29885 -11.29086
 Alpha  occ. eigenvalues --  -11.27420 -11.24172 -11.23927 -11.23888 -11.23564
 Alpha  occ. eigenvalues --   -1.41052  -1.39308  -1.38217  -1.37832  -1.25895
 Alpha  occ. eigenvalues --   -1.24054  -1.23710  -1.23142  -1.07504  -1.04771
 Alpha  occ. eigenvalues --   -1.02837  -0.98666  -0.96134  -0.91659  -0.89718
 Alpha  occ. eigenvalues --   -0.87336  -0.81988  -0.79352  -0.78947  -0.77917
 Alpha  occ. eigenvalues --   -0.74532  -0.73220  -0.68998  -0.67663  -0.66152
 Alpha  occ. eigenvalues --   -0.66016  -0.64403  -0.63693  -0.63270  -0.62376
 Alpha  occ. eigenvalues --   -0.61854  -0.61367  -0.59709  -0.59396  -0.58628
 Alpha  occ. eigenvalues --   -0.57823  -0.57113  -0.56559  -0.55470  -0.55381
 Alpha  occ. eigenvalues --   -0.54948  -0.54596  -0.53607  -0.52973  -0.52839
 Alpha  occ. eigenvalues --   -0.52614  -0.51885  -0.49842  -0.49474  -0.45263
 Alpha  occ. eigenvalues --   -0.44112  -0.43106  -0.42077  -0.40373  -0.40016
 Alpha  occ. eigenvalues --   -0.38903  -0.38498
 Alpha virt. eigenvalues --    0.02755   0.03130   0.03839   0.04059   0.04709
 Alpha virt. eigenvalues --    0.04763   0.04897   0.05670   0.06055   0.06421
 Alpha virt. eigenvalues --    0.06533   0.07062   0.07185   0.07684   0.08105

 Mulliken atomic charges:
              1
     1  H    0.046397
     2  C    0.341279
     3  H   -0.178623
     4  H    0.030426
     5  C    0.497586
     6  O   -0.880544
     7  N   -0.062812
     8  H   -0.068276
     9  C   -0.231793
    10  H   -0.184960
    11  C    0.872534
    12  H   -0.023190
    13  H   -0.059559
    14  H   -0.069842
    15  C    0.989397
    16  O   -0.919446
    17  N   -0.043447
    18  H   -0.103295
    19  C   -0.139939
    20  H   -0.289641
    21  C    0.822360
    22  H   -0.075288
    23  H   -0.074640
    24  H   -0.125898
    25  C    0.702773
    26  O   -0.876613
    27  N   -0.083825
    28  H    0.030163
    29  C   -0.569554
    30  H   -0.231409
    31  C    0.940689
    32  H   -0.008099
    33  H   -0.118655
    34  H   -0.049369
    35  C    1.310939
    36  O   -0.900108
    37  N   -0.470070
    38  H   -0.124030
    39  C    0.734421
    40  H   -0.147608
    41  H   -0.094963
    42  H   -0.113467
 Sum of Mulliken atomic charges =   0.00000

 Dipole moment (field-independent basis, Debye):
    X=              2.3236    Y=              0.5277    Z=             -0.3705  Tot=              2.4114
 Quadrupole moment (field-independent basis, Debye-Ang):
   XX=           -126.5917   YY=           -106.2648   ZZ=           -130.1289
   XY=             19.2190   XZ=              8.3221   YZ=              4.1404

 Normal termination of Gaussian 09 at Thu Jan 19 10:33:33 2017.
