 Gaussian 09, Revision A.02,
 Gaussian 09:  EM64L-G09RevA.02 11-Jun-2009

 -------------------
 #SP MP2/aug-cc-pVDZ
 -------------------

 ------------------
 Phi Psi fixed scan
 ------------------
 Symbolic Z-matrix:
 Charge =  0 Multiplicity = 1

                         Standard orientation:
 ---------------------------------------------------------------------
 Center     Atomic      Atomic             Coordinates (Angstroms)
 Number     Number       Type             X           Y           Z
 ---------------------------------------------------------------------
      1          1           0       -4.556890    3.751114    0.611402
      2          6           0       -4.673891    3.094015   -0.256298
      3          1           0       -3.931591    3.366313   -1.012898
      4          1           0       -5.675891    3.265317   -0.661498
      5          6           0       -4.571795    1.647714    0.207002
      6          8           0       -5.348196    1.171316    1.030602
      7          7           0       -3.568597    0.920612   -0.359098
      8          1           0       -2.869096    1.343210   -0.958698
      9          6           0       -3.280800   -0.439589    0.050902
     10          1           0       -3.369101   -0.496989    1.144102
     11          6           0       -4.262203   -1.452086   -0.571598
     12          1           0       -4.192103   -1.430487   -1.664198
     13          1           0       -4.052506   -2.471387   -0.229898
     14          1           0       -5.278302   -1.183384   -0.272998
     15          6           0       -1.829101   -0.733193   -0.359098
     16          8           0       -1.209499    0.008806   -1.117498
     17          7           0       -1.311704   -1.899394    0.127702
     18          1           0       -1.766805   -2.272793    0.949902
     19          6           0        0.114995   -2.203598   -0.001098
     20          1           0        0.270193   -3.113398    0.592202
     21          6           0        0.512794   -2.509499   -1.450598
     22          1           0        0.450196   -1.614899   -2.072998
     23          1           0        1.528493   -2.917601   -1.497598
     24          1           0       -0.163708   -3.264997   -1.861298
     25          6           0        0.937898   -1.106400    0.726502
     26          8           0        0.500199   -0.580199    1.745702
     27          7           0        2.171598   -0.843003    0.230002
     28          1           0        2.465098   -1.159704   -0.687398
     29          6           0        3.014401    0.189595    0.806102
     30          1           0        2.376803    1.036596    1.090302
     31          6           0        3.755200   -0.309507    2.061302
     32          1           0        4.410798   -1.149709    1.810302
     33          1           0        4.364002    0.484391    2.508402
     34          1           0        3.019099   -0.637105    2.799502
     35          6           0        3.996402    0.622292   -0.296098
     36          8           0        4.160201   -0.054508   -1.309098
     37          7           0        4.670005    1.775791   -0.046698
     38          1           0        4.444507    2.292691    0.791402
     39          6           0        5.659907    2.326788   -0.957698
     40          1           0        5.763305    1.628788   -1.788898
     41          1           0        5.340509    3.300889   -1.345898
     42          1           0        6.629407    2.442586   -0.460198
 ---------------------------------------------------------------------

 SCF Done:  E(RHF) =  -984.695406427     A.U. after   15 cycles
 E2 =    -0.3193318122D+01 EUMP2 =    -0.98788872454857D+03

 The electronic state is 1-A.
 Alpha  occ. eigenvalues --  -20.54773 -20.54658 -20.53276 -20.51950 -15.60941
 Alpha  occ. eigenvalues --  -15.60196 -15.59323 -15.58411 -11.37436 -11.37046
 Alpha  occ. eigenvalues --  -11.36334 -11.35381 -11.30265 -11.29801 -11.29012
 Alpha  occ. eigenvalues --  -11.27848 -11.24099 -11.23894 -11.23707 -11.23195
 Alpha  occ. eigenvalues --   -1.40389  -1.40087  -1.38510  -1.37299  -1.24768
 Alpha  occ. eigenvalues --   -1.24696  -1.24132  -1.23073  -1.07315  -1.04893
 Alpha  occ. eigenvalues --   -1.02248  -0.98181  -0.96620  -0.91515  -0.89936
 Alpha  occ. eigenvalues --   -0.87161  -0.81718  -0.79506  -0.78519  -0.77797
 Alpha  occ. eigenvalues --   -0.74177  -0.72895  -0.68271  -0.67809  -0.66638
 Alpha  occ. eigenvalues --   -0.66215  -0.64776  -0.64357  -0.63474  -0.62691
 Alpha  occ. eigenvalues --   -0.60997  -0.60731  -0.60387  -0.59115  -0.58192
 Alpha  occ. eigenvalues --   -0.57233  -0.56258  -0.56177  -0.55905  -0.55537
 Alpha  occ. eigenvalues --   -0.54913  -0.54460  -0.53903  -0.53725  -0.52679
 Alpha  occ. eigenvalues --   -0.52308  -0.51782  -0.49922  -0.48816  -0.44095
 Alpha  occ. eigenvalues --   -0.43404  -0.43258  -0.41578  -0.41133  -0.40794
 Alpha  occ. eigenvalues --   -0.39295  -0.38436
 Alpha virt. eigenvalues --    0.02618   0.03073   0.03731   0.04146   0.04539
 Alpha virt. eigenvalues --    0.04740   0.04825   0.05747   0.05967   0.06342
 Alpha virt. eigenvalues --    0.06558   0.06818   0.07009   0.07417   0.07850

 Mulliken atomic charges:
              1
     1  H    0.044402
     2  C    0.362015
     3  H   -0.171857
     4  H    0.035063
     5  C    0.466444
     6  O   -0.874546
     7  N   -0.149477
     8  H   -0.067811
     9  C   -0.179091
    10  H   -0.130403
    11  C    0.872998
    12  H   -0.036007
    13  H   -0.066292
    14  H   -0.068789
    15  C    1.021000
    16  O   -0.903015
    17  N   -0.338647
    18  H   -0.063276
    19  C   -0.043089
    20  H   -0.174236
    21  C    0.798833
    22  H    0.035838
    23  H    0.051709
    24  H   -0.173429
    25  C    0.683449
    26  O   -0.920387
    27  N   -0.318930
    28  H   -0.093452
    29  C   -0.223877
    30  H   -0.136744
    31  C    0.821770
    32  H   -0.043958
    33  H   -0.114123
    34  H   -0.056191
    35  C    1.290635
    36  O   -0.900500
    37  N   -0.493707
    38  H   -0.121923
    39  C    0.708776
    40  H   -0.145830
    41  H   -0.080543
    42  H   -0.102803
 Sum of Mulliken atomic charges =   0.00000

 Dipole moment (field-independent basis, Debye):
    X=              4.5934    Y=              0.3609    Z=             -0.3573  Tot=              4.6214
 Quadrupole moment (field-independent basis, Debye-Ang):
   XX=           -128.9897   YY=            -99.3567   ZZ=           -130.8796
   XY=             15.1427   XZ=             19.0992   YZ=             -3.1344

 Normal termination of Gaussian 09 at Thu Jan 19 08:39:30 2017.
