 Gaussian 09, Revision A.02,
 Gaussian 09:  EM64L-G09RevA.02 11-Jun-2009

 -------------------------------------------------------------------
 # HF/6-31G* Opt=(ModRedundant, maxcycles=1000, calcfc) geom=nocrowd
 -------------------------------------------------------------------

 ------------------
 Phi Psi fixed scan
 ------------------
 Symbolic Z-matrix:
 Charge =  0 Multiplicity = 1

 SCF Done:  E(RHF) =  -984.525910469     A.U. after   15 cycles

  Exact polarizability:   0.000   0.000   0.000   0.000   0.000   0.000
 Approx polarizability: 140.584  -0.763 141.406  -1.124  -4.531 106.086

 SCF Done:  E(RHF) =  -984.537130736     A.U. after   13 cycles
 SCF Done:  E(RHF) =  -984.550320007     A.U. after   14 cycles
 SCF Done:  E(RHF) =  -984.549845404     A.U. after   14 cycles
 SCF Done:  E(RHF) =  -984.552328852     A.U. after   13 cycles
 SCF Done:  E(RHF) =  -984.554558773     A.U. after   13 cycles
 SCF Done:  E(RHF) =  -984.555261738     A.U. after   15 cycles
 SCF Done:  E(RHF) =  -984.438543503     A.U. after   15 cycles
 SCF Done:  E(RHF) =  -984.488521421     A.U. after   12 cycles
 SCF Done:  E(RHF) =  -984.514730809     A.U. after   12 cycles
 SCF Done:  E(RHF) =  -984.557998649     A.U. after   11 cycles
 SCF Done:  E(RHF) =  -984.558030705     A.U. after   11 cycles
 SCF Done:  E(RHF) =  -984.558007858     A.U. after   11 cycles
 SCF Done:  E(RHF) =  -984.558026361     A.U. after   10 cycles
 SCF Done:  E(RHF) =  -984.558032118     A.U. after   10 cycles
 SCF Done:  E(RHF) =  -984.558029591     A.U. after   10 cycles
 SCF Done:  E(RHF) =  -984.558032880     A.U. after   10 cycles
 SCF Done:  E(RHF) =  -984.558032958     A.U. after    8 cycles
 SCF Done:  E(RHF) =  -984.558032539     A.U. after    8 cycles
 SCF Done:  E(RHF) =  -984.558032964     A.U. after    8 cycles
 Optimization completed.
    -- Stationary point found.

                         Standard orientation:
 ---------------------------------------------------------------------
 Center     Atomic      Atomic             Coordinates (Angstroms)
 Number     Number       Type             X           Y           Z
 ---------------------------------------------------------------------
      1          1           0       -6.893194   -1.480529   -0.099842
      2          6           0       -6.393240   -0.726617    0.498838
      3          1           0       -6.833247   -0.741583    1.486853
      4          1           0       -6.555140    0.242569    0.042841
      5          6           0       -4.930089   -1.095107    0.613878
      6          8           0       -4.555788   -1.980108    1.338316
      7          7           0       -4.083941   -0.387214   -0.162635
      8          1           0       -4.408328    0.368771   -0.722312
      9          6           0       -2.661689   -0.624105   -0.160720
     10          1           0       -2.357747   -0.839539    0.856616
     11          6           0       -2.266603   -1.807752   -1.054983
     12          1           0       -2.545798   -1.611108   -2.084507
     13          1           0       -1.199458   -1.995473   -1.016222
     14          1           0       -2.784999   -2.693853   -0.713693
     15          6           0       -1.981074    0.657260   -0.635680
     16          8           0       -2.581754    1.503605   -1.238080
     17          7           0       -0.638164    0.719346   -0.401874
     18          1           0       -0.350312    0.145392    0.362043
     19          6           0        0.073711    1.993939   -0.494598
     20          1           0       -0.004370    2.338922   -1.516562
     21          6           0       -0.488800    3.070244    0.443237
     22          1           0       -0.424960    2.743491    1.477672
     23          1           0        0.083906    3.980561    0.338020
     24          1           0       -1.522614    3.271255    0.203137
     25          6           0        1.566159    1.833708   -0.194759
     26          8           0        2.272828    2.805826   -0.176131
     27          7           0        2.024199    0.597324    0.104420
     28          1           0        1.527893   -0.207163   -0.211458
     29          6           0        3.434837    0.370616    0.335392
     30          1           0        4.008593    1.025546   -0.310402
     31          6           0        3.812467    0.655346    1.793759
     32          1           0        3.273994   -0.009236    2.460312
     33          1           0        4.875951    0.525087    1.962746
     34          1           0        3.553874    1.678027    2.033873
     35          6           0        3.726635   -1.080931   -0.043178
     36          8           0        2.839610   -1.869759   -0.248556
     37          7           0        5.025981   -1.415193   -0.110185
     38          1           0        5.713457   -0.703276   -0.023958
     39          6           0        5.450025   -2.751997   -0.475861
     40          1           0        4.932418   -3.483013    0.128341
     41          1           0        5.246975   -2.962111   -1.519379
     42          1           0        6.513392   -2.836712   -0.298556
 ---------------------------------------------------------------------

 The electronic state is 1-A.
 Alpha  occ. eigenvalues --  -20.54941 -20.54541 -20.53333 -20.51594 -15.60425
 Alpha  occ. eigenvalues --  -15.60084 -15.59204 -15.58032 -11.36429 -11.36399
 Alpha  occ. eigenvalues --  -11.35787 -11.34452 -11.29093 -11.28708 -11.28395
 Alpha  occ. eigenvalues --  -11.27154 -11.23366 -11.22874 -11.22236 -11.21801
 Alpha  occ. eigenvalues --   -1.41777  -1.41527  -1.40250  -1.38514  -1.26375
 Alpha  occ. eigenvalues --   -1.25249  -1.24034  -1.23640  -1.07407  -1.05393
 Alpha  occ. eigenvalues --   -1.02814  -0.98718  -0.97162  -0.92081  -0.89936
 Alpha  occ. eigenvalues --   -0.87152  -0.81535  -0.80768  -0.79122  -0.78486
 Alpha  occ. eigenvalues --   -0.76284  -0.71721  -0.69010  -0.68234  -0.67548
 Alpha  occ. eigenvalues --   -0.65936  -0.65539  -0.64500  -0.63878  -0.63049
 Alpha  occ. eigenvalues --   -0.62189  -0.61402  -0.60674  -0.60395  -0.58587
 Alpha  occ. eigenvalues --   -0.58135  -0.57094  -0.56968  -0.56730  -0.56316
 Alpha  occ. eigenvalues --   -0.55748  -0.54799  -0.54112  -0.53412  -0.52936
 Alpha  occ. eigenvalues --   -0.52576  -0.51690  -0.50404  -0.49433  -0.44124
 Alpha  occ. eigenvalues --   -0.43826  -0.43066  -0.41409  -0.41369  -0.40902
 Alpha  occ. eigenvalues --   -0.39761  -0.38401
 Alpha virt. eigenvalues --    0.17105   0.18025   0.19651   0.20363   0.20602
 Alpha virt. eigenvalues --    0.21688   0.23904   0.25428   0.26693   0.27408
 Alpha virt. eigenvalues --    0.27694   0.28836   0.29173   0.29398   0.30010

 Mulliken atomic charges:
              1
     1  H    0.203294
     2  C   -0.575928
     3  H    0.208338
     4  H    0.173337
     5  C    0.754759
     6  O   -0.620681
     7  N   -0.823056
     8  H    0.418031
     9  C   -0.033270
    10  H    0.215167
    11  C   -0.484913
    12  H    0.174819
    13  H    0.175026
    14  H    0.210936
    15  C    0.783125
    16  O   -0.614669
    17  N   -0.838518
    18  H    0.384307
    19  C   -0.029064
    20  H    0.238825
    21  C   -0.512122
    22  H    0.156330
    23  H    0.209322
    24  H    0.210059
    25  C    0.780382
    26  O   -0.621433
    27  N   -0.854081
    28  H    0.434314
    29  C   -0.038025
    30  H    0.220412
    31  C   -0.479883
    32  H    0.178938
    33  H    0.157541
    34  H    0.211264
    35  C    0.774995
    36  O   -0.632650
    37  N   -0.798516
    38  H    0.391973
    39  C   -0.273115
    40  H    0.203967
    41  H    0.186552
    42  H    0.173910
 Sum of Mulliken atomic charges =   0.00000

 Dipole moment (field-independent basis, Debye):
    X=              4.1016    Y=             -0.4671    Z=             -0.1806  Tot=              4.1321
 Quadrupole moment (field-independent basis, Debye-Ang):
   XX=            -86.3600   YY=           -139.1312   ZZ=           -123.8557
   XY=            -16.6543   XZ=              6.1930   YZ=              8.6621

 Normal termination of Gaussian 09 at Mon Dec 26 20:53:50 2016.
