 Gaussian 09, Revision A.02,
 Gaussian 09:  EM64L-G09RevA.02 11-Jun-2009

 -------------------------------------------------------------------
 # HF/6-31G* Opt=(ModRedundant, maxcycles=1000, calcfc) geom=nocrowd
 -------------------------------------------------------------------

 ------------------
 Phi Psi fixed scan
 ------------------
 Symbolic Z-matrix:
 Charge =  0 Multiplicity = 1

 SCF Done:  E(RHF) =  -984.534572561     A.U. after   15 cycles

  Exact polarizability:   0.000   0.000   0.000   0.000   0.000   0.000
 Approx polarizability: 139.556   0.530 138.849   6.671  -4.719 110.533

 SCF Done:  E(RHF) =  -984.543494919     A.U. after   13 cycles
 SCF Done:  E(RHF) =  -984.553205634     A.U. after   13 cycles
 SCF Done:  E(RHF) =  -984.556166447     A.U. after   13 cycles
 SCF Done:  E(RHF) =  -984.559242494     A.U. after   14 cycles
 SCF Done:  E(RHF) =  -984.559595382     A.U. after   15 cycles
 SCF Done:  E(RHF) =  -984.460665114     A.U. after   16 cycles
 SCF Done:  E(RHF) =  -984.560306842     A.U. after   16 cycles
 SCF Done:  E(RHF) =  -984.560151796     A.U. after   13 cycles
 SCF Done:  E(RHF) =  -984.560287142     A.U. after   12 cycles
 SCF Done:  E(RHF) =  -984.560782264     A.U. after    7 cycles
 SCF Done:  E(RHF) =  -984.560782541     A.U. after    8 cycles
 SCF Done:  E(RHF) =  -984.560783011     A.U. after    9 cycles
 SCF Done:  E(RHF) =  -984.560783738     A.U. after    9 cycles
 SCF Done:  E(RHF) =  -984.560784701     A.U. after    9 cycles
 SCF Done:  E(RHF) =  -984.560785710     A.U. after    9 cycles
 SCF Done:  E(RHF) =  -984.560785829     A.U. after    9 cycles
 SCF Done:  E(RHF) =  -984.560785868     A.U. after    9 cycles
 SCF Done:  E(RHF) =  -984.560785901     A.U. after    7 cycles
 SCF Done:  E(RHF) =  -984.560785930     A.U. after    7 cycles
 Optimization completed.
    -- Stationary point found.

                         Standard orientation:
 ---------------------------------------------------------------------
 Center     Atomic      Atomic             Coordinates (Angstroms)
 Number     Number       Type             X           Y           Z
 ---------------------------------------------------------------------
      1          1           0       -7.001809   -0.537235    1.137111
      2          6           0       -6.451811   -0.713126    0.222416
      3          1           0       -6.563225    0.137870   -0.438498
      4          1           0       -6.878106   -1.586441   -0.259539
      5          6           0       -5.010493   -1.011958    0.573208
      6          8           0       -4.719630   -1.727325    1.496289
      7          7           0       -4.082484   -0.446531   -0.225934
      8          1           0       -4.342099    0.169429   -0.963005
      9          6           0       -2.669220   -0.642465   -0.017801
     10          1           0       -2.483853   -0.647619    1.049326
     11          6           0       -2.171334   -1.966693   -0.613972
     12          1           0       -2.333789   -1.981046   -1.686245
     13          1           0       -1.114117   -2.115979   -0.423681
     14          1           0       -2.720486   -2.783394   -0.164622
     15          6           0       -1.942692    0.537489   -0.658561
     16          8           0       -2.462930    1.212161   -1.505027
     17          7           0       -0.653480    0.704916   -0.262294
     18          1           0       -0.417040    0.265037    0.600738
     19          6           0        0.092894    1.926132   -0.566860
     20          1           0        0.190959    1.987741   -1.644827
     21          6           0       -0.580451    3.197203   -0.048651
     22          1           0       -0.691819    3.156151    1.030120
     23          1           0        0.027502    4.057969   -0.288104
     24          1           0       -1.554514    3.311972   -0.500869
     25          6           0        1.510217    1.816739    0.008159
     26          8           0        2.119996    2.792263    0.354322
     27          7           0        2.025635    0.572248    0.082399
     28          1           0        1.568433   -0.192474   -0.365042
     29          6           0        3.395965    0.342963    0.480330
     30          1           0        4.013344    1.137359    0.077411
     31          6           0        3.547878    0.321569    2.006612
     32          1           0        2.958618   -0.483103    2.432717
     33          1           0        4.583004    0.181798    2.299362
     34          1           0        3.202992    1.263381    2.412234
     35          6           0        3.826268   -0.991330   -0.125812
     36          8           0        3.019229   -1.790754   -0.525158
     37          7           0        5.150453   -1.218823   -0.149233
     38          1           0        5.771336   -0.485807    0.104065
     39          6           0        5.703040   -2.442930   -0.693632
     40          1           0        5.204829   -3.298519   -0.261034
     41          1           0        5.588836   -2.486509   -1.770402
     42          1           0        6.755269   -2.485573   -0.447792
 ---------------------------------------------------------------------

 The electronic state is 1-A.
 Alpha  occ. eigenvalues --  -20.54668 -20.54392 -20.53497 -20.51570 -15.60380
 Alpha  occ. eigenvalues --  -15.60167 -15.59117 -15.58019 -11.36325 -11.36297
 Alpha  occ. eigenvalues --  -11.35759 -11.34436 -11.29136 -11.28811 -11.28356
 Alpha  occ. eigenvalues --  -11.27120 -11.23339 -11.22856 -11.22276 -11.21263
 Alpha  occ. eigenvalues --   -1.41592  -1.41384  -1.40288  -1.38486  -1.26353
 Alpha  occ. eigenvalues --   -1.25182  -1.23996  -1.23615  -1.07446  -1.05400
 Alpha  occ. eigenvalues --   -1.02711  -0.98702  -0.97159  -0.92205  -0.89873
 Alpha  occ. eigenvalues --   -0.86922  -0.81380  -0.80675  -0.79182  -0.78696
 Alpha  occ. eigenvalues --   -0.76171  -0.71723  -0.68876  -0.68329  -0.67633
 Alpha  occ. eigenvalues --   -0.65832  -0.65362  -0.64904  -0.63922  -0.62870
 Alpha  occ. eigenvalues --   -0.61919  -0.61341  -0.60828  -0.60445  -0.58699
 Alpha  occ. eigenvalues --   -0.58454  -0.56943  -0.56860  -0.56456  -0.56371
 Alpha  occ. eigenvalues --   -0.55327  -0.54746  -0.54118  -0.53246  -0.52698
 Alpha  occ. eigenvalues --   -0.52537  -0.51604  -0.50760  -0.49429  -0.43980
 Alpha  occ. eigenvalues --   -0.43716  -0.42627  -0.41388  -0.41223  -0.41035
 Alpha  occ. eigenvalues --   -0.39585  -0.38387
 Alpha virt. eigenvalues --    0.17028   0.18039   0.19896   0.20323   0.20659
 Alpha virt. eigenvalues --    0.21960   0.23892   0.25457   0.26488   0.26975
 Alpha virt. eigenvalues --    0.27608   0.28818   0.28906   0.29581   0.30337

 Mulliken atomic charges:
              1
     1  H    0.208313
     2  C   -0.575905
     3  H    0.173444
     4  H    0.203186
     5  C    0.755379
     6  O   -0.621487
     7  N   -0.823158
     8  H    0.418132
     9  C   -0.031633
    10  H    0.214469
    11  C   -0.486031
    12  H    0.176618
    13  H    0.171974
    14  H    0.210843
    15  C    0.789314
    16  O   -0.619784
    17  N   -0.850210
    18  H    0.390246
    19  C   -0.023644
    20  H    0.231531
    21  C   -0.496325
    22  H    0.159502
    23  H    0.200125
    24  H    0.207611
    25  C    0.766926
    26  O   -0.619581
    27  N   -0.844295
    28  H    0.436819
    29  C   -0.031220
    30  H    0.215163
    31  C   -0.483427
    32  H    0.178002
    33  H    0.160498
    34  H    0.211241
    35  C    0.774379
    36  O   -0.629772
    37  N   -0.799168
    38  H    0.391239
    39  C   -0.273111
    40  H    0.203753
    41  H    0.186382
    42  H    0.173662
 Sum of Mulliken atomic charges =   0.00000

 Dipole moment (field-independent basis, Debye):
    X=              4.3394    Y=             -0.4510    Z=             -0.5390  Tot=              4.3960
 Quadrupole moment (field-independent basis, Debye-Ang):
   XX=            -86.9889   YY=           -136.8904   ZZ=           -126.0299
   XY=            -13.4885   XZ=              8.1391   YZ=              4.7560

 Normal termination of Gaussian 09 at Mon Dec 26 19:46:57 2016.
