 Gaussian 09, Revision A.02,
 Gaussian 09:  EM64L-G09RevA.02 11-Jun-2009

 -------------------------------------------------------------------
 # HF/6-31G* Opt=(ModRedundant, maxcycles=1000, calcfc) geom=nocrowd
 -------------------------------------------------------------------

 ------------------
 Phi Psi fixed scan
 ------------------
 Symbolic Z-matrix:
 Charge =  0 Multiplicity = 1

 SCF Done:  E(RHF) =  -984.530709557     A.U. after   15 cycles

  Exact polarizability:   0.000   0.000   0.000   0.000   0.000   0.000
 Approx polarizability: 133.139  -3.592 131.508  -4.067  12.131 124.488

 SCF Done:  E(RHF) =  -984.541106751     A.U. after   13 cycles
 SCF Done:  E(RHF) =  -984.552574667     A.U. after   16 cycles
 SCF Done:  E(RHF) =  -984.555425476     A.U. after   15 cycles
 SCF Done:  E(RHF) =  -984.558033734     A.U. after   16 cycles
 SCF Done:  E(RHF) =  -984.558952127     A.U. after   15 cycles
 SCF Done:  E(RHF) =  -984.495097084     A.U. after   16 cycles
 SCF Done:  E(RHF) =  -984.559321174     A.U. after   16 cycles
 SCF Done:  E(RHF) =  -984.498344780     A.U. after   15 cycles
 SCF Done:  E(RHF) =  -984.559598119     A.U. after   15 cycles
 SCF Done:  E(RHF) =  -984.559707335     A.U. after   10 cycles
 SCF Done:  E(RHF) =  -984.559707543     A.U. after    8 cycles
 SCF Done:  E(RHF) =  -984.559707596     A.U. after    7 cycles
 SCF Done:  E(RHF) =  -984.559707637     A.U. after    8 cycles
 SCF Done:  E(RHF) =  -984.559707678     A.U. after    7 cycles
 SCF Done:  E(RHF) =  -984.559707754     A.U. after    8 cycles
 SCF Done:  E(RHF) =  -984.559707848     A.U. after    8 cycles
 SCF Done:  E(RHF) =  -984.559707894     A.U. after    8 cycles
 SCF Done:  E(RHF) =  -984.559707909     A.U. after    7 cycles
 SCF Done:  E(RHF) =  -984.559707916     A.U. after    7 cycles
 Optimization completed.
    -- Stationary point found.

                         Standard orientation:
 ---------------------------------------------------------------------
 Center     Atomic      Atomic             Coordinates (Angstroms)
 Number     Number       Type             X           Y           Z
 ---------------------------------------------------------------------
      1          1           0        6.388347    2.801466    0.772098
      2          6           0        6.313755    1.722699    0.733562
      3          1           0        6.189704    1.331888    1.736144
      4          1           0        7.241500    1.341030    0.321462
      5          6           0        5.182526    1.348983   -0.199943
      6          8           0        5.049378    1.879474   -1.272300
      7          7           0        4.355615    0.378868    0.238274
      8          1           0        4.471437   -0.032278    1.136966
      9          6           0        3.232896   -0.085591   -0.538994
     10          1           0        2.777582    0.768330   -1.023343
     11          6           0        3.653150   -1.103452   -1.608948
     12          1           0        4.101143   -1.975199   -1.144349
     13          1           0        2.806848   -1.427848   -2.206202
     14          1           0        4.378318   -0.644299   -2.267539
     15          6           0        2.235673   -0.718523    0.429981
     16          8           0        2.593025   -1.144592    1.497867
     17          7           0        0.966973   -0.770071   -0.025475
     18          1           0        0.823680   -0.582186   -0.993497
     19          6           0       -0.126637   -1.489052    0.620793
     20          1           0        0.056157   -2.558132    0.567888
     21          6           0       -0.319339   -1.086601    2.081791
     22          1           0       -0.467952   -0.016192    2.177640
     23          1           0       -1.178282   -1.602300    2.499561
     24          1           0        0.549782   -1.356754    2.658591
     25          6           0       -1.335441   -1.228414   -0.290212
     26          8           0       -1.262482   -1.535547   -1.456329
     27          7           0       -2.403345   -0.611418    0.227579
     28          1           0       -2.438710   -0.329410    1.180960
     29          6           0       -3.563884   -0.289232   -0.571205
     30          1           0       -3.224101    0.067944   -1.535187
     31          6           0       -4.478091   -1.503596   -0.780335
     32          1           0       -4.841687   -1.869468    0.173562
     33          1           0       -5.331834   -1.248763   -1.399265
     34          1           0       -3.921776   -2.290855   -1.271381
     35          6           0       -4.313886    0.821434    0.159581
     36          8           0       -4.179681    0.991431    1.343901
     37          7           0       -5.153023    1.551621   -0.593887
     38          1           0       -5.145467    1.430987   -1.580015
     39          6           0       -5.940015    2.630216   -0.030219
     40          1           0       -6.453428    2.288172    0.856692
     41          1           0       -5.319879    3.477998    0.236442
     42          1           0       -6.671094    2.943515   -0.762896
 ---------------------------------------------------------------------

 The electronic state is 1-A.
 Alpha  occ. eigenvalues --  -20.54399 -20.53764 -20.53474 -20.51202 -15.60468
 Alpha  occ. eigenvalues --  -15.59688 -15.59457 -15.57659 -11.36365 -11.35997
 Alpha  occ. eigenvalues --  -11.35703 -11.34104 -11.29320 -11.29022 -11.27796
 Alpha  occ. eigenvalues --  -11.27151 -11.23380 -11.22610 -11.22267 -11.22105
 Alpha  occ. eigenvalues --   -1.41517  -1.40809  -1.40180  -1.38100  -1.25361
 Alpha  occ. eigenvalues --   -1.25217  -1.24814  -1.23253  -1.07866  -1.05361
 Alpha  occ. eigenvalues --   -1.02573  -0.98456  -0.97232  -0.92148  -0.90321
 Alpha  occ. eigenvalues --   -0.87541  -0.81793  -0.80156  -0.79188  -0.78138
 Alpha  occ. eigenvalues --   -0.75870  -0.72376  -0.68749  -0.68010  -0.67037
 Alpha  occ. eigenvalues --   -0.66157  -0.65255  -0.64866  -0.64416  -0.62760
 Alpha  occ. eigenvalues --   -0.62004  -0.60854  -0.60572  -0.60031  -0.58695
 Alpha  occ. eigenvalues --   -0.57856  -0.56926  -0.56679  -0.56486  -0.56097
 Alpha  occ. eigenvalues --   -0.55150  -0.55018  -0.54146  -0.53932  -0.53616
 Alpha  occ. eigenvalues --   -0.52369  -0.52115  -0.50885  -0.49213  -0.44019
 Alpha  occ. eigenvalues --   -0.43401  -0.42356  -0.41194  -0.41034  -0.40095
 Alpha  occ. eigenvalues --   -0.39628  -0.38045
 Alpha virt. eigenvalues --    0.17340   0.18569   0.19820   0.20326   0.21269
 Alpha virt. eigenvalues --    0.23146   0.24313   0.24833   0.25679   0.27372
 Alpha virt. eigenvalues --    0.28324   0.28550   0.28995   0.29893   0.30239

 Mulliken atomic charges:
              1
     1  H    0.206864
     2  C   -0.575201
     3  H    0.172392
     4  H    0.202400
     5  C    0.756914
     6  O   -0.623183
     7  N   -0.824013
     8  H    0.417999
     9  C   -0.033766
    10  H    0.222583
    11  C   -0.492869
    12  H    0.176863
    13  H    0.165524
    14  H    0.212321
    15  C    0.797750
    16  O   -0.636856
    17  N   -0.846912
    18  H    0.415497
    19  C    0.028326
    20  H    0.211882
    21  C   -0.540906
    22  H    0.177922
    23  H    0.166791
    24  H    0.243467
    25  C    0.755210
    26  O   -0.643247
    27  N   -0.841469
    28  H    0.443315
    29  C   -0.031093
    30  H    0.215085
    31  C   -0.487552
    32  H    0.181582
    33  H    0.163321
    34  H    0.212109
    35  C    0.776962
    36  O   -0.628723
    37  N   -0.799609
    38  H    0.391105
    39  C   -0.274076
    40  H    0.204369
    41  H    0.186890
    42  H    0.174032
 Sum of Mulliken atomic charges =   0.00000

 Dipole moment (field-independent basis, Debye):
    X=             -4.6144    Y=              0.1740    Z=             -0.2543  Tot=              4.6247
 Quadrupole moment (field-independent basis, Debye-Ang):
   XX=           -100.1024   YY=           -122.4341   ZZ=           -128.4656
   XY=            -12.4839   XZ=             21.3840   YZ=             -0.3793

 Normal termination of Gaussian 09 at Mon Dec 26 19:23:02 2016.
