 Gaussian 09, Revision A.02,
 Gaussian 09:  EM64L-G09RevA.02 11-Jun-2009

 -------------------------------------------------------------------
 # HF/6-31G* Opt=(ModRedundant, maxcycles=1000, calcfc) geom=nocrowd
 -------------------------------------------------------------------

 ------------------
 Phi Psi fixed scan
 ------------------
 Symbolic Z-matrix:
 Charge =  0 Multiplicity = 1

 SCF Done:  E(RHF) =  -984.540956420     A.U. after   15 cycles

  Exact polarizability:   0.000   0.000   0.000   0.000   0.000   0.000
 Approx polarizability: 132.973  -2.755 118.697   4.967  -9.325 136.949

 SCF Done:  E(RHF) =  -984.549124362     A.U. after   13 cycles
 SCF Done:  E(RHF) =  -984.557777481     A.U. after   13 cycles
 SCF Done:  E(RHF) =  -984.560062177     A.U. after   13 cycles
 SCF Done:  E(RHF) =  -984.563149317     A.U. after   16 cycles
 SCF Done:  E(RHF) =  -984.563900370     A.U. after   13 cycles
 SCF Done:  E(RHF) =  -984.433912963     A.U. after   16 cycles
 SCF Done:  E(RHF) =  -984.564140274     A.U. after   15 cycles
 SCF Done:  E(RHF) =  -984.564221732     A.U. after   12 cycles
 SCF Done:  E(RHF) =  -984.564260799     A.U. after   12 cycles
 SCF Done:  E(RHF) =  -984.564371344     A.U. after   11 cycles
 SCF Done:  E(RHF) =  -984.564393500     A.U. after   11 cycles
 SCF Done:  E(RHF) =  -984.564434522     A.U. after   11 cycles
 SCF Done:  E(RHF) =  -984.564458850     A.U. after   11 cycles
 SCF Done:  E(RHF) =  -984.564483212     A.U. after   11 cycles
 SCF Done:  E(RHF) =  -984.564485046     A.U. after    9 cycles
 SCF Done:  E(RHF) =  -984.564486596     A.U. after   10 cycles
 SCF Done:  E(RHF) =  -984.564486931     A.U. after    9 cycles
 SCF Done:  E(RHF) =  -984.564487016     A.U. after    8 cycles
 SCF Done:  E(RHF) =  -984.564487027     A.U. after    8 cycles
 Optimization completed.
    -- Stationary point found.

                         Standard orientation:
 ---------------------------------------------------------------------
 Center     Atomic      Atomic             Coordinates (Angstroms)
 Number     Number       Type             X           Y           Z
 ---------------------------------------------------------------------
      1          1           0        7.267090   -0.973709    0.830380
      2          6           0        6.934550   -0.563822   -0.116481
      3          1           0        6.749026   -1.377158   -0.807245
      4          1           0        7.729913    0.061226   -0.501940
      5          6           0        5.718728    0.301625    0.135309
      6          8           0        5.792004    1.317851    0.776286
      7          7           0        4.559674   -0.143531   -0.389703
      8          1           0        4.515038   -1.003851   -0.887622
      9          6           0        3.308957    0.545715   -0.187220
     10          1           0        3.282091    0.910536    0.832303
     11          6           0        3.140833    1.734440   -1.143509
     12          1           0        3.146023    1.392903   -2.173049
     13          1           0        2.210522    2.260168   -0.958590
     14          1           0        3.961972    2.423424   -0.997631
     15          6           0        2.187771   -0.469419   -0.395050
     16          8           0        2.368674   -1.491615   -1.003767
     17          7           0        0.978221   -0.097543    0.082692
     18          1           0        0.964838    0.617620    0.778262
     19          6           0       -0.139365   -1.029177    0.156875
     20          1           0       -0.366718   -1.357706   -0.848239
     21          6           0        0.129594   -2.246001    1.047187
     22          1           0        0.352332   -1.925944    2.057618
     23          1           0       -0.746375   -2.887416    1.076044
     24          1           0        0.958970   -2.818350    0.657410
     25          6           0       -1.299577   -0.228847    0.742878
     26          8           0       -1.187927    0.301547    1.820995
     27          7           0       -2.397339   -0.125258   -0.017237
     28          1           0       -2.459628   -0.582668   -0.900135
     29          6           0       -3.583431    0.571297    0.425241
     30          1           0       -3.717428    0.375305    1.481772
     31          6           0       -3.473876    2.085950    0.206475
     32          1           0       -3.349465    2.305836   -0.848033
     33          1           0       -4.360342    2.599501    0.563333
     34          1           0       -2.617206    2.464381    0.748209
     35          6           0       -4.761873    0.001720   -0.360749
     36          8           0       -4.598999   -0.557259   -1.414340
     37          7           0       -5.975382    0.205869    0.179000
     38          1           0       -6.039241    0.586357    1.094515
     39          6           0       -7.184713   -0.265815   -0.465429
     40          1           0       -7.193323    0.037673   -1.502289
     41          1           0       -7.263181   -1.345827   -0.422396
     42          1           0       -8.036728    0.170760    0.037503
 ---------------------------------------------------------------------

 The electronic state is 1-A.
 Alpha  occ. eigenvalues --  -20.54400 -20.54058 -20.53642 -20.51230 -15.60479
 Alpha  occ. eigenvalues --  -15.59739 -15.59393 -15.57725 -11.36376 -11.35891
 Alpha  occ. eigenvalues --  -11.35767 -11.34147 -11.29331 -11.28682 -11.27956
 Alpha  occ. eigenvalues --  -11.27182 -11.23404 -11.22639 -11.22044 -11.22003
 Alpha  occ. eigenvalues --   -1.41532  -1.41006  -1.40298  -1.38155  -1.25391
 Alpha  occ. eigenvalues --   -1.25230  -1.24812  -1.23335  -1.07653  -1.05464
 Alpha  occ. eigenvalues --   -1.02617  -0.98469  -0.97261  -0.92237  -0.90076
 Alpha  occ. eigenvalues --   -0.86993  -0.81754  -0.80036  -0.79719  -0.78409
 Alpha  occ. eigenvalues --   -0.75999  -0.71706  -0.68995  -0.67850  -0.67277
 Alpha  occ. eigenvalues --   -0.65480  -0.65312  -0.64845  -0.63959  -0.62371
 Alpha  occ. eigenvalues --   -0.62069  -0.61358  -0.60736  -0.60174  -0.59888
 Alpha  occ. eigenvalues --   -0.58315  -0.57021  -0.56893  -0.56501  -0.55755
 Alpha  occ. eigenvalues --   -0.55079  -0.54609  -0.54365  -0.53362  -0.53058
 Alpha  occ. eigenvalues --   -0.52349  -0.51563  -0.51232  -0.49156  -0.43957
 Alpha  occ. eigenvalues --   -0.43383  -0.42979  -0.41250  -0.41066  -0.40289
 Alpha  occ. eigenvalues --   -0.39750  -0.38031
 Alpha virt. eigenvalues --    0.17311   0.18469   0.19858   0.20351   0.21415
 Alpha virt. eigenvalues --    0.23169   0.23481   0.24313   0.25574   0.27309
 Alpha virt. eigenvalues --    0.27819   0.28355   0.29078   0.29558   0.30560

 Mulliken atomic charges:
              1
     1  H    0.204065
     2  C   -0.574534
     3  H    0.171814
     4  H    0.205874
     5  C    0.757318
     6  O   -0.622770
     7  N   -0.825499
     8  H    0.418707
     9  C   -0.029494
    10  H    0.217423
    11  C   -0.483936
    12  H    0.174542
    13  H    0.165864
    14  H    0.211316
    15  C    0.786491
    16  O   -0.631593
    17  N   -0.830815
    18  H    0.407681
    19  C   -0.006661
    20  H    0.211282
    21  C   -0.513674
    22  H    0.190166
    23  H    0.167222
    24  H    0.215212
    25  C    0.777714
    26  O   -0.642591
    27  N   -0.826976
    28  H    0.428411
    29  C   -0.040946
    30  H    0.215972
    31  C   -0.483981
    32  H    0.182969
    33  H    0.162643
    34  H    0.208948
    35  C    0.777823
    36  O   -0.628426
    37  N   -0.799526
    38  H    0.390989
    39  C   -0.273675
    40  H    0.204513
    41  H    0.186281
    42  H    0.173856
 Sum of Mulliken atomic charges =   0.00000

 Dipole moment (field-independent basis, Debye):
    X=             -5.5198    Y=             -0.3251    Z=              0.2239  Tot=              5.5339
 Quadrupole moment (field-independent basis, Debye-Ang):
   XX=            -95.9285   YY=           -123.4671   ZZ=           -129.5241
   XY=            -17.6222   XZ=            -18.1151   YZ=             -6.8214

 Normal termination of Gaussian 09 at Mon Dec 26 19:12:10 2016.
