 Gaussian 09, Revision A.02,
 Gaussian 09:  EM64L-G09RevA.02 11-Jun-2009

 -------------------------------------------------------------------
 # HF/6-31G* Opt=(ModRedundant, maxcycles=1000, calcfc) geom=nocrowd
 -------------------------------------------------------------------

 ------------------
 Phi Psi fixed scan
 ------------------
 Symbolic Z-matrix:
 Charge =  0 Multiplicity = 1

 SCF Done:  E(RHF) =  -984.536769896     A.U. after   15 cycles

  Exact polarizability:   0.000   0.000   0.000   0.000   0.000   0.000
 Approx polarizability: 135.555   0.849 132.542  10.541  -2.713 120.723

 SCF Done:  E(RHF) =  -984.545462187     A.U. after   13 cycles
 SCF Done:  E(RHF) =  -984.554560764     A.U. after   13 cycles
 SCF Done:  E(RHF) =  -984.556533801     A.U. after   13 cycles
 SCF Done:  E(RHF) =  -984.558746994     A.U. after   13 cycles
 SCF Done:  E(RHF) =  -984.559475454     A.U. after   15 cycles
 SCF Done:  E(RHF) =  -984.463356623     A.U. after   16 cycles
 SCF Done:  E(RHF) =  -984.559571112     A.U. after   15 cycles
 SCF Done:  E(RHF) =  -984.557546626     A.U. after   13 cycles
 SCF Done:  E(RHF) =  -984.559738743     A.U. after   13 cycles
 SCF Done:  E(RHF) =  -984.560071788     A.U. after   11 cycles
 SCF Done:  E(RHF) =  -984.560077749     A.U. after   10 cycles
 SCF Done:  E(RHF) =  -984.560080575     A.U. after   10 cycles
 SCF Done:  E(RHF) =  -984.560084364     A.U. after   11 cycles
 SCF Done:  E(RHF) =  -984.560087907     A.U. after   10 cycles
 SCF Done:  E(RHF) =  -984.560088219     A.U. after    8 cycles
 SCF Done:  E(RHF) =  -984.560088330     A.U. after    9 cycles
 SCF Done:  E(RHF) =  -984.560088360     A.U. after    8 cycles
 SCF Done:  E(RHF) =  -984.560088374     A.U. after    6 cycles
 SCF Done:  E(RHF) =  -984.560088379     A.U. after    5 cycles
 Optimization completed.
    -- Stationary point found.

                         Standard orientation:
 ---------------------------------------------------------------------
 Center     Atomic      Atomic             Coordinates (Angstroms)
 Number     Number       Type             X           Y           Z
 ---------------------------------------------------------------------
      1          1           0       -7.014285   -1.493751   -0.453049
      2          6           0       -6.593573   -0.576628   -0.055041
      3          1           0       -7.213236   -0.259823    0.773181
      4          1           0       -6.609394    0.179247   -0.830751
      5          6           0       -5.203269   -0.870541    0.464901
      6          8           0       -5.026765   -1.478254    1.488703
      7          7           0       -4.184226   -0.429337   -0.300631
      8          1           0       -4.349828    0.097207   -1.128578
      9          6           0       -2.805029   -0.636497    0.065105
     10          1           0       -2.718216   -0.511706    1.137424
     11          6           0       -2.307716   -2.038463   -0.313967
     12          1           0       -2.371942   -2.183246   -1.386894
     13          1           0       -1.278411   -2.190344   -0.007148
     14          1           0       -2.926091   -2.777236    0.178207
     15          6           0       -1.976860    0.431517   -0.645188
     16          8           0       -2.385667    0.996008   -1.624271
     17          7           0       -0.735043    0.628578   -0.139968
     18          1           0       -0.569464    0.264649    0.772630
     19          6           0        0.111807    1.748138   -0.557530
     20          1           0        0.328705    1.618905   -1.611269
     21          6           0       -0.528685    3.114281   -0.330397
     22          1           0       -0.749297    3.261373    0.719650
     23          1           0        0.154210    3.896560   -0.637207
     24          1           0       -1.438993    3.196794   -0.905824
     25          6           0        1.428193    1.638421    0.224489
     26          8           0        1.816987    2.508360    0.955866
     27          7           0        2.112242    0.497073    0.017181
     28          1           0        1.775761   -0.194015   -0.617775
     29          6           0        3.394286    0.240367    0.629823
     30          1           0        3.965618    1.160566    0.621602
     31          6           0        3.257966   -0.248500    2.078000
     32          1           0        2.701391   -1.178932    2.109994
     33          1           0        4.229886   -0.414535    2.530485
     34          1           0        2.733397    0.497696    2.660297
     35          6           0        4.099114   -0.813522   -0.220494
     36          8           0        3.478744   -1.565011   -0.927057
     37          7           0        5.435542   -0.869679   -0.088448
     38          1           0        5.899754   -0.159467    0.428382
     39          6           0        6.233570   -1.830309   -0.823458
     40          1           0        6.273490   -1.590015   -1.879507
     41          1           0        7.237557   -1.824860   -0.421545
     42          1           0        5.814558   -2.819922   -0.712629
 ---------------------------------------------------------------------

 The electronic state is 1-A.
 Alpha  occ. eigenvalues --  -20.54457 -20.54252 -20.53744 -20.51560 -15.60355
 Alpha  occ. eigenvalues --  -15.60268 -15.59124 -15.58020 -11.36231 -11.36218
 Alpha  occ. eigenvalues --  -11.35734 -11.34431 -11.29176 -11.28791 -11.28359
 Alpha  occ. eigenvalues --  -11.27083 -11.23379 -11.22847 -11.22397 -11.21080
 Alpha  occ. eigenvalues --   -1.41478  -1.41257  -1.40362  -1.38475  -1.26090
 Alpha  occ. eigenvalues --   -1.25130  -1.24205  -1.23630  -1.07532  -1.05452
 Alpha  occ. eigenvalues --   -1.02657  -0.98719  -0.97173  -0.92290  -0.89948
 Alpha  occ. eigenvalues --   -0.86797  -0.81308  -0.80421  -0.79516  -0.78784
 Alpha  occ. eigenvalues --   -0.76053  -0.71727  -0.68844  -0.68204  -0.67674
 Alpha  occ. eigenvalues --   -0.65802  -0.65353  -0.65051  -0.63906  -0.62901
 Alpha  occ. eigenvalues --   -0.61719  -0.61368  -0.60938  -0.60408  -0.59259
 Alpha  occ. eigenvalues --   -0.58453  -0.56910  -0.56838  -0.56586  -0.56004
 Alpha  occ. eigenvalues --   -0.54953  -0.54697  -0.54192  -0.53111  -0.52798
 Alpha  occ. eigenvalues --   -0.52558  -0.51668  -0.50998  -0.49459  -0.43974
 Alpha  occ. eigenvalues --   -0.43658  -0.42583  -0.41509  -0.41328  -0.40847
 Alpha  occ. eigenvalues --   -0.39286  -0.38309
 Alpha virt. eigenvalues --    0.17193   0.17943   0.19792   0.20297   0.20805
 Alpha virt. eigenvalues --    0.21922   0.23837   0.25106   0.25664   0.27112
 Alpha virt. eigenvalues --    0.27315   0.28543   0.29025   0.29557   0.30459

 Mulliken atomic charges:
              1
     1  H    0.203178
     2  C   -0.575729
     3  H    0.208286
     4  H    0.173481
     5  C    0.755952
     6  O   -0.622046
     7  N   -0.823530
     8  H    0.418564
     9  C   -0.030469
    10  H    0.214839
    11  C   -0.485034
    12  H    0.178065
    13  H    0.164943
    14  H    0.211532
    15  C    0.790470
    16  O   -0.624347
    17  N   -0.839077
    18  H    0.392833
    19  C   -0.017512
    20  H    0.218698
    21  C   -0.487296
    22  H    0.174050
    23  H    0.180386
    24  H    0.206607
    25  C    0.745303
    26  O   -0.611903
    27  N   -0.825618
    28  H    0.430079
    29  C   -0.029721
    30  H    0.212970
    31  C   -0.488203
    32  H    0.178704
    33  H    0.164107
    34  H    0.208283
    35  C    0.776204
    36  O   -0.628256
    37  N   -0.799553
    38  H    0.390622
    39  C   -0.273676
    40  H    0.185975
    41  H    0.173515
    42  H    0.204324
 Sum of Mulliken atomic charges =   0.00000

 Dipole moment (field-independent basis, Debye):
    X=              4.6335    Y=             -0.2443    Z=             -0.4367  Tot=              4.6604
 Quadrupole moment (field-independent basis, Debye-Ang):
   XX=            -87.8095   YY=           -133.2813   ZZ=           -128.8600
   XY=             -8.6522   XZ=             12.4321   YZ=              0.1520

 Normal termination of Gaussian 09 at Mon Dec 26 20:29:13 2016.
