 Gaussian 09, Revision A.02,
 Gaussian 09:  EM64L-G09RevA.02 11-Jun-2009

 -------------------
 #SP MP2/aug-cc-pVDZ
 -------------------

 -------------------------------
 Single Point calculation at MP2
 -------------------------------
 Symbolic Z-matrix:
 Charge =  0 Multiplicity = 1

                         Standard orientation:
 ---------------------------------------------------------------------
 Center     Atomic      Atomic             Coordinates (Angstroms)
 Number     Number       Type             X           Y           Z
 ---------------------------------------------------------------------
      1          1           0       -3.146910   -2.150218    0.137091
      2          6           0       -3.085009   -1.071318   -0.020709
      3          1           0       -3.690008   -0.586117    0.754091
      4          1           0       -3.510808   -0.822217   -0.998209
      5          6           0       -1.632508   -0.638419    0.138391
      6          8           0       -0.886209   -1.160320    0.953991
      7          7           0       -1.236207    0.365881   -0.711009
      8          1           0       -1.956007    0.786981   -1.283809
      9          6           0        0.000193    1.155779   -0.594809
     10          1           0        0.315394    1.384779   -1.621009
     11          6           0       -0.239805    2.460480    0.168591
     12          1           0       -0.486806    2.244180    1.210591
     13          1           0        0.660695    3.081479    0.159291
     14          1           0       -1.059005    3.026980   -0.289709
     15          6           0        1.157893    0.358778    0.063891
     16          8           0        1.629893    0.677178    1.142291
     17          7           0        1.730292   -0.575522   -0.761809
     18          1           0        1.139491   -0.926822   -1.505809
     19          6           0        2.705591   -1.512123   -0.219409
     20          1           0        3.403391   -0.956124    0.408191
     21          1           0        2.231890   -2.288523    0.395391
     22          1           0        3.252490   -1.980824   -1.042309
 ---------------------------------------------------------------------

 SCF Done:  E(RHF) =  -492.915206260     A.U. after   14 cycles
 E2 =    -0.1603239525D+01 EUMP2 =    -0.49451844578565D+03

 The electronic state is 1-A.
 Alpha  occ. eigenvalues --  -20.53603 -20.52321 -15.60742 -15.58290 -11.37042
 Alpha  occ. eigenvalues --  -11.35390 -11.29794 -11.25525 -11.25387 -11.22912
 Alpha  occ. eigenvalues --   -1.39302  -1.37581  -1.24684  -1.21886  -1.05505
 Alpha  occ. eigenvalues --   -0.99464  -0.94961  -0.87156  -0.81163  -0.76563
 Alpha  occ. eigenvalues --   -0.70723  -0.69416  -0.65501  -0.63828  -0.62190
 Alpha  occ. eigenvalues --   -0.60822  -0.60080  -0.58425  -0.57730  -0.55830
 Alpha  occ. eigenvalues --   -0.53627  -0.52917  -0.52170  -0.51328  -0.50887
 Alpha  occ. eigenvalues --   -0.42829  -0.41728  -0.40166  -0.38509
 Alpha virt. eigenvalues --    0.02246   0.03684   0.03891   0.04672   0.05703
 Alpha virt. eigenvalues --    0.06059   0.06359   0.06753   0.07168   0.08557
 Alpha virt. eigenvalues --    0.08857   0.09087   0.10961   0.11804   0.12848

 Mulliken atomic charges:
              1
     1  H    0.005477
     2  C    0.437170
     3  H    0.056921
     4  H   -0.098733
     5  C    0.614314
     6  O   -0.818526
     7  N   -0.340407
     8  H   -0.146954
     9  C   -0.269541
    10  H   -0.187955
    11  C    0.732290
    12  H   -0.013545
    13  H   -0.039765
    14  H   -0.041649
    15  C    1.178511
    16  O   -0.855750
    17  N   -0.544211
    18  H   -0.067875
    19  C    0.748094
    20  H   -0.107299
    21  H   -0.054876
    22  H   -0.185692
 Sum of Mulliken atomic charges =   0.00000

 Dipole moment (field-independent basis, Debye):
    X=             -3.4521    Y=              0.3883    Z=             -5.2168  Tot=              6.2676
 Quadrupole moment (field-independent basis, Debye-Ang):
   XX=            -53.7928   YY=            -59.3674   ZZ=            -64.1845
   XY=             -4.6853   XZ=             -1.3321   YZ=              0.6000

 Normal termination of Gaussian 09 at Mon Feb 13 15:38:31 2017.
