 Gaussian 09, Revision A.02,
 Gaussian 09:  EM64L-G09RevA.02 11-Jun-2009

 -------------------
 #SP MP2/aug-cc-pVDZ
 -------------------

 -------------------------------
 Single Point calculation at MP2
 -------------------------------
 Symbolic Z-matrix:
 Charge =  0 Multiplicity = 1

                         Standard orientation:
 ---------------------------------------------------------------------
 Center     Atomic      Atomic             Coordinates (Angstroms)
 Number     Number       Type             X           Y           Z
 ---------------------------------------------------------------------
      1          1           0       -3.153370   -1.997827   -0.030388
      2          6           0       -3.106282   -0.906627   -0.068788
      3          1           0       -3.745287   -0.522834    0.734112
      4          1           0       -3.506886   -0.561831   -1.027588
      5          6           0       -1.669287   -0.472011    0.196712
      6          8           0       -0.993881   -0.989203    1.077712
      7          7           0       -1.222298    0.551194   -0.598088
      8          1           0       -1.868502    0.917587   -1.282788
      9          6           0        0.094894    1.206409   -0.558088
     10          1           0        0.324191    1.467611   -1.600288
     11          6           0        0.042780    2.490508    0.277512
     12          1           0       -0.173817    2.249906    1.322012
     13          1           0        1.003474    3.007819    0.240912
     14          1           0       -0.740027    3.156399   -0.102288
     15          6           0        1.274704    0.314222   -0.090488
     16          8           0        2.160299    0.783332    0.609712
     17          7           0        1.332718   -0.939378   -0.630288
     18          1           0        0.458422   -1.324087   -0.957188
     19          6           0        2.301629   -1.900467   -0.123888
     20          1           0        3.245523   -1.382256    0.048712
     21          1           0        1.970134   -2.348170    0.822012
     22          1           0        2.451238   -2.690265   -0.865788
 ---------------------------------------------------------------------

 SCF Done:  E(RHF) =  -492.916192910     A.U. after   14 cycles
 E2 =    -0.1603481545D+01 EUMP2 =    -0.49451967445493D+03

 The electronic state is 1-A.
 Alpha  occ. eigenvalues --  -20.54038 -20.52657 -15.61283 -15.57991 -11.37587
 Alpha  occ. eigenvalues --  -11.35594 -11.30072 -11.25832 -11.25443 -11.22653
 Alpha  occ. eigenvalues --   -1.39664  -1.37914  -1.25122  -1.21884  -1.05728
 Alpha  occ. eigenvalues --   -0.99730  -0.94903  -0.87421  -0.81434  -0.76857
 Alpha  occ. eigenvalues --   -0.71465  -0.70046  -0.65092  -0.64455  -0.62287
 Alpha  occ. eigenvalues --   -0.61077  -0.60118  -0.58830  -0.57917  -0.55840
 Alpha  occ. eigenvalues --   -0.53732  -0.52628  -0.52272  -0.51919  -0.50536
 Alpha  occ. eigenvalues --   -0.43525  -0.42394  -0.40481  -0.38161
 Alpha virt. eigenvalues --    0.02161   0.03757   0.03918   0.04658   0.05818
 Alpha virt. eigenvalues --    0.06150   0.06286   0.06820   0.07047   0.08412
 Alpha virt. eigenvalues --    0.08946   0.09057   0.11263   0.12301   0.12718

 Mulliken atomic charges:
              1
     1  H    0.023410
     2  C    0.434185
     3  H    0.059543
     4  H   -0.128165
     5  C    0.531560
     6  O   -0.821416
     7  N   -0.232457
     8  H   -0.132124
     9  C   -0.298798
    10  H   -0.103656
    11  C    0.796949
    12  H   -0.062294
    13  H   -0.030495
    14  H   -0.051673
    15  C    1.042736
    16  O   -0.847292
    17  N   -0.480138
    18  H   -0.062473
    19  C    0.717256
    20  H   -0.118155
    21  H   -0.056074
    22  H   -0.180429
 Sum of Mulliken atomic charges =   0.00000

 Dipole moment (field-independent basis, Debye):
    X=             -4.4695    Y=             -0.0866    Z=             -4.3654  Tot=              6.2483
 Quadrupole moment (field-independent basis, Debye-Ang):
   XX=            -58.9648   YY=            -58.1277   ZZ=            -63.4720
   XY=             -5.3695   XZ=              0.9091   YZ=              0.1617

 Normal termination of Gaussian 09 at Mon Feb 13 21:14:39 2017.
