 Gaussian 09, Revision A.02,
 Gaussian 09:  EM64L-G09RevA.02 11-Jun-2009

 -------------------
 #SP MP2/aug-cc-pVDZ
 -------------------

 -------------------------------
 Single Point calculation at MP2
 -------------------------------
 Symbolic Z-matrix:
 Charge =  0 Multiplicity = 1

                         Standard orientation:
 ---------------------------------------------------------------------
 Center     Atomic      Atomic             Coordinates (Angstroms)
 Number     Number       Type             X           Y           Z
 ---------------------------------------------------------------------
      1          1           0       -4.001401   -1.290604   -0.339586
      2          6           0       -3.521801   -0.311004   -0.306986
      3          1           0       -3.935301    0.244396    0.543814
      4          1           0       -3.763401    0.240396   -1.222886
      5          6           0       -2.018001   -0.517804   -0.104886
      6          8           0       -1.576101   -1.527304    0.406414
      7          7           0       -1.266801    0.539896   -0.592086
      8          1           0       -1.831201    1.304496   -0.940586
      9          6           0        0.105699    0.990796   -0.322986
     10          1           0        0.439599    1.476596   -1.248986
     11          6           0        0.114499    2.038796    0.809414
     12          1           0       -0.185501    1.561496    1.746414
     13          1           0        1.115999    2.463996    0.937214
     14          1           0       -0.580601    2.856696    0.585414
     15          6           0        1.150399   -0.080904    0.065814
     16          8           0        1.040199   -0.818404    1.027814
     17          7           0        2.343399    0.079796   -0.602486
     18          1           0        2.329899    0.536796   -1.503686
     19          6           0        3.478299   -0.781304   -0.308286
     20          1           0        3.470099   -0.999004    0.760714
     21          1           0        3.432399   -1.734604   -0.851386
     22          1           0        4.405899   -0.264304   -0.570786
 ---------------------------------------------------------------------

 SCF Done:  E(RHF) =  -492.896630166     A.U. after   15 cycles
 E2 =    -0.1604148504D+01 EUMP2 =    -0.49450077867026D+03

 The electronic state is 1-A.
 Alpha  occ. eigenvalues --  -20.52489 -20.52024 -15.59553 -15.59393 -11.35787
 Alpha  occ. eigenvalues --  -11.35666 -11.30423 -11.26457 -11.24228 -11.24050
 Alpha  occ. eigenvalues --   -1.38441  -1.37228  -1.23756  -1.22580  -1.05663
 Alpha  occ. eigenvalues --   -0.98650  -0.95416  -0.87726  -0.80836  -0.76990
 Alpha  occ. eigenvalues --   -0.69559  -0.68588  -0.65557  -0.63589  -0.62142
 Alpha  occ. eigenvalues --   -0.61032  -0.59665  -0.57744  -0.57637  -0.55774
 Alpha  occ. eigenvalues --   -0.54513  -0.54118  -0.52740  -0.51303  -0.49752
 Alpha  occ. eigenvalues --   -0.42948  -0.39950  -0.39017  -0.38863
 Alpha virt. eigenvalues --    0.02255   0.03422   0.04224   0.04462   0.05736
 Alpha virt. eigenvalues --    0.05767   0.06296   0.06935   0.07284   0.08072
 Alpha virt. eigenvalues --    0.08846   0.09175   0.10713   0.11910   0.12467

 Mulliken atomic charges:
              1
     1  H   -0.041812
     2  C    0.339738
     3  H    0.041766
     4  H   -0.045422
     5  C    0.692424
     6  O   -0.764571
     7  N   -0.395663
     8  H   -0.087881
     9  C   -0.074188
    10  H   -0.302196
    11  C    0.670214
    12  H    0.014241
    13  H   -0.042020
    14  H   -0.072262
    15  C    1.010746
    16  O   -0.772416
    17  N   -0.469796
    18  H   -0.105103
    19  C    0.764173
    20  H   -0.112237
    21  H   -0.063031
    22  H   -0.184703
 Sum of Mulliken atomic charges =   0.00000

 Dipole moment (field-independent basis, Debye):
    X=              0.2574    Y=              5.3006    Z=             -4.0384  Tot=              6.6687
 Quadrupole moment (field-independent basis, Debye-Ang):
   XX=            -47.5957   YY=            -64.7051   ZZ=            -61.3635
   XY=             -4.4538   XZ=             -2.0886   YZ=              2.1628

 Normal termination of Gaussian 09 at Mon Feb 13 14:19:29 2017.
