 Gaussian 09, Revision A.02,
 Gaussian 09:  EM64L-G09RevA.02 11-Jun-2009

 -------------------
 #SP MP2/aug-cc-pVDZ
 -------------------

 -------------------------------
 Single Point calculation at MP2
 -------------------------------
 Symbolic Z-matrix:
 Charge =  0 Multiplicity = 1

                         Standard orientation:
 ---------------------------------------------------------------------
 Center     Atomic      Atomic             Coordinates (Angstroms)
 Number     Number       Type             X           Y           Z
 ---------------------------------------------------------------------
      1          1           0       -3.918499   -0.661887    0.600096
      2          6           0       -3.348198   -0.524890   -0.323304
      3          1           0       -3.739195    0.346412   -0.857404
      4          1           0       -3.504902   -1.416989   -0.937604
      5          6           0       -1.869298   -0.437196    0.032396
      6          8           0       -1.345302   -1.349198    0.676696
      7          7           0       -1.245593    0.692901   -0.394504
      8          1           0       -1.843991    1.324104   -0.909304
      9          6           0        0.143709    1.209696   -0.308804
     10          1           0        0.291011    1.760495   -1.242604
     11          6           0        0.246513    2.209595    0.860896
     12          1           0        0.091411    1.695396    1.815496
     13          1           0        1.237415    2.669191    0.860696
     14          1           0       -0.512083    2.994698    0.766596
     15          6           0        1.391705    0.287690   -0.263504
     16          8           0        2.466907    0.843686   -0.487804
     17          7           0        1.269900   -1.025809   -0.000704
     18          1           0        0.365498   -1.371805    0.327396
     19          6           0        2.453896   -1.863914    0.087896
     20          1           0        3.109397   -1.672717   -0.765604
     21          1           0        3.027997   -1.666817    1.002496
     22          1           0        2.142992   -2.911513    0.081596
 ---------------------------------------------------------------------

 SCF Done:  E(RHF) =  -492.915019133     A.U. after   14 cycles
 E2 =    -0.1604512281D+01 EUMP2 =    -0.49451953141483D+03

 The electronic state is 1-A.
 Alpha  occ. eigenvalues --  -20.54772 -20.51731 -15.61929 -15.57309 -11.38591
 Alpha  occ. eigenvalues --  -11.35305 -11.30469 -11.26099 -11.25518 -11.23662
 Alpha  occ. eigenvalues --   -1.40200  -1.37262  -1.25575  -1.21697  -1.06270
 Alpha  occ. eigenvalues --   -1.00173  -0.94794  -0.88355  -0.81976  -0.76891
 Alpha  occ. eigenvalues --   -0.71855  -0.70913  -0.64658  -0.63994  -0.62205
 Alpha  occ. eigenvalues --   -0.61236  -0.60512  -0.59006  -0.58340  -0.56528
 Alpha  occ. eigenvalues --   -0.54314  -0.54113  -0.52303  -0.52011  -0.49631
 Alpha  occ. eigenvalues --   -0.44089  -0.42534  -0.40263  -0.37708
 Alpha virt. eigenvalues --    0.02330   0.04003   0.04324   0.04493   0.05746
 Alpha virt. eigenvalues --    0.06251   0.06377   0.06681   0.07583   0.07928
 Alpha virt. eigenvalues --    0.09061   0.09638   0.10951   0.11897   0.12577

 Mulliken atomic charges:
              1
     1  H    0.041632
     2  C    0.465515
     3  H   -0.160851
     4  H    0.045102
     5  C    0.592318
     6  O   -0.932545
     7  N   -0.348642
     8  H   -0.071805
     9  C   -0.149548
    10  H   -0.046905
    11  C    0.671632
    12  H   -0.048069
    13  H   -0.006272
    14  H   -0.079688
    15  C    0.923069
    16  O   -0.903364
    17  N   -0.365572
    18  H   -0.009386
    19  C    0.726305
    20  H   -0.100690
    21  H   -0.043496
    22  H   -0.198740
 Sum of Mulliken atomic charges =   0.00000

 Dipole moment (field-independent basis, Debye):
    X=             -4.7875    Y=              0.9685    Z=             -0.9956  Tot=              4.9849
 Quadrupole moment (field-independent basis, Debye-Ang):
   XX=            -62.0068   YY=            -59.9943   ZZ=            -61.6800
   XY=             -9.7952   XZ=              6.5704   YZ=              1.3230

 Normal termination of Gaussian 09 at Mon Feb 13 17:10:49 2017.
