 Gaussian 09, Revision A.02,
 Gaussian 09:  EM64L-G09RevA.02 11-Jun-2009

 -------------------
 #SP MP2/aug-cc-pVDZ
 -------------------

 -------------------------------
 Single Point calculation at MP2
 -------------------------------
 Symbolic Z-matrix:
 Charge =  0 Multiplicity = 1

                         Standard orientation:
 ---------------------------------------------------------------------
 Center     Atomic      Atomic             Coordinates (Angstroms)
 Number     Number       Type             X           Y           Z
 ---------------------------------------------------------------------
      1          1           0       -3.428808   -1.768684   -0.383886
      2          6           0       -3.270103   -0.722684   -0.107086
      3          1           0       -3.797502   -0.552682    0.837314
      4          1           0       -3.707800   -0.078282   -0.875686
      5          6           0       -1.780602   -0.502391    0.125114
      6          8           0       -1.145105   -1.242394    0.874714
      7          7           0       -1.240798    0.548507   -0.553786
      8          1           0       -1.885095    1.071910   -1.130586
      9          6           0        0.096205    1.169001   -0.474186
     10          1           0        0.327507    1.479800   -1.502086
     11          6           0        0.031611    2.421301    0.413014
     12          1           0       -0.218291    2.142602    1.441714
     13          1           0        0.999213    2.924797    0.417114
     14          1           0       -0.735286    3.112305    0.044614
     15          6           0        1.329501    0.309295   -0.082786
     16          8           0        2.327904    0.895491    0.319814
     17          7           0        1.326596   -1.014205   -0.411986
     18          1           0        0.435693   -1.478701   -0.262186
     19          6           0        2.509492   -1.806010   -0.093686
     20          1           0        3.394594   -1.307614   -0.493286
     21          1           0        2.649391   -1.931610    0.987914
     22          1           0        2.406788   -2.789809   -0.559086
 ---------------------------------------------------------------------

 SCF Done:  E(RHF) =  -492.914125162     A.U. after   14 cycles
 E2 =    -0.1603430962D+01 EUMP2 =    -0.49451755612445D+03

 The electronic state is 1-A.
 Alpha  occ. eigenvalues --  -20.54370 -20.52848 -15.61617 -15.57399 -11.38153
 Alpha  occ. eigenvalues --  -11.35698 -11.30427 -11.25994 -11.25307 -11.23076
 Alpha  occ. eigenvalues --   -1.39960  -1.38089  -1.25407  -1.21619  -1.06026
 Alpha  occ. eigenvalues --   -0.99958  -0.94653  -0.87833  -0.81826  -0.76224
 Alpha  occ. eigenvalues --   -0.71423  -0.70602  -0.65379  -0.64145  -0.62609
 Alpha  occ. eigenvalues --   -0.61079  -0.60418  -0.58908  -0.58018  -0.55959
 Alpha  occ. eigenvalues --   -0.53993  -0.53299  -0.52265  -0.51585  -0.50268
 Alpha  occ. eigenvalues --   -0.44082  -0.42298  -0.40854  -0.38331
 Alpha virt. eigenvalues --    0.02283   0.03870   0.04186   0.04647   0.05750
 Alpha virt. eigenvalues --    0.06101   0.06397   0.06746   0.07374   0.08106
 Alpha virt. eigenvalues --    0.09009   0.09608   0.11393   0.12081   0.12624

 Mulliken atomic charges:
              1
     1  H    0.040067
     2  C    0.407129
     3  H    0.051831
     4  H   -0.136784
     5  C    0.569708
     6  O   -0.871205
     7  N   -0.249548
     8  H   -0.109501
     9  C   -0.221113
    10  H   -0.044709
    11  C    0.721045
    12  H   -0.064921
    13  H   -0.014710
    14  H   -0.054468
    15  C    0.893013
    16  O   -0.834868
    17  N   -0.466578
    18  H   -0.002360
    19  C    0.757275
    20  H   -0.120031
    21  H   -0.055050
    22  H   -0.194220
 Sum of Mulliken atomic charges =   0.00000

 Dipole moment (field-independent basis, Debye):
    X=             -4.6116    Y=              0.5705    Z=             -2.9065  Tot=              5.4808
 Quadrupole moment (field-independent basis, Debye-Ang):
   XX=            -59.2670   YY=            -59.8265   ZZ=            -62.6664
   XY=             -7.6417   XZ=              1.7459   YZ=             -0.1432

 Normal termination of Gaussian 09 at Mon Feb 13 21:14:17 2017.
