 Gaussian 09, Revision A.02,
 Gaussian 09:  EM64L-G09RevA.02 11-Jun-2009

 ----------------------------------------------------------------------
 # b3lyp/6-31G* Opt=(ModRedundant, maxcycles=1000, calcfc) geom=nocrowd
 ----------------------------------------------------------------------

 ------------------
 Phi Psi fixed scan
 ------------------
 Symbolic Z-matrix:
 Charge =  0 Multiplicity = 1

 SCF Done:  E(RB3LYP) =  -495.830491486     A.U. after   15 cycles

  Exact polarizability:   0.000   0.000   0.000   0.000   0.000   0.000
 Approx polarizability: 115.034  13.413 111.941  -3.368 -13.454 109.209

 SCF Done:  E(RB3LYP) =  -495.837833350     A.U. after   12 cycles
 SCF Done:  E(RB3LYP) =  -495.845844729     A.U. after   13 cycles
 SCF Done:  E(RB3LYP) =  -495.848090853     A.U. after   14 cycles
 SCF Done:  E(RB3LYP) =  -495.848756321     A.U. after   13 cycles
 SCF Done:  E(RB3LYP) =  -495.848123843     A.U. after   14 cycles
 SCF Done:  E(RB3LYP) =  -495.849040110     A.U. after   12 cycles
 SCF Done:  E(RB3LYP) =  -495.849456410     A.U. after   12 cycles
 SCF Done:  E(RB3LYP) =  -495.849423462     A.U. after   14 cycles
 SCF Done:  E(RB3LYP) =  -495.849498918     A.U. after   12 cycles
 SCF Done:  E(RB3LYP) =  -495.849553583     A.U. after   11 cycles
 SCF Done:  E(RB3LYP) =  -495.849573519     A.U. after   11 cycles
 SCF Done:  E(RB3LYP) =  -495.849583183     A.U. after    9 cycles
 SCF Done:  E(RB3LYP) =  -495.849585840     A.U. after    8 cycles
 SCF Done:  E(RB3LYP) =  -495.849588910     A.U. after   10 cycles
 SCF Done:  E(RB3LYP) =  -495.849591012     A.U. after    9 cycles
 SCF Done:  E(RB3LYP) =  -495.849592953     A.U. after   10 cycles
 SCF Done:  E(RB3LYP) =  -495.849594130     A.U. after   10 cycles
 SCF Done:  E(RB3LYP) =  -495.849594547     A.U. after    9 cycles
 SCF Done:  E(RB3LYP) =  -495.849594591     A.U. after    7 cycles
 Optimization completed.
    -- Stationary point found.

                         Standard orientation:
 ---------------------------------------------------------------------
 Center     Atomic      Atomic             Coordinates (Angstroms)
 Number     Number       Type             X           Y           Z
 ---------------------------------------------------------------------
      1          1           0       -3.347961   -1.795501   -0.446233
      2          6           0       -3.216504   -0.711254   -0.490022
      3          1           0       -3.966517   -0.263198    0.170985
      4          1           0       -3.401119   -0.365738   -1.511876
      5          6           0       -1.832973   -0.364392    0.037212
      6          8           0       -1.404072   -0.863058    1.080722
      7          7           0       -1.110453    0.507173   -0.717719
      8          1           0       -1.540270    0.835992   -1.570287
      9          6           0        0.128774    1.200488   -0.321291
     10          1           0        0.319715    1.925472   -1.116258
     11          6           0       -0.019702    1.965485    1.005521
     12          1           0       -0.241323    1.279676    1.826257
     13          1           0        0.915400    2.491000    1.219257
     14          1           0       -0.828351    2.700695    0.933309
     15          6           0        1.417542    0.344128   -0.298839
     16          8           0        2.490355    0.889700   -0.539934
     17          7           0        1.277949   -0.976961   -0.018755
     18          1           0        0.409133   -1.259497    0.430114
     19          6           0        2.449006   -1.824921    0.133943
     20          1           0        3.198782   -1.524457   -0.599957
     21          1           0        2.897105   -1.739260    1.133251
     22          1           0        2.165807   -2.867012   -0.038695
 ---------------------------------------------------------------------

 The electronic state is 1-A.
 Alpha  occ. eigenvalues --  -19.12487 -19.10053 -14.37648 -14.34346 -10.30326
 Alpha  occ. eigenvalues --  -10.27437 -10.24060 -10.20680 -10.20424 -10.18208
 Alpha  occ. eigenvalues --   -1.04414  -1.01913  -0.93454  -0.90441  -0.78394
 Alpha  occ. eigenvalues --   -0.73669  -0.69902  -0.65051  -0.59275  -0.56292
 Alpha  occ. eigenvalues --   -0.53341  -0.50737  -0.46914  -0.45889  -0.44189
 Alpha  occ. eigenvalues --   -0.43837  -0.42465  -0.41392  -0.41188  -0.40422
 Alpha  occ. eigenvalues --   -0.38570  -0.37972  -0.36722  -0.36072  -0.34284
 Alpha  occ. eigenvalues --   -0.27850  -0.26474  -0.24468  -0.23047
 Alpha virt. eigenvalues --    0.00801   0.03557   0.05404   0.11267   0.11746
 Alpha virt. eigenvalues --    0.13060   0.14091   0.16178   0.16209   0.16623
 Alpha virt. eigenvalues --    0.17176   0.17979   0.18105   0.18593   0.20544

 Mulliken atomic charges:
              1
     1  H    0.190189
     2  C   -0.533324
     3  H    0.190363
     4  H    0.149127
     5  C    0.598778
     6  O   -0.530768
     7  N   -0.588503
     8  H    0.332249
     9  C   -0.050213
    10  H    0.165706
    11  C   -0.456555
    12  H    0.185374
    13  H    0.175274
    14  H    0.144562
    15  C    0.593702
    16  O   -0.526992
    17  N   -0.602553
    18  H    0.369098
    19  C   -0.302263
    20  H    0.186870
    21  H    0.159302
    22  H    0.150578
 Sum of Mulliken atomic charges =   0.00000

 Dipole moment (field-independent basis, Debye):
    X=             -3.7100    Y=             -0.1486    Z=             -1.6614  Tot=              4.0678
 Quadrupole moment (field-independent basis, Debye-Ang):
   XX=            -61.4459   YY=            -57.2014   ZZ=            -60.1145
   XY=             -7.4075   XZ=              7.6674   YZ=              0.8914

 Normal termination of Gaussian 09 at Sat Feb 11 03:12:23 2017.
