 Gaussian 09, Revision A.02,
 Gaussian 09:  EM64L-G09RevA.02 11-Jun-2009

 ----------------------------------------------------------------------
 # b3lyp/6-31G* Opt=(ModRedundant, maxcycles=1000, calcfc) geom=nocrowd
 ----------------------------------------------------------------------

 ------------------
 Phi Psi fixed scan
 ------------------
 Symbolic Z-matrix:
 Charge =  0 Multiplicity = 1

 SCF Done:  E(RB3LYP) =  -495.826519823     A.U. after   15 cycles

  Exact polarizability:   0.000   0.000   0.000   0.000   0.000   0.000
 Approx polarizability: 112.206  12.346 109.123   9.224   7.787 112.835

 SCF Done:  E(RB3LYP) =  -495.832786388     A.U. after   12 cycles
 SCF Done:  E(RB3LYP) =  -495.840257292     A.U. after   12 cycles
 SCF Done:  E(RB3LYP) =  -495.842444060     A.U. after   14 cycles
 SCF Done:  E(RB3LYP) =  -495.841880473     A.U. after   14 cycles
 SCF Done:  E(RB3LYP) =  -495.842826460     A.U. after   12 cycles
 SCF Done:  E(RB3LYP) =  -495.827493296     A.U. after   15 cycles
 SCF Done:  E(RB3LYP) =  -495.842936065     A.U. after   13 cycles
 SCF Done:  E(RB3LYP) =  -495.843201131     A.U. after   12 cycles
 SCF Done:  E(RB3LYP) =  -495.843483154     A.U. after   12 cycles
 SCF Done:  E(RB3LYP) =  -495.843852967     A.U. after   10 cycles
 SCF Done:  E(RB3LYP) =  -495.843860441     A.U. after   10 cycles
 SCF Done:  E(RB3LYP) =  -495.843872177     A.U. after   10 cycles
 SCF Done:  E(RB3LYP) =  -495.843876705     A.U. after   10 cycles
 SCF Done:  E(RB3LYP) =  -495.843877188     A.U. after    7 cycles
 SCF Done:  E(RB3LYP) =  -495.843877597     A.U. after    7 cycles
 SCF Done:  E(RB3LYP) =  -495.843878220     A.U. after    8 cycles
 SCF Done:  E(RB3LYP) =  -495.843879446     A.U. after   10 cycles
 SCF Done:  E(RB3LYP) =  -495.843879618     A.U. after    9 cycles
 SCF Done:  E(RB3LYP) =  -495.843879598     A.U. after    7 cycles
 Optimization completed.
    -- Stationary point found.

                         Standard orientation:
 ---------------------------------------------------------------------
 Center     Atomic      Atomic             Coordinates (Angstroms)
 Number     Number       Type             X           Y           Z
 ---------------------------------------------------------------------
      1          1           0       -3.882834   -0.814889    0.908539
      2          6           0       -3.136374   -1.053963    0.148545
      3          1           0       -3.587605   -0.978669   -0.845991
      4          1           0       -2.813286   -2.090451    0.303652
      5          6           0       -1.940907   -0.129029    0.328080
      6          8           0       -1.621569    0.316563    1.422884
      7          7           0       -1.263009    0.161342   -0.834151
      8          1           0       -1.404059   -0.494581   -1.591347
      9          6           0        0.061499    0.783597   -0.829604
     10          1           0        0.283213    0.979557   -1.887649
     11          6           0        0.097309    2.133326   -0.102993
     12          1           0       -0.012486    2.014557    0.975279
     13          1           0        1.028943    2.663330   -0.335114
     14          1           0       -0.729113    2.756895   -0.456920
     15          6           0        1.115939   -0.277215   -0.417619
     16          8           0        0.970590   -1.444896   -0.762672
     17          7           0        2.220589    0.177803    0.236223
     18          1           0        2.192108    1.104588    0.634373
     19          6           0        3.271231   -0.723991    0.680833
     20          1           0        3.256020   -1.601749    0.033667
     21          1           0        4.244481   -0.229276    0.605244
     22          1           0        3.117211   -1.053021    1.716616
 ---------------------------------------------------------------------

 The electronic state is 1-A.
 Alpha  occ. eigenvalues --  -19.10918 -19.10752 -14.36308 -14.35355 -10.28330
 Alpha  occ. eigenvalues --  -10.28328 -10.23873 -10.21781 -10.18582 -10.18504
 Alpha  occ. eigenvalues --   -1.03285  -1.02284  -0.92020  -0.91694  -0.77889
 Alpha  occ. eigenvalues --   -0.72567  -0.70390  -0.65044  -0.58868  -0.56059
 Alpha  occ. eigenvalues --   -0.52908  -0.50424  -0.46151  -0.45695  -0.44342
 Alpha  occ. eigenvalues --   -0.43765  -0.42362  -0.41396  -0.39729  -0.39252
 Alpha  occ. eigenvalues --   -0.38962  -0.38320  -0.37457  -0.34992  -0.34896
 Alpha  occ. eigenvalues --   -0.26209  -0.25554  -0.24685  -0.23752
 Alpha virt. eigenvalues --    0.02475   0.03039   0.07246   0.09039   0.11626
 Alpha virt. eigenvalues --    0.12829   0.14581   0.15300   0.15867   0.16012
 Alpha virt. eigenvalues --    0.16955   0.17600   0.18368   0.19112   0.19243

 Mulliken atomic charges:
              1
     1  H    0.184048
     2  C   -0.545481
     3  H    0.154192
     4  H    0.187576
     5  C    0.595789
     6  O   -0.508674
     7  N   -0.568000
     8  H    0.332986
     9  C   -0.056068
    10  H    0.165028
    11  C   -0.482636
    12  H    0.200352
    13  H    0.135737
    14  H    0.166368
    15  C    0.621243
    16  O   -0.533243
    17  N   -0.595391
    18  H    0.335576
    19  C   -0.307809
    20  H    0.199226
    21  H    0.153373
    22  H    0.165811
 Sum of Mulliken atomic charges =   0.00000

 Dipole moment (field-independent basis, Debye):
    X=              1.2340    Y=              1.5282    Z=             -1.4610  Tot=              2.4480
 Quadrupole moment (field-independent basis, Debye-Ang):
   XX=            -50.6059   YY=            -60.6657   ZZ=            -61.6394
   XY=              6.0721   XZ=              7.4830   YZ=             -2.1939

 Normal termination of Gaussian 09 at Sat Feb 11 02:55:01 2017.
