 Gaussian 09, Revision A.02,
 Gaussian 09:  EM64L-G09RevA.02 11-Jun-2009

 ----------------------------------------------------------------------
 # b3lyp/6-31G* Opt=(ModRedundant, maxcycles=1000, calcfc) geom=nocrowd
 ----------------------------------------------------------------------

 ------------------
 Phi Psi fixed scan
 ------------------
 Symbolic Z-matrix:
 Charge =  0 Multiplicity = 1

 SCF Done:  E(RB3LYP) =  -495.824655097     A.U. after   15 cycles

  Exact polarizability:   0.000   0.000   0.000   0.000   0.000   0.000
 Approx polarizability: 116.102   9.313  96.765 -10.834 -10.266 122.191

 SCF Done:  E(RB3LYP) =  -495.829953633     A.U. after   13 cycles
 SCF Done:  E(RB3LYP) =  -495.835904064     A.U. after   14 cycles
 SCF Done:  E(RB3LYP) =  -495.837258507     A.U. after   13 cycles
 SCF Done:  E(RB3LYP) =  -495.837682524     A.U. after   13 cycles
 SCF Done:  E(RB3LYP) =  -495.793421291     A.U. after   15 cycles
 SCF Done:  E(RB3LYP) =  -495.809301232     A.U. after   13 cycles
 SCF Done:  E(RB3LYP) =  -495.820816375     A.U. after   12 cycles
 SCF Done:  E(RB3LYP) =  -495.828134081     A.U. after   12 cycles
 SCF Done:  E(RB3LYP) =  -495.837682602     A.U. after   13 cycles
 SCF Done:  E(RB3LYP) =  -495.838639482     A.U. after   12 cycles
 SCF Done:  E(RB3LYP) =  -495.838674643     A.U. after   16 cycles
 SCF Done:  E(RB3LYP) =  -495.838681005     A.U. after   11 cycles
 SCF Done:  E(RB3LYP) =  -495.838685757     A.U. after   10 cycles
 SCF Done:  E(RB3LYP) =  -495.838690448     A.U. after   10 cycles
 SCF Done:  E(RB3LYP) =  -495.838699058     A.U. after   10 cycles
 SCF Done:  E(RB3LYP) =  -495.838706284     A.U. after   10 cycles
 SCF Done:  E(RB3LYP) =  -495.838709662     A.U. after    9 cycles
 SCF Done:  E(RB3LYP) =  -495.838709961     A.U. after    8 cycles
 SCF Done:  E(RB3LYP) =  -495.838709980     A.U. after    6 cycles
 Optimization completed.
    -- Stationary point found.

                         Standard orientation:
 ---------------------------------------------------------------------
 Center     Atomic      Atomic             Coordinates (Angstroms)
 Number     Number       Type             X           Y           Z
 ---------------------------------------------------------------------
      1          1           0        3.940972   -1.227927   -0.150163
      2          6           0        2.995212   -1.321908    0.385971
      3          1           0        3.185806   -1.329611    1.465038
      4          1           0        2.536941   -2.279748    0.111106
      5          6           0        2.073102   -0.187032   -0.045343
      6          8           0        2.209469    0.385708   -1.112883
      7          7           0        1.115662    0.142262    0.901220
      8          1           0        1.040373   -0.524815    1.659525
      9          6           0       -0.142015    0.831374    0.615656
     10          1           0       -0.543436    1.117468    1.597723
     11          6           0        0.024078    2.113297   -0.214681
     12          1           0        0.368135    1.880258   -1.221001
     13          1           0       -0.936455    2.639285   -0.265372
     14          1           0        0.757665    2.772436    0.259323
     15          6           0       -1.147733   -0.131192   -0.061006
     16          8           0       -0.818299   -0.907417   -0.945916
     17          7           0       -2.417952   -0.065838    0.446624
     18          1           0       -2.627013    0.645047    1.133331
     19          6           0       -3.525381   -0.809005   -0.130666
     20          1           0       -3.099525   -1.557849   -0.799888
     21          1           0       -4.103824   -1.309424    0.653397
     22          1           0       -4.196544   -0.159623   -0.707105
 ---------------------------------------------------------------------

 The electronic state is 1-A.
 Alpha  occ. eigenvalues --  -19.11196 -19.10114 -14.36796 -14.35438 -10.28466
 Alpha  occ. eigenvalues --  -10.28011 -10.24053 -10.22156 -10.18325 -10.17741
 Alpha  occ. eigenvalues --   -1.03375  -1.01892  -0.92375  -0.91663  -0.77758
 Alpha  occ. eigenvalues --   -0.72291  -0.70839  -0.64218  -0.59035  -0.56292
 Alpha  occ. eigenvalues --   -0.52721  -0.49875  -0.46807  -0.45695  -0.44827
 Alpha  occ. eigenvalues --   -0.43542  -0.41846  -0.40590  -0.40295  -0.39256
 Alpha  occ. eigenvalues --   -0.38775  -0.37431  -0.36711  -0.35345  -0.34556
 Alpha  occ. eigenvalues --   -0.27034  -0.25559  -0.24152  -0.22976
 Alpha virt. eigenvalues --    0.01720   0.04370   0.05574   0.08512   0.11746
 Alpha virt. eigenvalues --    0.13423   0.14507   0.15281   0.15825   0.15965
 Alpha virt. eigenvalues --    0.16731   0.17415   0.18374   0.19291   0.19736

 Mulliken atomic charges:
              1
     1  H    0.185147
     2  C   -0.551431
     3  H    0.149451
     4  H    0.185763
     5  C    0.606613
     6  O   -0.490375
     7  N   -0.579768
     8  H    0.318623
     9  C   -0.053125
    10  H    0.125334
    11  C   -0.442948
    12  H    0.214779
    13  H    0.130181
    14  H    0.159663
    15  C    0.601741
    16  O   -0.502895
    17  N   -0.591878
    18  H    0.323947
    19  C   -0.311050
    20  H    0.206451
    21  H    0.155647
    22  H    0.160129
 Sum of Mulliken atomic charges =   0.00000

 Dipole moment (field-independent basis, Debye):
    X=             -3.1872    Y=              0.2113    Z=              4.7473  Tot=              5.7219
 Quadrupole moment (field-independent basis, Debye-Ang):
   XX=            -52.2798   YY=            -58.5095   ZZ=            -61.4196
   XY=             -5.4211   XZ=              2.3843   YZ=             -0.9992

 Normal termination of Gaussian 09 at Sat Feb 11 02:59:19 2017.
