 Gaussian 09, Revision A.02,
 Gaussian 09:  EM64L-G09RevA.02 11-Jun-2009

 ----------------------------------------------------------------------
 # b3lyp/6-31G* Opt=(ModRedundant, maxcycles=1000, calcfc) geom=nocrowd
 ----------------------------------------------------------------------

 ------------------
 Phi Psi fixed scan
 ------------------
 Symbolic Z-matrix:
 Charge =  0 Multiplicity = 1

 SCF Done:  E(RB3LYP) =  -495.832480071     A.U. after   15 cycles

  Exact polarizability:   0.000   0.000   0.000   0.000   0.000   0.000
 Approx polarizability: 107.991  12.349 115.456   5.598   5.973 112.190

 SCF Done:  E(RB3LYP) =  -495.838119774     A.U. after   13 cycles
 SCF Done:  E(RB3LYP) =  -495.843779012     A.U. after   14 cycles
 SCF Done:  E(RB3LYP) =  -495.844671875     A.U. after   14 cycles
 SCF Done:  E(RB3LYP) =  -495.817682858     A.U. after   15 cycles
 SCF Done:  E(RB3LYP) =  -495.844837136     A.U. after   14 cycles
 SCF Done:  E(RB3LYP) =  -495.845493507     A.U. after   13 cycles
 SCF Done:  E(RB3LYP) =  -495.845728942     A.U. after   13 cycles
 SCF Done:  E(RB3LYP) =  -495.845718911     A.U. after   11 cycles
 SCF Done:  E(RB3LYP) =  -495.845719055     A.U. after   12 cycles
 SCF Done:  E(RB3LYP) =  -495.845748489     A.U. after   11 cycles
 SCF Done:  E(RB3LYP) =  -495.845749936     A.U. after    9 cycles
 SCF Done:  E(RB3LYP) =  -495.845750429     A.U. after    8 cycles
 SCF Done:  E(RB3LYP) =  -495.845751284     A.U. after   10 cycles
 SCF Done:  E(RB3LYP) =  -495.845752020     A.U. after    9 cycles
 SCF Done:  E(RB3LYP) =  -495.845752172     A.U. after    7 cycles
 Optimization completed.
    -- Stationary point found.

                         Standard orientation:
 ---------------------------------------------------------------------
 Center     Atomic      Atomic             Coordinates (Angstroms)
 Number     Number       Type             X           Y           Z
 ---------------------------------------------------------------------
      1          1           0       -3.308958   -1.885534    0.364344
      2          6           0       -3.124100   -0.983594   -0.223140
      3          1           0       -3.918892   -0.265668    0.011363
      4          1           0       -3.182439   -1.225389   -1.289586
      5          6           0       -1.782428   -0.394161    0.192287
      6          8           0       -1.375732   -0.441377    1.344326
      7          7           0       -1.056524    0.182755   -0.827089
      8          1           0       -1.523652    0.279208   -1.718485
      9          6           0        0.093784    1.072630   -0.598436
     10          1           0        0.340454    1.472643   -1.590208
     11          6           0       -0.214421    2.254081    0.329895
     12          1           0       -0.508741    1.897774    1.318812
     13          1           0        0.681732    2.869306    0.430198
     14          1           0       -1.024728    2.861180   -0.088084
     15          6           0        1.384092    0.343436   -0.153295
     16          8           0        2.340958    0.994626    0.250179
     17          7           0        1.404062   -1.003809   -0.330284
     18          1           0        0.528633   -1.452381   -0.554695
     19          6           0        2.526025   -1.820530    0.094654
     20          1           0        3.376100   -1.156104    0.255464
     21          1           0        2.308700   -2.349053    1.031549
     22          1           0        2.779503   -2.555762   -0.676890
 ---------------------------------------------------------------------

 The electronic state is 1-A.
 Alpha  occ. eigenvalues --  -19.11963 -19.10139 -14.37216 -14.35271 -10.29734
 Alpha  occ. eigenvalues --  -10.27782 -10.23975 -10.21070 -10.20187 -10.17139
 Alpha  occ. eigenvalues --   -1.04032  -1.02153  -0.93250  -0.90898  -0.77915
 Alpha  occ. eigenvalues --   -0.73232  -0.70508  -0.64282  -0.59114  -0.56964
 Alpha  occ. eigenvalues --   -0.52905  -0.50357  -0.47096  -0.45701  -0.44826
 Alpha  occ. eigenvalues --   -0.43920  -0.41926  -0.41387  -0.40563  -0.39840
 Alpha  occ. eigenvalues --   -0.38348  -0.38018  -0.36336  -0.35711  -0.34473
 Alpha  occ. eigenvalues --   -0.27740  -0.25623  -0.24444  -0.23522
 Alpha virt. eigenvalues --    0.01455   0.03182   0.06104   0.10326   0.11356
 Alpha virt. eigenvalues --    0.13472   0.13793   0.14355   0.15875   0.16455
 Alpha virt. eigenvalues --    0.17359   0.17833   0.18181   0.18468   0.19448

 Mulliken atomic charges:
              1
     1  H    0.190018
     2  C   -0.542802
     3  H    0.187278
     4  H    0.149022
     5  C    0.578042
     6  O   -0.491600
     7  N   -0.621311
     8  H    0.326930
     9  C   -0.044416
    10  H    0.163379
    11  C   -0.450807
    12  H    0.190929
    13  H    0.182031
    14  H    0.129501
    15  C    0.628451
    16  O   -0.529369
    17  N   -0.585396
    18  H    0.335785
    19  C   -0.310167
    20  H    0.200277
    21  H    0.164120
    22  H    0.150104
 Sum of Mulliken atomic charges =   0.00000

 Dipole moment (field-independent basis, Debye):
    X=             -3.2079    Y=             -1.7280    Z=             -4.0014  Tot=              5.4118
 Quadrupole moment (field-independent basis, Debye-Ang):
   XX=            -59.9713   YY=            -56.5801   ZZ=            -60.8187
   XY=             -5.8609   XZ=              3.8516   YZ=             -0.4706

 Normal termination of Gaussian 09 at Sat Feb 11 02:45:12 2017.
