 Gaussian 09, Revision A.02,
 Gaussian 09:  EM64L-G09RevA.02 11-Jun-2009

 ----------------------------------------------------------------------
 # b3lyp/6-31G* Opt=(ModRedundant, maxcycles=1000, calcfc) geom=nocrowd
 ----------------------------------------------------------------------

 ------------------
 Phi Psi fixed scan
 ------------------
 Symbolic Z-matrix:
 Charge =  0 Multiplicity = 1

 SCF Done:  E(RB3LYP) =  -495.834381731     A.U. after   15 cycles

  Exact polarizability:   0.000   0.000   0.000   0.000   0.000   0.000
 Approx polarizability: 107.221   4.025 114.033   3.166  24.104 114.795

 SCF Done:  E(RB3LYP) =  -495.840158151     A.U. after   16 cycles
 SCF Done:  E(RB3LYP) =  -495.847138343     A.U. after   12 cycles
 SCF Done:  E(RB3LYP) =  -495.848881311     A.U. after   12 cycles
 SCF Done:  E(RB3LYP) =  -495.849596391     A.U. after   12 cycles
 SCF Done:  E(RB3LYP) =  -495.829675204     A.U. after   14 cycles
 SCF Done:  E(RB3LYP) =  -495.850064072     A.U. after   13 cycles
 SCF Done:  E(RB3LYP) =  -495.850067719     A.U. after   11 cycles
 SCF Done:  E(RB3LYP) =  -495.850240065     A.U. after   12 cycles
 SCF Done:  E(RB3LYP) =  -495.850276450     A.U. after   12 cycles
 SCF Done:  E(RB3LYP) =  -495.850286057     A.U. after   10 cycles
 SCF Done:  E(RB3LYP) =  -495.850294806     A.U. after   11 cycles
 SCF Done:  E(RB3LYP) =  -495.850302033     A.U. after   10 cycles
 SCF Done:  E(RB3LYP) =  -495.850307019     A.U. after   10 cycles
 SCF Done:  E(RB3LYP) =  -495.850312607     A.U. after   10 cycles
 SCF Done:  E(RB3LYP) =  -495.850318927     A.U. after   10 cycles
 SCF Done:  E(RB3LYP) =  -495.850321688     A.U. after   10 cycles
 SCF Done:  E(RB3LYP) =  -495.850321833     A.U. after    7 cycles
 SCF Done:  E(RB3LYP) =  -495.850321871     A.U. after    6 cycles
 SCF Done:  E(RB3LYP) =  -495.850321898     A.U. after    6 cycles
 Optimization completed.
    -- Stationary point found.

                         Standard orientation:
 ---------------------------------------------------------------------
 Center     Atomic      Atomic             Coordinates (Angstroms)
 Number     Number       Type             X           Y           Z
 ---------------------------------------------------------------------
      1          1           0       -3.083637   -1.883683   -0.854024
      2          6           0       -3.112818   -0.809234   -0.651735
      3          1           0       -3.919585   -0.634456    0.067556
      4          1           0       -3.345844   -0.275712   -1.578320
      5          6           0       -1.795579   -0.395746   -0.014752
      6          8           0       -1.362619   -0.979183    0.982241
      7          7           0       -1.151442    0.646237   -0.607415
      8          1           0       -1.541090    1.018026   -1.461024
      9          6           0        0.093355    1.270635   -0.120872
     10          1           0        0.250575    2.132711   -0.773038
     11          6           0       -0.008577    1.765309    1.327813
     12          1           0       -0.195716    0.948563    2.025608
     13          1           0        0.925715    2.262625    1.608456
     14          1           0       -0.825069    2.490263    1.417024
     15          6           0        1.331158    0.382107   -0.405773
     16          8           0        2.137603    0.701172   -1.273891
     17          7           0        1.465320   -0.703816    0.401521
     18          1           0        0.636113   -0.988792    0.919124
     19          6           0        2.534119   -1.665840    0.194521
     20          1           0        3.417013   -1.133453   -0.163203
     21          1           0        2.765623   -2.162991    1.140908
     22          1           0        2.268938   -2.429348   -0.549818
 ---------------------------------------------------------------------

 The electronic state is 1-A.
 Alpha  occ. eigenvalues --  -19.12381 -19.10186 -14.37634 -14.34313 -10.30204
 Alpha  occ. eigenvalues --  -10.27388 -10.23854 -10.20693 -10.20250 -10.18313
 Alpha  occ. eigenvalues --   -1.04247  -1.01901  -0.93309  -0.90487  -0.78375
 Alpha  occ. eigenvalues --   -0.73605  -0.69737  -0.65232  -0.59323  -0.56171
 Alpha  occ. eigenvalues --   -0.53083  -0.50809  -0.46968  -0.45725  -0.44043
 Alpha  occ. eigenvalues --   -0.44037  -0.42013  -0.41533  -0.41139  -0.40323
 Alpha  occ. eigenvalues --   -0.38646  -0.37538  -0.36820  -0.35716  -0.35445
 Alpha  occ. eigenvalues --   -0.27853  -0.26304  -0.24232  -0.23088
 Alpha virt. eigenvalues --    0.01099   0.03309   0.05850   0.11197   0.11639
 Alpha virt. eigenvalues --    0.12889   0.14111   0.15713   0.16530   0.16715
 Alpha virt. eigenvalues --    0.16901   0.17965   0.18095   0.18809   0.20019

 Mulliken atomic charges:
              1
     1  H    0.190047
     2  C   -0.531591
     3  H    0.190381
     4  H    0.148188
     5  C    0.605790
     6  O   -0.531607
     7  N   -0.594489
     8  H    0.335092
     9  C   -0.054318
    10  H    0.164906
    11  C   -0.453277
    12  H    0.184856
    13  H    0.161425
    14  H    0.147516
    15  C    0.590278
    16  O   -0.523506
    17  N   -0.593006
    18  H    0.369882
    19  C   -0.303901
    20  H    0.188940
    21  H    0.152944
    22  H    0.155448
 Sum of Mulliken atomic charges =   0.00000

 Dipole moment (field-independent basis, Debye):
    X=             -3.0904    Y=              0.2792    Z=             -0.3547  Tot=              3.1232
 Quadrupole moment (field-independent basis, Debye-Ang):
   XX=            -58.8120   YY=            -57.0349   ZZ=            -62.4004
   XY=             -6.0460   XZ=             10.2156   YZ=              2.0539

 Normal termination of Gaussian 09 at Sat Feb 11 02:54:09 2017.
