 Gaussian 09, Revision A.02,
 Gaussian 09:  EM64L-G09RevA.02 11-Jun-2009

 ----------------------------------------------------------------------
 # b3lyp/6-31G* Opt=(ModRedundant, maxcycles=1000, calcfc) geom=nocrowd
 ----------------------------------------------------------------------

 ------------------
 Phi Psi fixed scan
 ------------------
 Symbolic Z-matrix:
 Charge =  0 Multiplicity = 1

 SCF Done:  E(RB3LYP) =  -495.829880738     A.U. after   15 cycles

  Exact polarizability:   0.000   0.000   0.000   0.000   0.000   0.000
 Approx polarizability: 113.915  14.332 112.349   0.313  -7.705 109.541

 SCF Done:  E(RB3LYP) =  -495.835929792     A.U. after   12 cycles
 SCF Done:  E(RB3LYP) =  -495.843771513     A.U. after   13 cycles
 SCF Done:  E(RB3LYP) =  -495.846044628     A.U. after   12 cycles
 SCF Done:  E(RB3LYP) =  -495.845552961     A.U. after   13 cycles
 SCF Done:  E(RB3LYP) =  -495.846531211     A.U. after   13 cycles
 SCF Done:  E(RB3LYP) =  -495.846948969     A.U. after   12 cycles
 SCF Done:  E(RB3LYP) =  -495.830166755     A.U. after   14 cycles
 SCF Done:  E(RB3LYP) =  -495.847252461     A.U. after   13 cycles
 SCF Done:  E(RB3LYP) =  -495.847469893     A.U. after   11 cycles
 SCF Done:  E(RB3LYP) =  -495.847707993     A.U. after   12 cycles
 SCF Done:  E(RB3LYP) =  -495.847764630     A.U. after   12 cycles
 SCF Done:  E(RB3LYP) =  -495.847779026     A.U. after   10 cycles
 SCF Done:  E(RB3LYP) =  -495.847784114     A.U. after   10 cycles
 SCF Done:  E(RB3LYP) =  -495.847785467     A.U. after    8 cycles
 SCF Done:  E(RB3LYP) =  -495.847785750     A.U. after    7 cycles
 SCF Done:  E(RB3LYP) =  -495.847786021     A.U. after    7 cycles
 SCF Done:  E(RB3LYP) =  -495.847786152     A.U. after    8 cycles
 SCF Done:  E(RB3LYP) =  -495.847786168     A.U. after    7 cycles
 SCF Done:  E(RB3LYP) =  -495.847786144     A.U. after    6 cycles
 Optimization completed.
    -- Stationary point found.

                         Standard orientation:
 ---------------------------------------------------------------------
 Center     Atomic      Atomic             Coordinates (Angstroms)
 Number     Number       Type             X           Y           Z
 ---------------------------------------------------------------------
      1          1           0       -3.411499   -1.800354   -0.169935
      2          6           0       -3.223700   -0.748592   -0.398203
      3          1           0       -3.953828   -0.153186    0.161902
      4          1           0       -3.382446   -0.575018   -1.467210
      5          6           0       -1.825078   -0.385665    0.076951
      6          8           0       -1.375673   -0.805978    1.143803
      7          7           0       -1.100604    0.408811   -0.761629
      8          1           0       -1.555986    0.699476   -1.615319
      9          6           0        0.114422    1.162438   -0.405543
     10          1           0        0.320426    1.798141   -1.271548
     11          6           0       -0.086186    2.069414    0.820554
     12          1           0       -0.329765    1.474071    1.703761
     13          1           0        0.837335    2.623756    1.005887
     14          1           0       -0.898430    2.781580    0.639737
     15          6           0        1.415787    0.341304   -0.248370
     16          8           0        2.487583    0.936884   -0.286726
     17          7           0        1.299637   -1.009510   -0.137039
     18          1           0        0.418643   -1.346911    0.239061
     19          6           0        2.485479   -1.817197    0.108213
     20          1           0        3.296195   -1.452481   -0.524670
     21          1           0        2.818739   -1.762689    1.153334
     22          1           0        2.267759   -2.858954   -0.142556
 ---------------------------------------------------------------------

 The electronic state is 1-A.
 Alpha  occ. eigenvalues --  -19.12384 -19.10245 -14.37465 -14.34599 -10.30195
 Alpha  occ. eigenvalues --  -10.27600 -10.24099 -10.20748 -10.20394 -10.17980
 Alpha  occ. eigenvalues --   -1.04351  -1.02134  -0.93370  -0.90598  -0.78280
 Alpha  occ. eigenvalues --   -0.73584  -0.69982  -0.64881  -0.59221  -0.56329
 Alpha  occ. eigenvalues --   -0.53228  -0.50614  -0.46921  -0.45924  -0.44211
 Alpha  occ. eigenvalues --   -0.44047  -0.42400  -0.41389  -0.41033  -0.40240
 Alpha  occ. eigenvalues --   -0.38456  -0.38147  -0.36569  -0.36104  -0.34182
 Alpha  occ. eigenvalues --   -0.27794  -0.26392  -0.24751  -0.23176
 Alpha virt. eigenvalues --    0.00860   0.03177   0.05589   0.11202   0.11563
 Alpha virt. eigenvalues --    0.13206   0.14073   0.15803   0.15994   0.16161
 Alpha virt. eigenvalues --    0.17457   0.17985   0.18160   0.18587   0.20167

 Mulliken atomic charges:
              1
     1  H    0.189897
     2  C   -0.536185
     3  H    0.189023
     4  H    0.150831
     5  C    0.590220
     6  O   -0.525424
     7  N   -0.589310
     8  H    0.330080
     9  C   -0.045582
    10  H    0.166536
    11  C   -0.455905
    12  H    0.184774
    13  H    0.179893
    14  H    0.139965
    15  C    0.598764
    16  O   -0.525815
    17  N   -0.596344
    18  H    0.359929
    19  C   -0.303250
    20  H    0.186479
    21  H    0.161521
    22  H    0.149905
 Sum of Mulliken atomic charges =   0.00000

 Dipole moment (field-independent basis, Debye):
    X=             -3.6903    Y=             -0.4100    Z=             -2.2198  Tot=              4.3260
 Quadrupole moment (field-independent basis, Debye-Ang):
   XX=            -60.9505   YY=            -57.2200   ZZ=            -60.1838
   XY=             -7.3137   XZ=              6.3193   YZ=              0.2865

 Normal termination of Gaussian 09 at Sat Feb 11 03:03:35 2017.
