 Gaussian 09, Revision A.02,
 Gaussian 09:  EM64L-G09RevA.02 11-Jun-2009

 ----------------------------------------------------------------------
 # b3lyp/6-31G* Opt=(ModRedundant, maxcycles=1000, calcfc) geom=nocrowd
 ----------------------------------------------------------------------

 ------------------
 Phi Psi fixed scan
 ------------------
 Symbolic Z-matrix:
 Charge =  0 Multiplicity = 1

 SCF Done:  E(RB3LYP) =  -495.831333705     A.U. after   15 cycles

  Exact polarizability:   0.000   0.000   0.000   0.000   0.000   0.000
 Approx polarizability: 104.274   9.265 115.989   5.298  12.675 115.122

 SCF Done:  E(RB3LYP) =  -495.836286254     A.U. after   13 cycles
 SCF Done:  E(RB3LYP) =  -495.842143463     A.U. after   13 cycles
 SCF Done:  E(RB3LYP) =  -495.843941767     A.U. after   14 cycles
 SCF Done:  E(RB3LYP) =  -495.842623603     A.U. after   14 cycles
 SCF Done:  E(RB3LYP) =  -495.844303248     A.U. after   12 cycles
 SCF Done:  E(RB3LYP) =  -495.844716796     A.U. after   12 cycles
 SCF Done:  E(RB3LYP) =  -495.845092247     A.U. after   13 cycles
 SCF Done:  E(RB3LYP) =  -495.845042251     A.U. after   12 cycles
 SCF Done:  E(RB3LYP) =  -495.845306842     A.U. after   12 cycles
 SCF Done:  E(RB3LYP) =  -495.845426620     A.U. after   11 cycles
 SCF Done:  E(RB3LYP) =  -495.845430698     A.U. after   10 cycles
 SCF Done:  E(RB3LYP) =  -495.845435671     A.U. after   10 cycles
 SCF Done:  E(RB3LYP) =  -495.845450278     A.U. after   12 cycles
 SCF Done:  E(RB3LYP) =  -495.845482869     A.U. after   11 cycles
 SCF Done:  E(RB3LYP) =  -495.845492272     A.U. after   10 cycles
 SCF Done:  E(RB3LYP) =  -495.845495950     A.U. after   10 cycles
 SCF Done:  E(RB3LYP) =  -495.845496980     A.U. after   10 cycles
 SCF Done:  E(RB3LYP) =  -495.845497139     A.U. after    9 cycles
 SCF Done:  E(RB3LYP) =  -495.845497149     A.U. after    6 cycles
 Optimization completed.
    -- Stationary point found.

                         Standard orientation:
 ---------------------------------------------------------------------
 Center     Atomic      Atomic             Coordinates (Angstroms)
 Number     Number       Type             X           Y           Z
 ---------------------------------------------------------------------
      1          1           0       -3.272986   -1.913323    0.542712
      2          6           0       -3.090815   -1.081158   -0.140539
      3          1           0       -3.899768   -0.353786   -0.002874
      4          1           0       -3.125437   -1.443141   -1.173472
      5          6           0       -1.764362   -0.428991    0.225412
      6          8           0       -1.364130   -0.357353    1.377176
      7          7           0       -1.034839    0.055974   -0.842382
      8          1           0       -1.525766    0.110149   -1.725705
      9          6           0        0.066431    1.020095   -0.665658
     10          1           0        0.341543    1.318971   -1.685779
     11          6           0       -0.319156    2.274904    0.122033
     12          1           0       -0.632000    2.011420    1.133678
     13          1           0        0.546823    2.936238    0.189728
     14          1           0       -1.136299    2.801565   -0.383279
     15          6           0        1.345618    0.362605   -0.093629
     16          8           0        2.177688    1.029477    0.507479
     17          7           0        1.520093   -0.946801   -0.428604
     18          1           0        0.710271   -1.434078   -0.785777
     19          6           0        2.641688   -1.721612    0.070853
     20          1           0        3.415369   -1.019325    0.384161
     21          1           0        2.359408   -2.339904    0.932897
     22          1           0        3.037179   -2.371039   -0.717467
 ---------------------------------------------------------------------

 The electronic state is 1-A.
 Alpha  occ. eigenvalues --  -19.12036 -19.10244 -14.37153 -14.35136 -10.29687
 Alpha  occ. eigenvalues --  -10.27739 -10.23912 -10.21026 -10.20147 -10.17075
 Alpha  occ. eigenvalues --   -1.04064  -1.02182  -0.93234  -0.90791  -0.77860
 Alpha  occ. eigenvalues --   -0.73200  -0.70478  -0.64096  -0.59120  -0.56660
 Alpha  occ. eigenvalues --   -0.52640  -0.50277  -0.47066  -0.45770  -0.44826
 Alpha  occ. eigenvalues --   -0.43901  -0.41841  -0.41421  -0.40510  -0.39749
 Alpha  occ. eigenvalues --   -0.38326  -0.37782  -0.36363  -0.35627  -0.34701
 Alpha  occ. eigenvalues --   -0.27759  -0.25557  -0.24461  -0.23614
 Alpha virt. eigenvalues --    0.01394   0.02920   0.06393   0.10430   0.11266
 Alpha virt. eigenvalues --    0.13500   0.13555   0.14377   0.15901   0.16377
 Alpha virt. eigenvalues --    0.17298   0.17727   0.18140   0.18435   0.19590

 Mulliken atomic charges:
              1
     1  H    0.191411
     2  C   -0.544621
     3  H    0.186028
     4  H    0.150064
     5  C    0.584950
     6  O   -0.485806
     7  N   -0.619165
     8  H    0.324617
     9  C   -0.053869
    10  H    0.161581
    11  C   -0.447191
    12  H    0.193111
    13  H    0.178261
    14  H    0.126174
    15  C    0.630126
    16  O   -0.524470
    17  N   -0.586027
    18  H    0.332130
    19  C   -0.308705
    20  H    0.199613
    21  H    0.162253
    22  H    0.149535
 Sum of Mulliken atomic charges =   0.00000

 Dipole moment (field-independent basis, Debye):
    X=             -2.9309    Y=             -1.9874    Z=             -4.4814  Tot=              5.7117
 Quadrupole moment (field-independent basis, Debye-Ang):
   XX=            -58.3005   YY=            -56.8593   ZZ=            -61.2627
   XY=             -5.1609   XZ=              2.7668   YZ=             -0.9460

 Normal termination of Gaussian 09 at Sat Feb 11 02:57:35 2017.
