 Gaussian 09, Revision A.02,
 Gaussian 09:  EM64L-G09RevA.02 11-Jun-2009

 ----------------------------------------------------------------------
 # b3lyp/6-31G* Opt=(ModRedundant, maxcycles=1000, calcfc) geom=nocrowd
 ----------------------------------------------------------------------

 ------------------
 Phi Psi fixed scan
 ------------------
 Symbolic Z-matrix:
 Charge =  0 Multiplicity = 1

 SCF Done:  E(RB3LYP) =  -495.827633738     A.U. after   15 cycles

  Exact polarizability:   0.000   0.000   0.000   0.000   0.000   0.000
 Approx polarizability: 103.745   3.805 102.664   6.225  18.494 128.346

 SCF Done:  E(RB3LYP) =  -495.834160662     A.U. after   12 cycles
 SCF Done:  E(RB3LYP) =  -495.842166557     A.U. after   12 cycles
 SCF Done:  E(RB3LYP) =  -495.844293332     A.U. after   12 cycles
 SCF Done:  E(RB3LYP) =  -495.845206789     A.U. after   13 cycles
 SCF Done:  E(RB3LYP) =  -495.832065239     A.U. after   14 cycles
 SCF Done:  E(RB3LYP) =  -495.845808100     A.U. after   13 cycles
 SCF Done:  E(RB3LYP) =  -495.845771007     A.U. after   11 cycles
 SCF Done:  E(RB3LYP) =  -495.845887515     A.U. after   12 cycles
 SCF Done:  E(RB3LYP) =  -495.845992125     A.U. after   12 cycles
 SCF Done:  E(RB3LYP) =  -495.846026887     A.U. after    9 cycles
 SCF Done:  E(RB3LYP) =  -495.846031265     A.U. after   10 cycles
 SCF Done:  E(RB3LYP) =  -495.846039720     A.U. after   10 cycles
 SCF Done:  E(RB3LYP) =  -495.846061485     A.U. after   11 cycles
 SCF Done:  E(RB3LYP) =  -495.846068711     A.U. after   10 cycles
 SCF Done:  E(RB3LYP) =  -495.846069462     A.U. after    9 cycles
 SCF Done:  E(RB3LYP) =  -495.846069940     A.U. after    9 cycles
 SCF Done:  E(RB3LYP) =  -495.846070281     A.U. after    9 cycles
 SCF Done:  E(RB3LYP) =  -495.846070363     A.U. after    7 cycles
 SCF Done:  E(RB3LYP) =  -495.846070369     A.U. after    7 cycles
 Optimization completed.
    -- Stationary point found.

                         Standard orientation:
 ---------------------------------------------------------------------
 Center     Atomic      Atomic             Coordinates (Angstroms)
 Number     Number       Type             X           Y           Z
 ---------------------------------------------------------------------
      1          1           0        2.948366   -2.120076    0.477375
      2          6           0        3.079295   -1.036272    0.402855
      3          1           0        3.880348   -0.853366   -0.320134
      4          1           0        3.386502   -0.645222    1.377596
      5          6           0        1.793153   -0.422551   -0.129276
      6          8           0        1.313199   -0.767841   -1.207814
      7          7           0        1.221120    0.531449    0.662059
      8          1           0        1.571599    0.658410    1.599815
      9          6           0       -0.032313    1.215370    0.311588
     10          1           0       -0.172181    1.962280    1.098889
     11          6           0        0.029629    1.952369   -1.030292
     12          1           0        0.244010    1.282416   -1.863519
     13          1           0       -0.920171    2.464652   -1.214335
     14          1           0        0.824398    2.705037   -0.993432
     15          6           0       -1.215571    0.244121    0.548119
     16          8           0       -1.621107    0.042238    1.687000
     17          7           0       -1.780637   -0.300243   -0.567217
     18          1           0       -1.180627   -0.344648   -1.382285
     19          6           0       -2.812335   -1.319604   -0.444667
     20          1           0       -3.482420   -1.037223    0.368692
     21          1           0       -3.376814   -1.377320   -1.379349
     22          1           0       -2.394269   -2.309159   -0.216650
 ---------------------------------------------------------------------

 The electronic state is 1-A.
 Alpha  occ. eigenvalues --  -19.11473 -19.10601 -14.36796 -14.35228 -10.29342
 Alpha  occ. eigenvalues --  -10.27773 -10.23753 -10.21077 -10.19619 -10.18275
 Alpha  occ. eigenvalues --   -1.03542  -1.02330  -0.92579  -0.91158  -0.78074
 Alpha  occ. eigenvalues --   -0.73162  -0.69901  -0.65160  -0.58960  -0.56442
 Alpha  occ. eigenvalues --   -0.52848  -0.50653  -0.46576  -0.45561  -0.44277
 Alpha  occ. eigenvalues --   -0.43963  -0.41798  -0.41566  -0.40412  -0.39672
 Alpha  occ. eigenvalues --   -0.38852  -0.37974  -0.37001  -0.35497  -0.35169
 Alpha  occ. eigenvalues --   -0.27160  -0.25605  -0.24913  -0.23293
 Alpha virt. eigenvalues --    0.01707   0.02941   0.06689   0.09923   0.11462
 Alpha virt. eigenvalues --    0.12778   0.14092   0.15405   0.16230   0.16357
 Alpha virt. eigenvalues --    0.17383   0.17897   0.18109   0.18975   0.20466

 Mulliken atomic charges:
              1
     1  H    0.188223
     2  C   -0.533244
     3  H    0.187323
     4  H    0.146611
     5  C    0.602880
     6  O   -0.528421
     7  N   -0.588967
     8  H    0.334946
     9  C   -0.046030
    10  H    0.163606
    11  C   -0.465261
    12  H    0.184679
    13  H    0.157387
    14  H    0.151630
    15  C    0.594425
    16  O   -0.521637
    17  N   -0.576972
    18  H    0.349502
    19  C   -0.305097
    20  H    0.189789
    21  H    0.152426
    22  H    0.162203
 Sum of Mulliken atomic charges =   0.00000

 Dipole moment (field-independent basis, Debye):
    X=              1.7070    Y=              0.8358    Z=             -0.2388  Tot=              1.9156
 Quadrupole moment (field-independent basis, Debye-Ang):
   XX=            -54.7811   YY=            -56.9189   ZZ=            -64.3052
   XY=              2.2832   XZ=             10.6520   YZ=             -0.0910

 Normal termination of Gaussian 09 at Sat Feb 11 02:57:04 2017.
