 Gaussian 09, Revision A.02,
 Gaussian 09:  EM64L-G09RevA.02 11-Jun-2009

 ----------------------------------------------------------------------
 # b3lyp/6-31G* Opt=(ModRedundant, maxcycles=1000, calcfc) geom=nocrowd
 ----------------------------------------------------------------------

 ------------------
 Phi Psi fixed scan
 ------------------
 Symbolic Z-matrix:
 Charge =  0 Multiplicity = 1

 SCF Done:  E(RB3LYP) =  -495.823918001     A.U. after   16 cycles

  Exact polarizability:   0.000   0.000   0.000   0.000   0.000   0.000
 Approx polarizability: 110.341  -1.487  92.475 -12.825   9.072 132.881

 SCF Done:  E(RB3LYP) =  -495.829914751     A.U. after   12 cycles
 SCF Done:  E(RB3LYP) =  -495.835539848     A.U. after   15 cycles
 SCF Done:  E(RB3LYP) =  -495.836091216     A.U. after   13 cycles
 SCF Done:  E(RB3LYP) =  -495.798410367     A.U. after   15 cycles
 SCF Done:  E(RB3LYP) =  -495.836168312     A.U. after   16 cycles
 SCF Done:  E(RB3LYP) =  -495.836632352     A.U. after   12 cycles
 SCF Done:  E(RB3LYP) =  -495.836658253     A.U. after   13 cycles
 SCF Done:  E(RB3LYP) =  -495.836283687     A.U. after   13 cycles
 SCF Done:  E(RB3LYP) =  -495.836696392     A.U. after   12 cycles
 SCF Done:  E(RB3LYP) =  -495.836801081     A.U. after   12 cycles
 SCF Done:  E(RB3LYP) =  -495.836821676     A.U. after   11 cycles
 SCF Done:  E(RB3LYP) =  -495.836834718     A.U. after   10 cycles
 SCF Done:  E(RB3LYP) =  -495.836850482     A.U. after   11 cycles
 SCF Done:  E(RB3LYP) =  -495.836866478     A.U. after   11 cycles
 SCF Done:  E(RB3LYP) =  -495.836875337     A.U. after   10 cycles
 SCF Done:  E(RB3LYP) =  -495.836877462     A.U. after   10 cycles
 SCF Done:  E(RB3LYP) =  -495.836877719     A.U. after    8 cycles
 Optimization completed.
    -- Stationary point found.

                         Standard orientation:
 ---------------------------------------------------------------------
 Center     Atomic      Atomic             Coordinates (Angstroms)
 Number     Number       Type             X           Y           Z
 ---------------------------------------------------------------------
      1          1           0       -3.833701   -1.434264    0.223788
      2          6           0       -2.847419   -1.565244   -0.224797
      3          1           0       -2.958563   -1.767444   -1.295836
      4          1           0       -2.374539   -2.437605    0.242647
      5          6           0       -2.012535   -0.321142    0.066795
      6          8           0       -2.219723    0.380164    1.041748
      7          7           0       -1.043664   -0.067257   -0.887971
      8          1           0       -0.903229   -0.814189   -1.556238
      9          6           0        0.123296    0.811996   -0.723766
     10          1           0        0.525069    0.939446   -1.738149
     11          6           0       -0.226572    2.194631   -0.167451
     12          1           0       -0.551297    2.114304    0.868575
     13          1           0        0.657069    2.840901   -0.223352
     14          1           0       -1.028881    2.646519   -0.758364
     15          6           0        1.192719    0.127134    0.160490
     16          8           0        1.054302   -0.011581    1.366526
     17          7           0        2.278076   -0.348534   -0.529197
     18          1           0        2.362594   -0.130961   -1.511549
     19          6           0        3.397092   -0.997570    0.132097
     20          1           0        3.115135   -1.141064    1.176114
     21          1           0        3.609813   -1.971503   -0.323235
     22          1           0        4.303528   -0.381099    0.089378
 ---------------------------------------------------------------------

 The electronic state is 1-A.
 Alpha  occ. eigenvalues --  -19.11002 -19.10337 -14.36819 -14.35930 -10.28400
 Alpha  occ. eigenvalues --  -10.28294 -10.24075 -10.22126 -10.18739 -10.17126
 Alpha  occ. eigenvalues --   -1.03249  -1.02135  -0.92470  -0.91738  -0.77715
 Alpha  occ. eigenvalues --   -0.72394  -0.71014  -0.64038  -0.59079  -0.56587
 Alpha  occ. eigenvalues --   -0.52808  -0.49946  -0.46920  -0.46008  -0.44876
 Alpha  occ. eigenvalues --   -0.43808  -0.41733  -0.40539  -0.40028  -0.39211
 Alpha  occ. eigenvalues --   -0.38825  -0.37168  -0.36024  -0.35664  -0.34871
 Alpha  occ. eigenvalues --   -0.27446  -0.25582  -0.24128  -0.22882
 Alpha virt. eigenvalues --    0.01530   0.04272   0.05138   0.08741   0.11742
 Alpha virt. eigenvalues --    0.13310   0.13898   0.15343   0.15550   0.16193
 Alpha virt. eigenvalues --    0.16914   0.17544   0.18239   0.19560   0.19857

 Mulliken atomic charges:
              1
     1  H    0.187941
     2  C   -0.548005
     3  H    0.148552
     4  H    0.181307
     5  C    0.599742
     6  O   -0.482507
     7  N   -0.588159
     8  H    0.315753
     9  C   -0.041720
    10  H    0.120906
    11  C   -0.447089
    12  H    0.220886
    13  H    0.136293
    14  H    0.151219
    15  C    0.613880
    16  O   -0.501788
    17  N   -0.598385
    18  H    0.320499
    19  C   -0.312109
    20  H    0.208501
    21  H    0.155447
    22  H    0.158835
 Sum of Mulliken atomic charges =   0.00000

 Dipole moment (field-independent basis, Debye):
    X=              2.7244    Y=             -1.8590    Z=             -5.4739  Tot=              6.3908
 Quadrupole moment (field-independent basis, Debye-Ang):
   XX=            -54.6924   YY=            -56.6356   ZZ=            -62.2037
   XY=              2.9983   XZ=              0.0520   YZ=             -0.0818

 Normal termination of Gaussian 09 at Sat Feb 11 02:43:11 2017.
