 Gaussian 09, Revision A.02,
 Gaussian 09:  EM64L-G09RevA.02 11-Jun-2009

 ----------------------------------------------------------------------
 # b3lyp/6-31G* Opt=(ModRedundant, maxcycles=1000, calcfc) geom=nocrowd
 ----------------------------------------------------------------------

 ------------------
 Phi Psi fixed scan
 ------------------
 Symbolic Z-matrix:
 Charge =  0 Multiplicity = 1

 SCF Done:  E(RB3LYP) =  -495.828297356     A.U. after   15 cycles

  Exact polarizability:   0.000   0.000   0.000   0.000   0.000   0.000
 Approx polarizability: 114.683  13.860 108.689   6.027   2.576 110.435

 SCF Done:  E(RB3LYP) =  -495.833657243     A.U. after   12 cycles
 SCF Done:  E(RB3LYP) =  -495.839969200     A.U. after   13 cycles
 SCF Done:  E(RB3LYP) =  -495.841824157     A.U. after   14 cycles
 SCF Done:  E(RB3LYP) =  -495.841714382     A.U. after   13 cycles
 SCF Done:  E(RB3LYP) =  -495.842237987     A.U. after   12 cycles
 SCF Done:  E(RB3LYP) =  -495.833502283     A.U. after   14 cycles
 SCF Done:  E(RB3LYP) =  -495.842362806     A.U. after   13 cycles
 SCF Done:  E(RB3LYP) =  -495.842655793     A.U. after   12 cycles
 SCF Done:  E(RB3LYP) =  -495.842956447     A.U. after   12 cycles
 SCF Done:  E(RB3LYP) =  -495.843116628     A.U. after   12 cycles
 SCF Done:  E(RB3LYP) =  -495.843253268     A.U. after   12 cycles
 SCF Done:  E(RB3LYP) =  -495.843263728     A.U. after   11 cycles
 SCF Done:  E(RB3LYP) =  -495.843269270     A.U. after   10 cycles
 SCF Done:  E(RB3LYP) =  -495.843270334     A.U. after    7 cycles
 SCF Done:  E(RB3LYP) =  -495.843273198     A.U. after    9 cycles
 SCF Done:  E(RB3LYP) =  -495.843277038     A.U. after   10 cycles
 SCF Done:  E(RB3LYP) =  -495.843281148     A.U. after   10 cycles
 SCF Done:  E(RB3LYP) =  -495.843284159     A.U. after    9 cycles
 SCF Done:  E(RB3LYP) =  -495.843284218     A.U. after    7 cycles
 Optimization completed.
    -- Stationary point found.

                         Standard orientation:
 ---------------------------------------------------------------------
 Center     Atomic      Atomic             Coordinates (Angstroms)
 Number     Number       Type             X           Y           Z
 ---------------------------------------------------------------------
      1          1           0       -3.917828   -0.858701    0.804113
      2          6           0       -3.153179   -1.052792    0.049816
      3          1           0       -3.588383   -0.952504   -0.949961
      4          1           0       -2.804770   -2.085662    0.171242
      5          6           0       -1.984489   -0.105350    0.279657
      6          8           0       -1.736313    0.369523    1.379366
      7          7           0       -1.247046    0.173439   -0.851746
      8          1           0       -1.344544   -0.506075   -1.595291
      9          6           0        0.082184    0.774191   -0.781809
     10          1           0        0.354660    0.982119   -1.826373
     11          6           0        0.110505    2.114730   -0.033657
     12          1           0        0.010644    1.979105    1.042786
     13          1           0        1.034165    2.661041   -0.261959
     14          1           0       -0.722686    2.736162   -0.374571
     15          6           0        1.105877   -0.298117   -0.318628
     16          8           0        0.852447   -1.491324   -0.434872
     17          7           0        2.316114    0.172131    0.098390
     18          1           0        2.403535    1.156086    0.304313
     19          6           0        3.377287   -0.715799    0.545422
     20          1           0        3.151982   -1.714740    0.170561
     21          1           0        4.342352   -0.384857    0.147579
     22          1           0        3.439213   -0.757741    1.640296
 ---------------------------------------------------------------------

 The electronic state is 1-A.
 Alpha  occ. eigenvalues --  -19.11107 -19.10592 -14.36350 -14.35154 -10.28430
 Alpha  occ. eigenvalues --  -10.28142 -10.23915 -10.21839 -10.18538 -10.18374
 Alpha  occ. eigenvalues --   -1.03365  -1.02184  -0.92086  -0.91593  -0.77837
 Alpha  occ. eigenvalues --   -0.72443  -0.70432  -0.64932  -0.58864  -0.55941
 Alpha  occ. eigenvalues --   -0.52897  -0.50241  -0.46294  -0.45496  -0.44429
 Alpha  occ. eigenvalues --   -0.43678  -0.42404  -0.41308  -0.39773  -0.39168
 Alpha  occ. eigenvalues --   -0.39046  -0.38037  -0.37503  -0.35021  -0.34735
 Alpha  occ. eigenvalues --   -0.26076  -0.25521  -0.24806  -0.23669
 Alpha virt. eigenvalues --    0.02667   0.03089   0.06772   0.08995   0.11702
 Alpha virt. eigenvalues --    0.12955   0.14446   0.15505   0.15874   0.16345
 Alpha virt. eigenvalues --    0.16877   0.17080   0.18385   0.19131   0.19194

 Mulliken atomic charges:
              1
     1  H    0.183285
     2  C   -0.548471
     3  H    0.154644
     4  H    0.188594
     5  C    0.596702
     6  O   -0.505679
     7  N   -0.565959
     8  H    0.330170
     9  C   -0.062397
    10  H    0.163263
    11  C   -0.470476
    12  H    0.202951
    13  H    0.128222
    14  H    0.168084
    15  C    0.621003
    16  O   -0.529779
    17  N   -0.595781
    18  H    0.331252
    19  C   -0.309487
    20  H    0.202340
    21  H    0.154153
    22  H    0.163365
 Sum of Mulliken atomic charges =   0.00000

 Dipole moment (field-independent basis, Debye):
    X=              1.8260    Y=              1.5156    Z=             -2.1305  Tot=              3.1891
 Quadrupole moment (field-independent basis, Debye-Ang):
   XX=            -50.0930   YY=            -60.7292   ZZ=            -61.3932
   XY=              6.2808   XZ=              6.5109   YZ=             -1.3948

 Normal termination of Gaussian 09 at Sat Feb 11 02:54:18 2017.
