 Gaussian 09, Revision A.02,
 Gaussian 09:  EM64L-G09RevA.02 11-Jun-2009

 ----------------------------------------------------------------------
 # b3lyp/6-31G* Opt=(ModRedundant, maxcycles=1000, calcfc) geom=nocrowd
 ----------------------------------------------------------------------

 ------------------
 Phi Psi fixed scan
 ------------------
 Symbolic Z-matrix:
 Charge =  0 Multiplicity = 1

 SCF Done:  E(RB3LYP) =  -495.829090463     A.U. after   15 cycles

  Exact polarizability:   0.000   0.000   0.000   0.000   0.000   0.000
 Approx polarizability: 101.585   5.173 114.662   3.006  18.056 118.591

 SCF Done:  E(RB3LYP) =  -495.834162230     A.U. after   13 cycles
 SCF Done:  E(RB3LYP) =  -495.840148502     A.U. after   13 cycles
 SCF Done:  E(RB3LYP) =  -495.842171629     A.U. after   14 cycles
 SCF Done:  E(RB3LYP) =  -495.840054783     A.U. after   14 cycles
 SCF Done:  E(RB3LYP) =  -495.842485644     A.U. after   12 cycles
 SCF Done:  E(RB3LYP) =  -495.842968604     A.U. after   12 cycles
 SCF Done:  E(RB3LYP) =  -495.843447885     A.U. after   13 cycles
 SCF Done:  E(RB3LYP) =  -495.843339852     A.U. after   14 cycles
 SCF Done:  E(RB3LYP) =  -495.843638662     A.U. after   12 cycles
 SCF Done:  E(RB3LYP) =  -495.843809942     A.U. after   10 cycles
 SCF Done:  E(RB3LYP) =  -495.843812885     A.U. after   10 cycles
 SCF Done:  E(RB3LYP) =  -495.843815988     A.U. after    8 cycles
 SCF Done:  E(RB3LYP) =  -495.843824621     A.U. after   10 cycles
 SCF Done:  E(RB3LYP) =  -495.843839461     A.U. after   10 cycles
 SCF Done:  E(RB3LYP) =  -495.843860759     A.U. after   11 cycles
 SCF Done:  E(RB3LYP) =  -495.843875415     A.U. after   10 cycles
 SCF Done:  E(RB3LYP) =  -495.843883773     A.U. after   11 cycles
 SCF Done:  E(RB3LYP) =  -495.843884203     A.U. after    8 cycles
 SCF Done:  E(RB3LYP) =  -495.843884266     A.U. after    7 cycles
 Optimization completed.
    -- Stationary point found.

                         Standard orientation:
 ---------------------------------------------------------------------
 Center     Atomic      Atomic             Coordinates (Angstroms)
 Number     Number       Type             X           Y           Z
 ---------------------------------------------------------------------
      1          1           0       -3.291811   -1.899271    0.676941
      2          6           0       -3.078924   -1.158844   -0.096668
      3          1           0       -3.896319   -0.427619   -0.095010
      4          1           0       -3.058547   -1.649201   -1.075656
      5          6           0       -1.772845   -0.455247    0.246775
      6          8           0       -1.405219   -0.276157    1.397113
      7          7           0       -1.020110   -0.055824   -0.841422
      8          1           0       -1.503284   -0.067562   -1.731270
      9          6           0        0.048420    0.955514   -0.720713
     10          1           0        0.351158    1.164966   -1.754721
     11          6           0       -0.393358    2.261041   -0.058142
     12          1           0       -0.706089    2.081400    0.971199
     13          1           0        0.442806    2.963678   -0.043599
     14          1           0       -1.223493    2.705588   -0.618597
     15          6           0        1.309303    0.367122   -0.040978
     16          8           0        1.987487    1.023800    0.735218
     17          7           0        1.674537   -0.864226   -0.510742
     18          1           0        0.946711   -1.398494   -0.966878
     19          6           0        2.793051   -1.589303    0.068635
     20          1           0        3.515214   -0.857055    0.432268
     21          1           0        2.486696   -2.221746    0.912615
     22          1           0        3.263929   -2.217183   -0.694249
 ---------------------------------------------------------------------

 The electronic state is 1-A.
 Alpha  occ. eigenvalues --  -19.11957 -19.10468 -14.37021 -14.35157 -10.29554
 Alpha  occ. eigenvalues --  -10.27749 -10.23860 -10.21091 -10.20030 -10.17062
 Alpha  occ. eigenvalues --   -1.03964  -1.02316  -0.93118  -0.90821  -0.77809
 Alpha  occ. eigenvalues --   -0.73124  -0.70462  -0.63973  -0.59099  -0.56452
 Alpha  occ. eigenvalues --   -0.52429  -0.50165  -0.46984  -0.45730  -0.44889
 Alpha  occ. eigenvalues --   -0.43908  -0.41712  -0.41481  -0.40383  -0.39756
 Alpha  occ. eigenvalues --   -0.38393  -0.37401  -0.36479  -0.35527  -0.34962
 Alpha  occ. eigenvalues --   -0.27752  -0.25396  -0.24583  -0.23694
 Alpha virt. eigenvalues --    0.01451   0.02511   0.06478   0.10268   0.11358
 Alpha virt. eigenvalues --    0.13198   0.13574   0.14477   0.15996   0.16153
 Alpha virt. eigenvalues --    0.17198   0.17739   0.18060   0.18513   0.19714

 Mulliken atomic charges:
              1
     1  H    0.192100
     2  C   -0.546076
     3  H    0.184043
     4  H    0.151312
     5  C    0.588397
     6  O   -0.483127
     7  N   -0.611939
     8  H    0.322269
     9  C   -0.062903
    10  H    0.158219
    11  C   -0.443538
    12  H    0.197415
    13  H    0.171048
    14  H    0.124766
    15  C    0.629301
    16  O   -0.515186
    17  N   -0.585131
    18  H    0.327917
    19  C   -0.306553
    20  H    0.196950
    21  H    0.161758
    22  H    0.148956
 Sum of Mulliken atomic charges =   0.00000

 Dipole moment (field-independent basis, Debye):
    X=             -2.4318    Y=             -2.2031    Z=             -4.8827  Tot=              5.8829
 Quadrupole moment (field-independent basis, Debye-Ang):
   XX=            -56.6933   YY=            -57.0316   ZZ=            -61.7850
   XY=             -4.3866   XZ=              2.2489   YZ=             -1.2181

 Normal termination of Gaussian 09 at Sat Feb 11 03:13:27 2017.
