 Gaussian 09, Revision A.02,
 Gaussian 09:  EM64L-G09RevA.02 11-Jun-2009

 ----------------------------------------------------------------------
 # b3lyp/6-31G* Opt=(ModRedundant, maxcycles=1000, calcfc) geom=nocrowd
 ----------------------------------------------------------------------

 ------------------
 Phi Psi fixed scan
 ------------------
 Symbolic Z-matrix:
 Charge =  0 Multiplicity = 1

 SCF Done:  E(RB3LYP) =  -495.824554152     A.U. after   15 cycles

  Exact polarizability:   0.000   0.000   0.000   0.000   0.000   0.000
 Approx polarizability: 106.138  -3.755  99.239  -9.414  18.011 129.814

 SCF Done:  E(RB3LYP) =  -495.829641384     A.U. after   12 cycles
 SCF Done:  E(RB3LYP) =  -495.835173476     A.U. after   13 cycles
 SCF Done:  E(RB3LYP) =  -495.836115238     A.U. after   13 cycles
 SCF Done:  E(RB3LYP) =  -495.834987382     A.U. after   14 cycles
 SCF Done:  E(RB3LYP) =  -495.836307892     A.U. after   14 cycles
 SCF Done:  E(RB3LYP) =  -495.836473172     A.U. after   12 cycles
 SCF Done:  E(RB3LYP) =  -495.805829414     A.U. after   15 cycles
 SCF Done:  E(RB3LYP) =  -495.836552041     A.U. after   14 cycles
 SCF Done:  E(RB3LYP) =  -495.836626350     A.U. after   11 cycles
 SCF Done:  E(RB3LYP) =  -495.836663705     A.U. after   12 cycles
 SCF Done:  E(RB3LYP) =  -495.836683503     A.U. after   10 cycles
 SCF Done:  E(RB3LYP) =  -495.836712178     A.U. after   11 cycles
 SCF Done:  E(RB3LYP) =  -495.836714643     A.U. after   10 cycles
 SCF Done:  E(RB3LYP) =  -495.836715118     A.U. after    7 cycles
 SCF Done:  E(RB3LYP) =  -495.836715668     A.U. after   10 cycles
 SCF Done:  E(RB3LYP) =  -495.836715708     A.U. after    8 cycles
 SCF Done:  E(RB3LYP) =  -495.836715704     A.U. after    7 cycles
 Optimization completed.
    -- Stationary point found.

                         Standard orientation:
 ---------------------------------------------------------------------
 Center     Atomic      Atomic             Coordinates (Angstroms)
 Number     Number       Type             X           Y           Z
 ---------------------------------------------------------------------
      1          1           0       -3.829142   -1.403089    0.264164
      2          6           0       -2.825145   -1.604349   -0.114962
      3          1           0       -2.888108   -1.896278   -1.168774
      4          1           0       -2.415530   -2.447132    0.454479
      5          6           0       -1.961164   -0.368971    0.125826
      6          8           0       -2.118381    0.345284    1.101628
      7          7           0       -1.019931   -0.144484   -0.858156
      8          1           0       -0.910707   -0.886709   -1.535508
      9          6           0        0.104359    0.802874   -0.784544
     10          1           0        0.492187    0.856646   -1.810856
     11          6           0       -0.308949    2.208509   -0.348214
     12          1           0       -0.611151    2.205349    0.697508
     13          1           0        0.538591    2.891113   -0.475889
     14          1           0       -1.141219    2.563515   -0.963530
     15          6           0        1.220363    0.245924    0.134714
     16          8           0        1.239656    0.437331    1.340716
     17          7           0        2.157978   -0.512608   -0.518663
     18          1           0        2.125141   -0.564739   -1.526439
     19          6           0        3.275842   -1.135379    0.168682
     20          1           0        3.142618   -0.947703    1.235007
     21          1           0        3.295814   -2.217190   -0.007995
     22          1           0        4.233127   -0.706711   -0.152202
 ---------------------------------------------------------------------

 The electronic state is 1-A.
 Alpha  occ. eigenvalues --  -19.11006 -19.10403 -14.36678 -14.36200 -10.28439
 Alpha  occ. eigenvalues --  -10.28358 -10.24082 -10.22054 -10.18953 -10.16890
 Alpha  occ. eigenvalues --   -1.03214  -1.02255  -0.92582  -0.91681  -0.77711
 Alpha  occ. eigenvalues --   -0.72455  -0.71043  -0.63996  -0.59127  -0.56801
 Alpha  occ. eigenvalues --   -0.52923  -0.50005  -0.46831  -0.46143  -0.44784
 Alpha  occ. eigenvalues --   -0.43996  -0.41763  -0.40645  -0.39896  -0.39210
 Alpha  occ. eigenvalues --   -0.38696  -0.37050  -0.36167  -0.35659  -0.34917
 Alpha  occ. eigenvalues --   -0.27500  -0.25489  -0.24156  -0.22979
 Alpha virt. eigenvalues --    0.01640   0.03921   0.04911   0.08949   0.11785
 Alpha virt. eigenvalues --    0.12838   0.13772   0.15280   0.15610   0.16201
 Alpha virt. eigenvalues --    0.17179   0.17459   0.18527   0.19440   0.19799

 Mulliken atomic charges:
              1
     1  H    0.188791
     2  C   -0.544495
     3  H    0.144709
     4  H    0.182211
     5  C    0.599047
     6  O   -0.484129
     7  N   -0.594153
     8  H    0.314679
     9  C   -0.044719
    10  H    0.125091
    11  C   -0.445512
    12  H    0.221836
    13  H    0.139423
    14  H    0.145626
    15  C    0.623468
    16  O   -0.499021
    17  N   -0.599540
    18  H    0.316602
    19  C   -0.311458
    20  H    0.208945
    21  H    0.155125
    22  H    0.157477
 Sum of Mulliken atomic charges =   0.00000

 Dipole moment (field-independent basis, Debye):
    X=              2.0524    Y=             -2.8187    Z=             -5.5757  Tot=              6.5761
 Quadrupole moment (field-independent basis, Debye-Ang):
   XX=            -55.7980   YY=            -56.4982   ZZ=            -61.9978
   XY=              1.2597   XZ=             -0.1836   YZ=             -0.8742

 Normal termination of Gaussian 09 at Sat Feb 11 03:04:14 2017.
