 Gaussian 09, Revision A.02,
 Gaussian 09:  EM64L-G09RevA.02 11-Jun-2009

 ----------------------------------------------------------------------
 # b3lyp/6-31G* Opt=(ModRedundant, maxcycles=1000, calcfc) geom=nocrowd
 ----------------------------------------------------------------------

 ------------------
 Phi Psi fixed scan
 ------------------
 Symbolic Z-matrix:
 Charge =  0 Multiplicity = 1

 SCF Done:  E(RB3LYP) =  -495.831599342     A.U. after   15 cycles

  Exact polarizability:   0.000   0.000   0.000   0.000   0.000   0.000
 Approx polarizability: 111.482  14.048 113.817   3.803  -1.102 110.339

 SCF Done:  E(RB3LYP) =  -495.837722127     A.U. after   12 cycles
 SCF Done:  E(RB3LYP) =  -495.843803237     A.U. after   13 cycles
 SCF Done:  E(RB3LYP) =  -495.844782338     A.U. after   13 cycles
 SCF Done:  E(RB3LYP) =  -495.836831155     A.U. after   14 cycles
 SCF Done:  E(RB3LYP) =  -495.844985490     A.U. after   13 cycles
 SCF Done:  E(RB3LYP) =  -495.845563553     A.U. after   13 cycles
 SCF Done:  E(RB3LYP) =  -495.845584074     A.U. after   12 cycles
 SCF Done:  E(RB3LYP) =  -495.845778434     A.U. after   12 cycles
 SCF Done:  E(RB3LYP) =  -495.845873371     A.U. after   12 cycles
 SCF Done:  E(RB3LYP) =  -495.845917036     A.U. after    9 cycles
 SCF Done:  E(RB3LYP) =  -495.845918649     A.U. after    9 cycles
 SCF Done:  E(RB3LYP) =  -495.845919572     A.U. after    8 cycles
 SCF Done:  E(RB3LYP) =  -495.845920181     A.U. after    9 cycles
 SCF Done:  E(RB3LYP) =  -495.845920670     A.U. after    7 cycles
 SCF Done:  E(RB3LYP) =  -495.845921715     A.U. after    9 cycles
 SCF Done:  E(RB3LYP) =  -495.845922843     A.U. after    9 cycles
 SCF Done:  E(RB3LYP) =  -495.845923972     A.U. after   10 cycles
 SCF Done:  E(RB3LYP) =  -495.845924321     A.U. after    8 cycles
 SCF Done:  E(RB3LYP) =  -495.845924345     A.U. after    7 cycles
 Optimization completed.
    -- Stationary point found.

                         Standard orientation:
 ---------------------------------------------------------------------
 Center     Atomic      Atomic             Coordinates (Angstroms)
 Number     Number       Type             X           Y           Z
 ---------------------------------------------------------------------
      1          1           0       -3.419481   -1.810212    0.126716
      2          6           0       -3.198438   -0.838226   -0.319329
      3          1           0       -3.942261   -0.123595    0.052348
      4          1           0       -3.300181   -0.904918   -1.407496
      5          6           0       -1.814083   -0.394345    0.132302
      6          8           0       -1.374099   -0.661897    1.246531
      7          7           0       -1.088419    0.305005   -0.795284
      8          1           0       -1.544949    0.502768   -1.674740
      9          6           0        0.101249    1.118231   -0.496016
     10          1           0        0.323617    1.648861   -1.428375
     11          6           0       -0.145878    2.163618    0.602682
     12          1           0       -0.417717    1.675084    1.541101
     13          1           0        0.768659    2.741205    0.753084
     14          1           0       -0.954541    2.840721    0.307478
     15          6           0        1.404608    0.337630   -0.206013
     16          8           0        2.440934    0.971123   -0.037083
     17          7           0        1.349956   -1.021705   -0.249704
     18          1           0        0.444327   -1.439906   -0.087457
     19          6           0        2.519460   -1.812448    0.102929
     20          1           0        3.407569   -1.292105   -0.257927
     21          1           0        2.616078   -1.946690    1.188491
     22          1           0        2.451930   -2.794885   -0.373218
 ---------------------------------------------------------------------

 The electronic state is 1-A.
 Alpha  occ. eigenvalues --  -19.12124 -19.10322 -14.37238 -14.35105 -10.29926
 Alpha  occ. eigenvalues --  -10.27793 -10.24067 -10.20955 -10.20273 -10.17536
 Alpha  occ. eigenvalues --   -1.04152  -1.02289  -0.93237  -0.90870  -0.78085
 Alpha  occ. eigenvalues --   -0.73388  -0.70234  -0.64611  -0.59122  -0.56753
 Alpha  occ. eigenvalues --   -0.53109  -0.50446  -0.47002  -0.45816  -0.44446
 Alpha  occ. eigenvalues --   -0.44115  -0.42174  -0.41419  -0.40747  -0.40001
 Alpha  occ. eigenvalues --   -0.38406  -0.38178  -0.36448  -0.35958  -0.34291
 Alpha  occ. eigenvalues --   -0.27732  -0.26020  -0.24839  -0.23332
 Alpha virt. eigenvalues --    0.01221   0.02999   0.05812   0.10684   0.11435
 Alpha virt. eigenvalues --    0.13442   0.14020   0.14755   0.15720   0.16246
 Alpha virt. eigenvalues --    0.17625   0.18017   0.18147   0.18373   0.19591

 Mulliken atomic charges:
              1
     1  H    0.189198
     2  C   -0.540154
     3  H    0.187340
     4  H    0.151524
     5  C    0.579821
     6  O   -0.513135
     7  N   -0.602443
     8  H    0.328233
     9  C   -0.041131
    10  H    0.166229
    11  C   -0.454576
    12  H    0.186664
    13  H    0.182754
    14  H    0.134935
    15  C    0.612853
    16  O   -0.526720
    17  N   -0.587797
    18  H    0.346698
    19  C   -0.306797
    20  H    0.192210
    21  H    0.164506
    22  H    0.149787
 Sum of Mulliken atomic charges =   0.00000

 Dipole moment (field-independent basis, Debye):
    X=             -3.4621    Y=             -1.0108    Z=             -3.0126  Tot=              4.6993
 Quadrupole moment (field-independent basis, Debye-Ang):
   XX=            -60.4996   YY=            -56.8969   ZZ=            -60.6005
   XY=             -6.7820   XZ=              5.2119   YZ=             -0.1390

 Normal termination of Gaussian 09 at Sat Feb 11 02:43:19 2017.
