 Gaussian 09, Revision A.02,
 Gaussian 09:  EM64L-G09RevA.02 11-Jun-2009

 ----------------------------------------------------------------------
 # b3lyp/6-31G* Opt=(ModRedundant, maxcycles=1000, calcfc) geom=nocrowd
 ----------------------------------------------------------------------

 ------------------
 Phi Psi fixed scan
 ------------------
 Symbolic Z-matrix:
 Charge =  0 Multiplicity = 1

 SCF Done:  E(RB3LYP) =  -495.826661822     A.U. after   15 cycles

  Exact polarizability:   0.000   0.000   0.000   0.000   0.000   0.000
 Approx polarizability: 105.596   6.147 104.242  10.437  15.703 124.610

 SCF Done:  E(RB3LYP) =  -495.833194053     A.U. after   13 cycles
 SCF Done:  E(RB3LYP) =  -495.841021886     A.U. after   15 cycles
 SCF Done:  E(RB3LYP) =  -495.843385304     A.U. after   15 cycles
 SCF Done:  E(RB3LYP) =  -495.843800474     A.U. after   13 cycles
 SCF Done:  E(RB3LYP) =  -495.843557736     A.U. after   14 cycles
 SCF Done:  E(RB3LYP) =  -495.844001440     A.U. after   13 cycles
 SCF Done:  E(RB3LYP) =  -495.844249572     A.U. after   12 cycles
 SCF Done:  E(RB3LYP) =  -495.844471544     A.U. after   13 cycles
 SCF Done:  E(RB3LYP) =  -495.844538667     A.U. after   11 cycles
 SCF Done:  E(RB3LYP) =  -495.844585580     A.U. after   10 cycles
 SCF Done:  E(RB3LYP) =  -495.844589610     A.U. after   10 cycles
 SCF Done:  E(RB3LYP) =  -495.844584832     A.U. after   10 cycles
 SCF Done:  E(RB3LYP) =  -495.844585780     A.U. after    7 cycles
 SCF Done:  E(RB3LYP) =  -495.844597601     A.U. after   11 cycles
 SCF Done:  E(RB3LYP) =  -495.844598039     A.U. after   10 cycles
 SCF Done:  E(RB3LYP) =  -495.844598161     A.U. after    7 cycles
 SCF Done:  E(RB3LYP) =  -495.844598186     A.U. after    6 cycles
 SCF Done:  E(RB3LYP) =  -495.844598199     A.U. after    7 cycles
 SCF Done:  E(RB3LYP) =  -495.844598204     A.U. after    6 cycles
 Optimization completed.
    -- Stationary point found.

                         Standard orientation:
 ---------------------------------------------------------------------
 Center     Atomic      Atomic             Coordinates (Angstroms)
 Number     Number       Type             X           Y           Z
 ---------------------------------------------------------------------
      1          1           0        2.863245   -2.177047   -0.147145
      2          6           0        3.084872   -1.116138    0.011342
      3          1           0        3.871985   -0.837002   -0.694389
      4          1           0        3.453993   -0.980563    1.032476
      5          6           0        1.838688   -0.300679   -0.303226
      6          8           0        1.405736   -0.199545   -1.446897
      7          7           0        1.249725    0.304948    0.775229
      8          1           0        1.509810   -0.023970    1.694159
      9          6           0       -0.033450    1.013278    0.689795
     10          1           0       -0.179937    1.447424    1.685003
     11          6           0       -0.022520    2.164564   -0.320630
     12          1           0        0.166864    1.815853   -1.336937
     13          1           0       -0.976097    2.702007   -0.282918
     14          1           0        0.774267    2.868048   -0.058493
     15          6           0       -1.170650   -0.034147    0.592868
     16          8           0       -1.342254   -0.820694    1.518088
     17          7           0       -1.956116    0.008675   -0.517925
     18          1           0       -1.598768    0.514058   -1.316490
     19          6           0       -2.981185   -0.995016   -0.757037
     20          1           0       -3.366269   -1.323255    0.209246
     21          1           0       -3.793401   -0.559913   -1.346751
     22          1           0       -2.583341   -1.870258   -1.287087
 ---------------------------------------------------------------------

 The electronic state is 1-A.
 Alpha  occ. eigenvalues --  -19.11025 -19.10615 -14.36176 -14.35880 -10.28850
 Alpha  occ. eigenvalues --  -10.28025 -10.23781 -10.21447 -10.19160 -10.18379
 Alpha  occ. eigenvalues --   -1.03253  -1.02350  -0.92153  -0.91628  -0.77981
 Alpha  occ. eigenvalues --   -0.72883  -0.70204  -0.65155  -0.58783  -0.56561
 Alpha  occ. eigenvalues --   -0.52899  -0.50642  -0.46269  -0.45682  -0.44205
 Alpha  occ. eigenvalues --   -0.43999  -0.42037  -0.41515  -0.40013  -0.39374
 Alpha  occ. eigenvalues --   -0.38869  -0.38353  -0.37277  -0.35214  -0.35104
 Alpha  occ. eigenvalues --   -0.26743  -0.25367  -0.24785  -0.23506
 Alpha virt. eigenvalues --    0.02006   0.03127   0.07219   0.09018   0.11544
 Alpha virt. eigenvalues --    0.12690   0.14490   0.15372   0.15648   0.16007
 Alpha virt. eigenvalues --    0.17286   0.17982   0.18657   0.18848   0.19877

 Mulliken atomic charges:
              1
     1  H    0.187085
     2  C   -0.536214
     3  H    0.186055
     4  H    0.147897
     5  C    0.599171
     6  O   -0.520626
     7  N   -0.581213
     8  H    0.335077
     9  C   -0.044271
    10  H    0.163901
    11  C   -0.482540
    12  H    0.191895
    13  H    0.151438
    14  H    0.158676
    15  C    0.605505
    16  O   -0.528665
    17  N   -0.582494
    18  H    0.342386
    19  C   -0.307742
    20  H    0.195752
    21  H    0.153298
    22  H    0.165629
 Sum of Mulliken atomic charges =   0.00000

 Dipole moment (field-independent basis, Debye):
    X=              0.4586    Y=              1.2810    Z=              0.1361  Tot=              1.3674
 Quadrupole moment (field-independent basis, Debye-Ang):
   XX=            -53.0480   YY=            -58.3316   ZZ=            -63.4949
   XY=             -2.6538   XZ=             10.2718   YZ=              2.3118

 Normal termination of Gaussian 09 at Sat Feb 11 02:57:36 2017.
