 Gaussian 09, Revision A.02,
 Gaussian 09:  EM64L-G09RevA.02 11-Jun-2009

 ----------------------------------------------------------------------
 # b3lyp/6-31G* Opt=(ModRedundant, maxcycles=1000, calcfc) geom=nocrowd
 ----------------------------------------------------------------------

 ------------------
 Phi Psi fixed scan
 ------------------
 Symbolic Z-matrix:
 Charge =  0 Multiplicity = 1

 SCF Done:  E(RB3LYP) =  -495.826077741     A.U. after   15 cycles

  Exact polarizability:   0.000   0.000   0.000   0.000   0.000   0.000
 Approx polarizability: 108.781  10.097 108.536  10.782  12.844 117.048

 SCF Done:  E(RB3LYP) =  -495.832617956     A.U. after   13 cycles
 SCF Done:  E(RB3LYP) =  -495.840406707     A.U. after   13 cycles
 SCF Done:  E(RB3LYP) =  -495.842632551     A.U. after   15 cycles
 SCF Done:  E(RB3LYP) =  -495.843084288     A.U. after   15 cycles
 SCF Done:  E(RB3LYP) =  -495.814087876     A.U. after   15 cycles
 SCF Done:  E(RB3LYP) =  -495.843089346     A.U. after   14 cycles
 SCF Done:  E(RB3LYP) =  -495.843421394     A.U. after   12 cycles
 SCF Done:  E(RB3LYP) =  -495.778308089     A.U. after   15 cycles
 SCF Done:  E(RB3LYP) =  -495.843611146     A.U. after   15 cycles
 SCF Done:  E(RB3LYP) =  -495.844154226     A.U. after   12 cycles
 SCF Done:  E(RB3LYP) =  -495.844166436     A.U. after   11 cycles
 SCF Done:  E(RB3LYP) =  -495.844173383     A.U. after   10 cycles
 SCF Done:  E(RB3LYP) =  -495.844176267     A.U. after   10 cycles
 SCF Done:  E(RB3LYP) =  -495.844179888     A.U. after   11 cycles
 SCF Done:  E(RB3LYP) =  -495.844181531     A.U. after   10 cycles
 SCF Done:  E(RB3LYP) =  -495.844183292     A.U. after   10 cycles
 SCF Done:  E(RB3LYP) =  -495.844184324     A.U. after   10 cycles
 SCF Done:  E(RB3LYP) =  -495.844184638     A.U. after    8 cycles
 SCF Done:  E(RB3LYP) =  -495.844184682     A.U. after    7 cycles
 Optimization completed.
    -- Stationary point found.

                         Standard orientation:
 ---------------------------------------------------------------------
 Center     Atomic      Atomic             Coordinates (Angstroms)
 Number     Number       Type             X           Y           Z
 ---------------------------------------------------------------------
      1          1           0       -2.802492   -2.124127    0.344115
      2          6           0       -3.103931   -1.084396    0.170221
      3          1           0       -3.851850   -0.823224    0.922067
      4          1           0       -3.548861   -1.014007   -0.827276
      5          6           0       -1.893067   -0.179624    0.351736
      6          8           0       -1.520759    0.190975    1.458742
      7          7           0       -1.264532    0.180885   -0.815718
      8          1           0       -1.451977   -0.402910   -1.619846
      9          6           0        0.045760    0.838746   -0.837591
     10          1           0        0.222155    1.075420   -1.894378
     11          6           0        0.071775    2.159965   -0.062774
     12          1           0       -0.063034    2.004301    1.008591
     13          1           0        1.012875    2.688318   -0.253880
     14          1           0       -0.745249    2.799800   -0.410222
     15          6           0        1.136179   -0.214563   -0.514626
     16          8           0        1.121311   -1.290144   -1.104542
     17          7           0        2.101409    0.143533    0.374913
     18          1           0        1.943985    0.964941    0.939979
     19          6           0        3.142594   -0.782251    0.790381
     20          1           0        3.239630   -1.543635    0.015572
     21          1           0        4.093597   -0.252589    0.905608
     22          1           0        2.892797   -1.277136    1.737612
 ---------------------------------------------------------------------

 The electronic state is 1-A.
 Alpha  occ. eigenvalues --  -19.10875 -19.10735 -14.36223 -14.35671 -10.28543
 Alpha  occ. eigenvalues --  -10.28235 -10.23833 -10.21660 -10.18816 -10.18458
 Alpha  occ. eigenvalues --   -1.03223  -1.02337  -0.91926  -0.91855  -0.77939
 Alpha  occ. eigenvalues --   -0.72697  -0.70358  -0.65111  -0.58850  -0.56274
 Alpha  occ. eigenvalues --   -0.52912  -0.50564  -0.46110  -0.45794  -0.44332
 Alpha  occ. eigenvalues --   -0.43874  -0.42251  -0.41449  -0.39770  -0.39330
 Alpha  occ. eigenvalues --   -0.38699  -0.38602  -0.37390  -0.35095  -0.35036
 Alpha  occ. eigenvalues --   -0.26453  -0.25429  -0.24659  -0.23713
 Alpha virt. eigenvalues --    0.02273   0.03102   0.07465   0.08952   0.11595
 Alpha virt. eigenvalues --    0.12717   0.14915   0.15210   0.15503   0.15839
 Alpha virt. eigenvalues --    0.17020   0.17928   0.18428   0.19056   0.19406

 Mulliken atomic charges:
              1
     1  H    0.186803
     2  C   -0.542073
     3  H    0.185003
     4  H    0.152480
     5  C    0.596119
     6  O   -0.512363
     7  N   -0.572969
     8  H    0.334436
     9  C   -0.048614
    10  H    0.164726
    11  C   -0.487395
    12  H    0.196918
    13  H    0.143094
    14  H    0.163857
    15  C    0.615950
    16  O   -0.533072
    17  N   -0.591254
    18  H    0.338348
    19  C   -0.310259
    20  H    0.200311
    21  H    0.154291
    22  H    0.165666
 Sum of Mulliken atomic charges =   0.00000

 Dipole moment (field-independent basis, Debye):
    X=              0.5638    Y=              1.4554    Z=             -0.8264  Tot=              1.7661
 Quadrupole moment (field-independent basis, Debye-Ang):
   XX=            -51.6266   YY=            -59.9731   ZZ=            -62.2648
   XY=              5.3722   XZ=              8.6415   YZ=             -2.8077

 Normal termination of Gaussian 09 at Sat Feb 11 02:57:22 2017.
