 Gaussian 09, Revision A.02,
 Gaussian 09:  EM64L-G09RevA.02 11-Jun-2009

 ----------------------------------------------------------------------
 # b3lyp/6-31G* Opt=(ModRedundant, maxcycles=1000, calcfc) geom=nocrowd
 ----------------------------------------------------------------------

 ------------------
 Phi Psi fixed scan
 ------------------
 Symbolic Z-matrix:
 Charge =  0 Multiplicity = 1

 SCF Done:  E(RB3LYP) =  -495.834044098     A.U. after   15 cycles

  Exact polarizability:   0.000   0.000   0.000   0.000   0.000   0.000
 Approx polarizability: 114.374  11.412 112.468  -5.397 -18.302 109.820

 SCF Done:  E(RB3LYP) =  -495.840031972     A.U. after   12 cycles
 SCF Done:  E(RB3LYP) =  -495.847193506     A.U. after   12 cycles
 SCF Done:  E(RB3LYP) =  -495.849000398     A.U. after   12 cycles
 SCF Done:  E(RB3LYP) =  -495.849730005     A.U. after   11 cycles
 SCF Done:  E(RB3LYP) =  -495.806017326     A.U. after   15 cycles
 SCF Done:  E(RB3LYP) =  -495.850291423     A.U. after   14 cycles
 SCF Done:  E(RB3LYP) =  -495.850283718     A.U. after   11 cycles
 SCF Done:  E(RB3LYP) =  -495.850455810     A.U. after   11 cycles
 SCF Done:  E(RB3LYP) =  -495.850621229     A.U. after   11 cycles
 SCF Done:  E(RB3LYP) =  -495.850667433     A.U. after   11 cycles
 SCF Done:  E(RB3LYP) =  -495.850670886     A.U. after   10 cycles
 SCF Done:  E(RB3LYP) =  -495.850672115     A.U. after    9 cycles
 SCF Done:  E(RB3LYP) =  -495.850672814     A.U. after    7 cycles
 SCF Done:  E(RB3LYP) =  -495.850673756     A.U. after    9 cycles
 SCF Done:  E(RB3LYP) =  -495.850674444     A.U. after   10 cycles
 SCF Done:  E(RB3LYP) =  -495.850674549     A.U. after    7 cycles
 SCF Done:  E(RB3LYP) =  -495.850674621     A.U. after    7 cycles
 SCF Done:  E(RB3LYP) =  -495.850674644     A.U. after    7 cycles
 Optimization completed.
    -- Stationary point found.

                         Standard orientation:
 ---------------------------------------------------------------------
 Center     Atomic      Atomic             Coordinates (Angstroms)
 Number     Number       Type             X           Y           Z
 ---------------------------------------------------------------------
      1          1           0       -3.253997   -1.792276   -0.691253
      2          6           0       -3.190015   -0.706341   -0.579034
      3          1           0       -3.965876   -0.405878    0.132917
      4          1           0       -3.395767   -0.232343   -1.543646
      5          6           0       -1.831676   -0.354677    0.007069
      6          8           0       -1.421688   -0.907411    1.031638
      7          7           0       -1.119564    0.586087   -0.668769
      8          1           0       -1.523660    0.940473   -1.523371
      9          6           0        0.133445    1.232364   -0.235330
     10          1           0        0.312817    2.027541   -0.962042
     11          6           0        0.019695    1.865138    1.161841
     12          1           0       -0.185297    1.108272    1.921477
     13          1           0        0.960289    2.369652    1.403815
     14          1           0       -0.787359    2.605456    1.178234
     15          6           0        1.406576    0.356505   -0.339931
     16          8           0        2.436133    0.849708   -0.792289
     17          7           0        1.296701   -0.917182    0.113006
     18          1           0        0.433786   -1.174597    0.589150
     19          6           0        2.436317   -1.815642    0.152498
     20          1           0        3.200820   -1.425174   -0.520795
     21          1           0        2.863808   -1.887891    1.161449
     22          1           0        2.138867   -2.818033   -0.173070
 ---------------------------------------------------------------------

 The electronic state is 1-A.
 Alpha  occ. eigenvalues --  -19.12522 -19.09927 -14.37738 -14.34255 -10.30369
 Alpha  occ. eigenvalues --  -10.27390 -10.23999 -10.20616 -10.20408 -10.18331
 Alpha  occ. eigenvalues --   -1.04414  -1.01757  -0.93479  -0.90386  -0.78450
 Alpha  occ. eigenvalues --   -0.73697  -0.69880  -0.65161  -0.59285  -0.56332
 Alpha  occ. eigenvalues --   -0.53366  -0.50801  -0.46953  -0.45828  -0.44162
 Alpha  occ. eigenvalues --   -0.43721  -0.42405  -0.41501  -0.41254  -0.40555
 Alpha  occ. eigenvalues --   -0.38575  -0.37741  -0.36861  -0.35958  -0.34658
 Alpha  occ. eigenvalues --   -0.27924  -0.26426  -0.24076  -0.23083
 Alpha virt. eigenvalues --    0.00849   0.03847   0.05392   0.11273   0.11898
 Alpha virt. eigenvalues --    0.12970   0.14101   0.16370   0.16549   0.16872
 Alpha virt. eigenvalues --    0.17052   0.17778   0.18027   0.18514   0.20152

 Mulliken atomic charges:
              1
     1  H    0.190234
     2  C   -0.531844
     3  H    0.191121
     4  H    0.148174
     5  C    0.604627
     6  O   -0.533251
     7  N   -0.591212
     8  H    0.333730
     9  C   -0.053458
    10  H    0.165549
    11  C   -0.456558
    12  H    0.186043
    13  H    0.170034
    14  H    0.147651
    15  C    0.592482
    16  O   -0.526974
    17  N   -0.604666
    18  H    0.373303
    19  C   -0.307492
    20  H    0.193527
    21  H    0.156785
    22  H    0.152195
 Sum of Mulliken atomic charges =   0.00000

 Dipole moment (field-independent basis, Debye):
    X=             -3.5820    Y=              0.0053    Z=             -1.1858  Tot=              3.7731
 Quadrupole moment (field-independent basis, Debye-Ang):
   XX=            -61.3058   YY=            -57.2172   ZZ=            -60.4803
   XY=             -7.2632   XZ=              8.8969   YZ=              1.5445

 Normal termination of Gaussian 09 at Sat Feb 11 03:10:14 2017.
