 Gaussian 09, Revision A.02,
 Gaussian 09:  EM64L-G09RevA.02 11-Jun-2009

 ----------------------------------------------------------------------
 # b3lyp/6-31G* Opt=(ModRedundant, maxcycles=1000, calcfc) geom=nocrowd
 ----------------------------------------------------------------------

 ------------------
 Phi Psi fixed scan
 ------------------
 Symbolic Z-matrix:
 Charge =  0 Multiplicity = 1

 SCF Done:  E(RB3LYP) =  -495.825460395     A.U. after   15 cycles

  Exact polarizability:   0.000   0.000   0.000   0.000   0.000   0.000
 Approx polarizability: 102.591  -2.537 106.147  -5.063  21.546 125.871

 SCF Done:  E(RB3LYP) =  -495.830470114     A.U. after   12 cycles
 SCF Done:  E(RB3LYP) =  -495.835977392     A.U. after   12 cycles
 SCF Done:  E(RB3LYP) =  -495.836976960     A.U. after   13 cycles
 SCF Done:  E(RB3LYP) =  -495.835625364     A.U. after   14 cycles
 SCF Done:  E(RB3LYP) =  -495.837280048     A.U. after   13 cycles
 SCF Done:  E(RB3LYP) =  -495.837506801     A.U. after   12 cycles
 SCF Done:  E(RB3LYP) =  -495.783623105     A.U. after   15 cycles
 SCF Done:  E(RB3LYP) =  -495.837637475     A.U. after   15 cycles
 SCF Done:  E(RB3LYP) =  -495.837840945     A.U. after   12 cycles
 SCF Done:  E(RB3LYP) =  -495.838052603     A.U. after   11 cycles
 SCF Done:  E(RB3LYP) =  -495.838054288     A.U. after   10 cycles
 SCF Done:  E(RB3LYP) =  -495.838055083     A.U. after    9 cycles
 SCF Done:  E(RB3LYP) =  -495.838056377     A.U. after    9 cycles
 SCF Done:  E(RB3LYP) =  -495.838058825     A.U. after   10 cycles
 SCF Done:  E(RB3LYP) =  -495.838066144     A.U. after   10 cycles
 SCF Done:  E(RB3LYP) =  -495.838073785     A.U. after   11 cycles
 SCF Done:  E(RB3LYP) =  -495.838074950     A.U. after   10 cycles
 SCF Done:  E(RB3LYP) =  -495.838075117     A.U. after    8 cycles
 SCF Done:  E(RB3LYP) =  -495.838075135     A.U. after    7 cycles
 Optimization completed.
    -- Stationary point found.

                         Standard orientation:
 ---------------------------------------------------------------------
 Center     Atomic      Atomic             Coordinates (Angstroms)
 Number     Number       Type             X           Y           Z
 ---------------------------------------------------------------------
      1          1           0       -3.314952   -1.942607    0.714197
      2          6           0       -3.095309   -1.270045   -0.117810
      3          1           0       -3.955425   -0.601297   -0.240498
      4          1           0       -2.978171   -1.855988   -1.035538
      5          6           0       -1.863968   -0.443917    0.239080
      6          8           0       -1.649603   -0.053792    1.374983
      7          7           0       -1.017278   -0.188883   -0.818980
      8          1           0       -1.378255   -0.414503   -1.736080
      9          6           0        0.062904    0.816111   -0.789681
     10          1           0        0.410560    0.881185   -1.827683
     11          6           0       -0.389399    2.199736   -0.321597
     12          1           0       -0.689527    2.162861    0.725396
     13          1           0        0.434573    2.913146   -0.419878
     14          1           0       -1.229020    2.547274   -0.933557
     15          6           0        1.264544    0.310979    0.051941
     16          8           0        1.571503    0.797273    1.127622
     17          7           0        2.022335   -0.642148   -0.582088
     18          1           0        1.591331   -1.129835   -1.356381
     19          6           0        3.108044   -1.320281    0.108911
     20          1           0        3.536263   -0.618487    0.825688
     21          1           0        2.765743   -2.208291    0.657372
     22          1           0        3.875373   -1.619594   -0.611468
 ---------------------------------------------------------------------

 The electronic state is 1-A.
 Alpha  occ. eigenvalues --  -19.10977 -19.10772 -14.36560 -14.35785 -10.28848
 Alpha  occ. eigenvalues --  -10.27958 -10.23936 -10.21450 -10.19455 -10.17007
 Alpha  occ. eigenvalues --   -1.03247  -1.02476  -0.92637  -0.91229  -0.77673
 Alpha  occ. eigenvalues --   -0.72734  -0.70606  -0.63923  -0.59057  -0.56754
 Alpha  occ. eigenvalues --   -0.52323  -0.49865  -0.46639  -0.45566  -0.44879
 Alpha  occ. eigenvalues --   -0.44037  -0.41585  -0.41194  -0.40057  -0.39574
 Alpha  occ. eigenvalues --   -0.38635  -0.36848  -0.36489  -0.35449  -0.35022
 Alpha  occ. eigenvalues --   -0.27326  -0.24834  -0.24439  -0.23677
 Alpha virt. eigenvalues --    0.01994   0.02506   0.05864   0.09257   0.11696
 Alpha virt. eigenvalues --    0.12619   0.13667   0.15049   0.15712   0.16701
 Alpha virt. eigenvalues --    0.17013   0.17654   0.18232   0.19049   0.19789

 Mulliken atomic charges:
              1
     1  H    0.190830
     2  C   -0.543008
     3  H    0.182413
     4  H    0.145041
     5  C    0.592957
     6  O   -0.482752
     7  N   -0.605399
     8  H    0.318456
     9  C   -0.064189
    10  H    0.142125
    11  C   -0.442945
    12  H    0.212968
    13  H    0.153399
    14  H    0.128163
    15  C    0.633172
    16  O   -0.495862
    17  N   -0.585683
    18  H    0.317223
    19  C   -0.307747
    20  H    0.200490
    21  H    0.159620
    22  H    0.150729
 Sum of Mulliken atomic charges =   0.00000

 Dipole moment (field-independent basis, Debye):
    X=             -0.6723    Y=             -2.4417    Z=             -5.7724  Tot=              6.3036
 Quadrupole moment (field-independent basis, Debye-Ang):
   XX=            -54.3709   YY=            -57.1210   ZZ=            -62.0377
   XY=             -2.5815   XZ=              1.8684   YZ=             -0.8599

 Normal termination of Gaussian 09 at Sat Feb 11 03:08:45 2017.
