 Gaussian 09, Revision A.02,
 Gaussian 09:  EM64L-G09RevA.02 11-Jun-2009

 ----------------------------------------------------------------------
 # b3lyp/6-31G* Opt=(ModRedundant, maxcycles=1000, calcfc) geom=nocrowd
 ----------------------------------------------------------------------

 ------------------
 Phi Psi fixed scan
 ------------------
 Symbolic Z-matrix:
 Charge =  0 Multiplicity = 1

 SCF Done:  E(RB3LYP) =  -495.828651611     A.U. after   15 cycles

  Exact polarizability:   0.000   0.000   0.000   0.000   0.000   0.000
 Approx polarizability: 116.791  14.238 105.387  -2.243  -7.141 111.401

 SCF Done:  E(RB3LYP) =  -495.833375933     A.U. after   12 cycles
 SCF Done:  E(RB3LYP) =  -495.838705594     A.U. after   12 cycles
 SCF Done:  E(RB3LYP) =  -495.840082248     A.U. after   14 cycles
 SCF Done:  E(RB3LYP) =  -495.839980174     A.U. after   12 cycles
 SCF Done:  E(RB3LYP) =  -495.840532332     A.U. after   12 cycles
 SCF Done:  E(RB3LYP) =  -495.840905834     A.U. after   12 cycles
 SCF Done:  E(RB3LYP) =  -495.840704804     A.U. after   13 cycles
 SCF Done:  E(RB3LYP) =  -495.841419402     A.U. after   13 cycles
 SCF Done:  E(RB3LYP) =  -495.831585875     A.U. after   14 cycles
 SCF Done:  E(RB3LYP) =  -495.841462278     A.U. after    8 cycles
 SCF Done:  E(RB3LYP) =  -495.841467183     A.U. after   10 cycles
 SCF Done:  E(RB3LYP) =  -495.841474298     A.U. after   10 cycles
 SCF Done:  E(RB3LYP) =  -495.841477590     A.U. after   10 cycles
 SCF Done:  E(RB3LYP) =  -495.841478613     A.U. after    8 cycles
 SCF Done:  E(RB3LYP) =  -495.841482687     A.U. after   10 cycles
 SCF Done:  E(RB3LYP) =  -495.841492467     A.U. after   11 cycles
 SCF Done:  E(RB3LYP) =  -495.841493148     A.U. after   10 cycles
 SCF Done:  E(RB3LYP) =  -495.841493276     A.U. after    7 cycles
 SCF Done:  E(RB3LYP) =  -495.841493259     A.U. after    6 cycles
 Optimization completed.
    -- Stationary point found.

                         Standard orientation:
 ---------------------------------------------------------------------
 Center     Atomic      Atomic             Coordinates (Angstroms)
 Number     Number       Type             X           Y           Z
 ---------------------------------------------------------------------
      1          1           0       -3.980480   -1.006162    0.421738
      2          6           0       -3.117469   -1.130884   -0.234366
      3          1           0       -3.434307   -1.039882   -1.279095
      4          1           0       -2.710445   -2.138140   -0.084550
      5          6           0       -2.055539   -0.109672    0.149931
      6          8           0       -2.006474    0.389440    1.263129
      7          7           0       -1.186386    0.209518   -0.877998
      8          1           0       -1.206034   -0.444124   -1.650835
      9          6           0        0.125480    0.806385   -0.663735
     10          1           0        0.484005    1.090867   -1.663130
     11          6           0        0.097457    2.083696    0.192979
     12          1           0       -0.150803    1.860170    1.229231
     13          1           0        1.069203    2.589332    0.149047
     14          1           0       -0.657771    2.770959   -0.199856
     15          6           0        1.115368   -0.264428   -0.128957
     16          8           0        0.741774   -1.363236    0.257537
     17          7           0        2.431157    0.098637   -0.199729
     18          1           0        2.656616    1.044004   -0.474921
     19          6           0        3.504715   -0.746688    0.295047
     20          1           0        3.073485   -1.723926    0.515321
     21          1           0        4.289655   -0.859404   -0.461120
     22          1           0        3.951002   -0.340860    1.211547
 ---------------------------------------------------------------------

 The electronic state is 1-A.
 Alpha  occ. eigenvalues --  -19.11363 -19.10203 -14.36548 -14.35150 -10.28513
 Alpha  occ. eigenvalues --  -10.27939 -10.23986 -10.22040 -10.18244 -10.18146
 Alpha  occ. eigenvalues --   -1.03464  -1.01925  -0.92261  -0.91587  -0.77783
 Alpha  occ. eigenvalues --   -0.72280  -0.70600  -0.64550  -0.58948  -0.56063
 Alpha  occ. eigenvalues --   -0.52807  -0.49949  -0.46569  -0.45351  -0.44702
 Alpha  occ. eigenvalues --   -0.43549  -0.42155  -0.40987  -0.40137  -0.39254
 Alpha  occ. eigenvalues --   -0.38796  -0.37609  -0.37347  -0.35189  -0.34498
 Alpha  occ. eigenvalues --   -0.26360  -0.25439  -0.24608  -0.23292
 Alpha virt. eigenvalues --    0.02419   0.03732   0.05875   0.08424   0.11756
 Alpha virt. eigenvalues --    0.13124   0.15023   0.15642   0.15814   0.16068
 Alpha virt. eigenvalues --    0.16629   0.17027   0.18652   0.19219   0.19691

 Mulliken atomic charges:
              1
     1  H    0.183020
     2  C   -0.551974
     3  H    0.151205
     4  H    0.189795
     5  C    0.603683
     6  O   -0.498968
     7  N   -0.571180
     8  H    0.322847
     9  C   -0.066515
    10  H    0.145616
    11  C   -0.443781
    12  H    0.208688
    13  H    0.121978
    14  H    0.164319
    15  C    0.607951
    16  O   -0.511601
    17  N   -0.591685
    18  H    0.325283
    19  C   -0.309880
    20  H    0.205509
    21  H    0.155264
    22  H    0.160426
 Sum of Mulliken atomic charges =   0.00000

 Dipole moment (field-independent basis, Debye):
    X=              2.8074    Y=              1.1789    Z=             -3.5568  Tot=              4.6821
 Quadrupole moment (field-independent basis, Debye-Ang):
   XX=            -50.4907   YY=            -60.1704   ZZ=            -61.0656
   XY=              6.1612   XZ=              4.6394   YZ=              0.0800

 Normal termination of Gaussian 09 at Sat Feb 11 02:50:54 2017.
