 Gaussian 09, Revision A.02,
 Gaussian 09:  EM64L-G09RevA.02 11-Jun-2009

 ----------------------------------------------------------------------
 # b3lyp/6-31G* Opt=(ModRedundant, maxcycles=1000, calcfc) geom=nocrowd
 ----------------------------------------------------------------------

 ------------------
 Phi Psi fixed scan
 ------------------
 Symbolic Z-matrix:
 Charge =  0 Multiplicity = 1

 SCF Done:  E(RB3LYP) =  -495.826678462     A.U. after   15 cycles

  Exact polarizability:   0.000   0.000   0.000   0.000   0.000   0.000
 Approx polarizability: 116.942  12.630 101.935  -6.685 -10.355 115.334

 SCF Done:  E(RB3LYP) =  -495.831689719     A.U. after   12 cycles
 SCF Done:  E(RB3LYP) =  -495.837340951     A.U. after   14 cycles
 SCF Done:  E(RB3LYP) =  -495.838776043     A.U. after   14 cycles
 SCF Done:  E(RB3LYP) =  -495.838792428     A.U. after   13 cycles
 SCF Done:  E(RB3LYP) =  -495.839597872     A.U. after   12 cycles
 SCF Done:  E(RB3LYP) =  -495.839823352     A.U. after   16 cycles
 SCF Done:  E(RB3LYP) =  -495.839804596     A.U. after   12 cycles
 SCF Done:  E(RB3LYP) =  -495.839961919     A.U. after   12 cycles
 SCF Done:  E(RB3LYP) =  -495.840141660     A.U. after   12 cycles
 SCF Done:  E(RB3LYP) =  -495.840199025     A.U. after   11 cycles
 SCF Done:  E(RB3LYP) =  -495.840208747     A.U. after   10 cycles
 SCF Done:  E(RB3LYP) =  -495.840210792     A.U. after    8 cycles
 SCF Done:  E(RB3LYP) =  -495.840211876     A.U. after    8 cycles
 SCF Done:  E(RB3LYP) =  -495.840213309     A.U. after    9 cycles
 SCF Done:  E(RB3LYP) =  -495.840215994     A.U. after    9 cycles
 SCF Done:  E(RB3LYP) =  -495.840217327     A.U. after    9 cycles
 SCF Done:  E(RB3LYP) =  -495.840217586     A.U. after    8 cycles
 Optimization completed.
    -- Stationary point found.

                         Standard orientation:
 ---------------------------------------------------------------------
 Center     Atomic      Atomic             Coordinates (Angstroms)
 Number     Number       Type             X           Y           Z
 ---------------------------------------------------------------------
      1          1           0        3.974287   -1.106481   -0.253219
      2          6           0        3.064039   -1.210899    0.339499
      3          1           0        3.312854   -1.158927    1.405318
      4          1           0        2.629146   -2.196763    0.135261
      5          6           0        2.072434   -0.136813   -0.089393
      6          8           0        2.122714    0.389369   -1.188877
      7          7           0        1.152494    0.197454    0.890795
      8          1           0        1.126637   -0.451392    1.667793
      9          6           0       -0.137941    0.822827    0.623497
     10          1           0       -0.524152    1.126950    1.606473
     11          6           0       -0.054825    2.084901   -0.251544
     12          1           0        0.257340    1.838787   -1.265150
     13          1           0       -1.032812    2.579373   -0.277299
     14          1           0        0.673499    2.782282    0.173197
     15          6           0       -1.127997   -0.215260    0.035601
     16          8           0       -0.756492   -1.189961   -0.602118
     17          7           0       -2.439575    0.028038    0.341167
     18          1           0       -2.670158    0.887507    0.819955
     19          6           0       -3.527927   -0.766590   -0.203119
     20          1           0       -3.088282   -1.666541   -0.635012
     21          1           0       -4.231182   -1.049704    0.587531
     22          1           0       -4.074084   -0.227806   -0.987872
 ---------------------------------------------------------------------

 The electronic state is 1-A.
 Alpha  occ. eigenvalues --  -19.11344 -19.10107 -14.36687 -14.35265 -10.28504
 Alpha  occ. eigenvalues --  -10.27941 -10.24019 -10.22121 -10.18187 -10.18011
 Alpha  occ. eigenvalues --   -1.03454  -1.01869  -0.92341  -0.91620  -0.77776
 Alpha  occ. eigenvalues --   -0.72268  -0.70719  -0.64364  -0.58985  -0.56176
 Alpha  occ. eigenvalues --   -0.52749  -0.49895  -0.46692  -0.45507  -0.44762
 Alpha  occ. eigenvalues --   -0.43523  -0.42000  -0.40778  -0.40260  -0.39270
 Alpha  occ. eigenvalues --   -0.38754  -0.37541  -0.37062  -0.35267  -0.34480
 Alpha  occ. eigenvalues --   -0.26720  -0.25505  -0.24343  -0.23124
 Alpha virt. eigenvalues --    0.02032   0.04103   0.05745   0.08381   0.11757
 Alpha virt. eigenvalues --    0.13258   0.14927   0.15328   0.15799   0.15949
 Alpha virt. eigenvalues --    0.16773   0.17243   0.18701   0.19152   0.19786

 Mulliken atomic charges:
              1
     1  H    0.183791
     2  C   -0.552234
     3  H    0.149823
     4  H    0.188513
     5  C    0.606379
     6  O   -0.495028
     7  N   -0.575424
     8  H    0.320390
     9  C   -0.061430
    10  H    0.134429
    11  C   -0.441147
    12  H    0.211362
    13  H    0.125731
    14  H    0.162299
    15  C    0.602004
    16  O   -0.504700
    17  N   -0.590381
    18  H    0.324417
    19  C   -0.310357
    20  H    0.205740
    21  H    0.155577
    22  H    0.160248
 Sum of Mulliken atomic charges =   0.00000

 Dipole moment (field-independent basis, Debye):
    X=             -3.0847    Y=              0.8203    Z=              4.1486  Tot=              5.2344
 Quadrupole moment (field-independent basis, Debye-Ang):
   XX=            -51.2849   YY=            -59.5114   ZZ=            -61.1093
   XY=             -5.9394   XZ=              3.6735   YZ=             -0.6745

 Normal termination of Gaussian 09 at Sat Feb 11 02:43:45 2017.
