 Gaussian 09, Revision A.02,
 Gaussian 09:  EM64L-G09RevA.02 11-Jun-2009

 ----------------------------------------------------------------------
 # b3lyp/6-31G* Opt=(ModRedundant, maxcycles=1000, calcfc) geom=nocrowd
 ----------------------------------------------------------------------

 ------------------
 Phi Psi fixed scan
 ------------------
 Symbolic Z-matrix:
 Charge =  0 Multiplicity = 1

 SCF Done:  E(RB3LYP) =  -495.829397067     A.U. after   15 cycles

  Exact polarizability:   0.000   0.000   0.000   0.000   0.000   0.000
 Approx polarizability: 116.061  14.569 107.516   2.061  -2.545 109.936

 SCF Done:  E(RB3LYP) =  -495.834092717     A.U. after   12 cycles
 SCF Done:  E(RB3LYP) =  -495.839456278     A.U. after   13 cycles
 SCF Done:  E(RB3LYP) =  -495.840872816     A.U. after   14 cycles
 SCF Done:  E(RB3LYP) =  -495.840959721     A.U. after   12 cycles
 SCF Done:  E(RB3LYP) =  -495.841856043     A.U. after   12 cycles
 SCF Done:  E(RB3LYP) =  -495.842226385     A.U. after   13 cycles
 SCF Done:  E(RB3LYP) =  -495.841623733     A.U. after   14 cycles
 SCF Done:  E(RB3LYP) =  -495.842324544     A.U. after   12 cycles
 SCF Done:  E(RB3LYP) =  -495.842429141     A.U. after   12 cycles
 SCF Done:  E(RB3LYP) =  -495.842428664     A.U. after   11 cycles
 SCF Done:  E(RB3LYP) =  -495.842439667     A.U. after   11 cycles
 SCF Done:  E(RB3LYP) =  -495.842440013     A.U. after    9 cycles
 SCF Done:  E(RB3LYP) =  -495.842440165     A.U. after    9 cycles
 SCF Done:  E(RB3LYP) =  -495.842440284     A.U. after    7 cycles
 SCF Done:  E(RB3LYP) =  -495.842440640     A.U. after    8 cycles
 SCF Done:  E(RB3LYP) =  -495.842442372     A.U. after    7 cycles
 SCF Done:  E(RB3LYP) =  -495.842448562     A.U. after   10 cycles
 SCF Done:  E(RB3LYP) =  -495.842451401     A.U. after   10 cycles
 SCF Done:  E(RB3LYP) =  -495.842451581     A.U. after    7 cycles
 Optimization completed.
    -- Stationary point found.

                         Standard orientation:
 ---------------------------------------------------------------------
 Center     Atomic      Atomic             Coordinates (Angstroms)
 Number     Number       Type             X           Y           Z
 ---------------------------------------------------------------------
      1          1           0       -3.950969   -0.933667    0.631442
      2          6           0       -3.145933   -1.080733   -0.090488
      3          1           0       -3.537812   -0.967518   -1.106981
      4          1           0       -2.764584   -2.103206    0.018959
      5          6           0       -2.023334   -0.100144    0.217544
      6          8           0       -1.868993    0.386316    1.327988
      7          7           0       -1.219432    0.196364   -0.865915
      8          1           0       -1.278961   -0.474695   -1.621315
      9          6           0        0.104975    0.788579   -0.721876
     10          1           0        0.423655    1.035018   -1.744805
     11          6           0        0.110950    2.098511    0.082737
     12          1           0       -0.047164    1.917852    1.144875
     13          1           0        1.054500    2.637761   -0.066205
     14          1           0       -0.693462    2.747163   -0.276300
     15          6           0        1.107251   -0.290579   -0.224260
     16          8           0        0.774000   -1.461675   -0.096524
     17          7           0        2.389304    0.145206   -0.049841
     18          1           0        2.567851    1.138407   -0.073139
     19          6           0        3.452964   -0.730439    0.413962
     20          1           0        3.099606   -1.757265    0.313998
     21          1           0        4.354027   -0.594513   -0.193842
     22          1           0        3.702918   -0.544627    1.466182
 ---------------------------------------------------------------------

 The electronic state is 1-A.
 Alpha  occ. eigenvalues --  -19.11274 -19.10392 -14.36414 -14.35095 -10.28487
 Alpha  occ. eigenvalues --  -10.28007 -10.23954 -10.21933 -10.18461 -10.18212
 Alpha  occ. eigenvalues --   -1.03431  -1.02051  -0.92158  -0.91567  -0.77797
 Alpha  occ. eigenvalues --   -0.72335  -0.70502  -0.64761  -0.58887  -0.55960
 Alpha  occ. eigenvalues --   -0.52863  -0.50067  -0.46436  -0.45337  -0.44577
 Alpha  occ. eigenvalues --   -0.43605  -0.42308  -0.41186  -0.39962  -0.39225
 Alpha  occ. eigenvalues --   -0.38900  -0.37734  -0.37528  -0.35099  -0.34595
 Alpha  occ. eigenvalues --   -0.26124  -0.25439  -0.24811  -0.23491
 Alpha virt. eigenvalues --    0.02668   0.03331   0.06170   0.08712   0.11734
 Alpha virt. eigenvalues --    0.13063   0.14576   0.15680   0.15974   0.16342
 Alpha virt. eigenvalues --    0.16612   0.17004   0.18431   0.19189   0.19394

 Mulliken atomic charges:
              1
     1  H    0.182873
     2  C   -0.550769
     3  H    0.153483
     4  H    0.189546
     5  C    0.599824
     6  O   -0.502642
     7  N   -0.567197
     8  H    0.326386
     9  C   -0.067176
    10  H    0.156911
    11  C   -0.454561
    12  H    0.206099
    13  H    0.122279
    14  H    0.167012
    15  C    0.615113
    16  O   -0.521404
    17  N   -0.593827
    18  H    0.327302
    19  C   -0.309323
    20  H    0.203801
    21  H    0.154440
    22  H    0.161832
 Sum of Mulliken atomic charges =   0.00000

 Dipole moment (field-independent basis, Debye):
    X=              2.3638    Y=              1.4110    Z=             -2.8455  Tot=              3.9592
 Quadrupole moment (field-independent basis, Debye-Ang):
   XX=            -50.0557   YY=            -60.5244   ZZ=            -61.2286
   XY=              6.2875   XZ=              5.6143   YZ=             -0.6071

 Normal termination of Gaussian 09 at Sat Feb 11 02:59:33 2017.
