 Gaussian 09, Revision A.02,
 Gaussian 09:  EM64L-G09RevA.02 11-Jun-2009

 ----------------------------------------------------------------------
 # b3lyp/6-31G* Opt=(ModRedundant, maxcycles=1000, calcfc) geom=nocrowd
 ----------------------------------------------------------------------

 ------------------
 Phi Psi fixed scan
 ------------------
 Symbolic Z-matrix:
 Charge =  0 Multiplicity = 1

 SCF Done:  E(RB3LYP) =  -495.823689520     A.U. after   15 cycles

  Exact polarizability:   0.000   0.000   0.000   0.000   0.000   0.000
 Approx polarizability: 113.893   4.002  91.531 -13.487  -3.396 130.233

 SCF Done:  E(RB3LYP) =  -495.829863628     A.U. after   13 cycles
 SCF Done:  E(RB3LYP) =  -495.835705089     A.U. after   14 cycles
 SCF Done:  E(RB3LYP) =  -495.836418814     A.U. after   14 cycles
 SCF Done:  E(RB3LYP) =  -495.818042386     A.U. after   15 cycles
 SCF Done:  E(RB3LYP) =  -495.836557685     A.U. after   15 cycles
 SCF Done:  E(RB3LYP) =  -495.837197593     A.U. after   13 cycles
 SCF Done:  E(RB3LYP) =  -495.837257220     A.U. after   12 cycles
 SCF Done:  E(RB3LYP) =  -495.837375711     A.U. after   13 cycles
 SCF Done:  E(RB3LYP) =  -495.837421825     A.U. after   11 cycles
 SCF Done:  E(RB3LYP) =  -495.837440118     A.U. after   11 cycles
 SCF Done:  E(RB3LYP) =  -495.837467527     A.U. after   12 cycles
 SCF Done:  E(RB3LYP) =  -495.837492547     A.U. after   11 cycles
 SCF Done:  E(RB3LYP) =  -495.837501464     A.U. after   11 cycles
 SCF Done:  E(RB3LYP) =  -495.837504186     A.U. after   10 cycles
 SCF Done:  E(RB3LYP) =  -495.837504494     A.U. after    9 cycles
 SCF Done:  E(RB3LYP) =  -495.837504594     A.U. after    6 cycles
 Optimization completed.
    -- Stationary point found.

                         Standard orientation:
 ---------------------------------------------------------------------
 Center     Atomic      Atomic             Coordinates (Angstroms)
 Number     Number       Type             X           Y           Z
 ---------------------------------------------------------------------
      1          1           0       -3.882570   -1.357893    0.148766
      2          6           0       -2.911423   -1.457906   -0.338761
      3          1           0       -3.054872   -1.562538   -1.420044
      4          1           0       -2.433222   -2.371918    0.034212
      5          6           0       -2.052403   -0.253629    0.034172
      6          8           0       -2.249950    0.389011    1.050636
      7          7           0       -1.077820    0.045054   -0.904513
      8          1           0       -0.956504   -0.664933   -1.616314
      9          6           0        0.136790    0.827997   -0.654320
     10          1           0        0.543578    1.048962   -1.650690
     11          6           0       -0.124880    2.160298    0.058918
     12          1           0       -0.470151    1.986788    1.076783
     13          1           0        0.800892    2.747246    0.079290
     14          1           0       -0.888435    2.730379   -0.478880
     15          6           0        1.169192   -0.011057    0.135157
     16          8           0        0.916164   -0.500276    1.226213
     17          7           0        2.364503   -0.192943   -0.509651
     18          1           0        2.527113    0.300281   -1.375771
     19          6           0        3.482420   -0.886032    0.108035
     20          1           0        3.099954   -1.387295    0.998263
     21          1           0        3.902223   -1.630883   -0.576851
     22          1           0        4.277339   -0.190876    0.406392
 ---------------------------------------------------------------------

 The electronic state is 1-A.
 Alpha  occ. eigenvalues --  -19.11068 -19.10215 -14.36854 -14.35666 -10.28434
 Alpha  occ. eigenvalues --  -10.28140 -10.24070 -10.22162 -10.18519 -10.17433
 Alpha  occ. eigenvalues --   -1.03303  -1.01997  -0.92408  -0.91719  -0.77730
 Alpha  occ. eigenvalues --   -0.72337  -0.70944  -0.64113  -0.59064  -0.56418
 Alpha  occ. eigenvalues --   -0.52740  -0.49894  -0.46903  -0.45863  -0.44882
 Alpha  occ. eigenvalues --   -0.43641  -0.41752  -0.40501  -0.40206  -0.39240
 Alpha  occ. eigenvalues --   -0.38827  -0.37302  -0.36324  -0.35477  -0.34713
 Alpha  occ. eigenvalues --   -0.27288  -0.25598  -0.24099  -0.22889
 Alpha virt. eigenvalues --    0.01529   0.04445   0.05350   0.08628   0.11731
 Alpha virt. eigenvalues --    0.13459   0.14250   0.15259   0.15687   0.16251
 Alpha virt. eigenvalues --    0.16599   0.17514   0.18209   0.19436   0.19860

 Mulliken atomic charges:
              1
     1  H    0.186590
     2  C   -0.549913
     3  H    0.149345
     4  H    0.183106
     5  C    0.603502
     6  O   -0.485544
     7  N   -0.583534
     8  H    0.317141
     9  C   -0.045358
    10  H    0.120765
    11  C   -0.445805
    12  H    0.218139
    13  H    0.133547
    14  H    0.156053
    15  C    0.605856
    16  O   -0.503236
    17  N   -0.594720
    18  H    0.322927
    19  C   -0.311633
    20  H    0.207351
    21  H    0.155529
    22  H    0.159892
 Sum of Mulliken atomic charges =   0.00000

 Dipole moment (field-independent basis, Debye):
    X=              3.0938    Y=             -0.7334    Z=             -5.2099  Tot=              6.1035
 Quadrupole moment (field-independent basis, Debye-Ang):
   XX=            -53.4845   YY=            -57.3818   ZZ=            -61.9221
   XY=              4.4759   XZ=              1.0171   YZ=              0.7313

 Normal termination of Gaussian 09 at Sat Feb 11 02:50:55 2017.
