 Gaussian 09, Revision A.02,
 Gaussian 09:  EM64L-G09RevA.02 11-Jun-2009

 ----------------------------------------------------------------------
 # b3lyp/6-31G* Opt=(ModRedundant, maxcycles=1000, calcfc) geom=nocrowd
 ----------------------------------------------------------------------

 ------------------
 Phi Psi fixed scan
 ------------------
 Symbolic Z-matrix:
 Charge =  0 Multiplicity = 1

 SCF Done:  E(RB3LYP) =  -495.836434992     A.U. after   15 cycles

  Exact polarizability:   0.000   0.000   0.000   0.000   0.000   0.000
 Approx polarizability: 111.300   8.291 113.294   5.302  21.978 111.936

 SCF Done:  E(RB3LYP) =  -495.841830218     A.U. after   16 cycles
 SCF Done:  E(RB3LYP) =  -495.848218692     A.U. after   12 cycles
 SCF Done:  E(RB3LYP) =  -495.850039837     A.U. after   14 cycles
 SCF Done:  E(RB3LYP) =  -495.850140757     A.U. after   12 cycles
 SCF Done:  E(RB3LYP) =  -495.850565136     A.U. after   14 cycles
 SCF Done:  E(RB3LYP) =  -495.850786187     A.U. after   11 cycles
 SCF Done:  E(RB3LYP) =  -495.791214543     A.U. after   16 cycles
 SCF Done:  E(RB3LYP) =  -495.850883354     A.U. after   15 cycles
 SCF Done:  E(RB3LYP) =  -495.850938874     A.U. after   11 cycles
 SCF Done:  E(RB3LYP) =  -495.850959231     A.U. after   11 cycles
 SCF Done:  E(RB3LYP) =  -495.850965520     A.U. after   10 cycles
 SCF Done:  E(RB3LYP) =  -495.850968461     A.U. after   10 cycles
 SCF Done:  E(RB3LYP) =  -495.850970215     A.U. after    9 cycles
 SCF Done:  E(RB3LYP) =  -495.850971726     A.U. after   10 cycles
 SCF Done:  E(RB3LYP) =  -495.850972041     A.U. after    8 cycles
 SCF Done:  E(RB3LYP) =  -495.850972205     A.U. after    7 cycles
 SCF Done:  E(RB3LYP) =  -495.850972330     A.U. after    7 cycles
 Optimization completed.
    -- Stationary point found.

                         Standard orientation:
 ---------------------------------------------------------------------
 Center     Atomic      Atomic             Coordinates (Angstroms)
 Number     Number       Type             X           Y           Z
 ---------------------------------------------------------------------
      1          1           0       -3.171571   -1.814131   -0.821491
      2          6           0       -3.153604   -0.735833   -0.639479
      3          1           0       -3.948955   -0.513276    0.079361
      4          1           0       -3.367637   -0.209987   -1.574976
      5          6           0       -1.817462   -0.367830   -0.013761
      6          8           0       -1.407441   -0.954079    0.991940
      7          7           0       -1.131289    0.632468   -0.628562
      8          1           0       -1.522656    1.006660   -1.480515
      9          6           0        0.121504    1.256412   -0.161266
     10          1           0        0.289980    2.097834   -0.836427
     11          6           0        0.018425    1.792986    1.274530
     12          1           0       -0.174873    0.991160    1.988650
     13          1           0        0.956879    2.289188    1.542629
     14          1           0       -0.792680    2.525804    1.345149
     15          6           0        1.378939    0.374430   -0.370618
     16          8           0        2.319432    0.801783   -1.034344
     17          7           0        1.361804   -0.827028    0.260152
     18          1           0        0.505340   -1.092982    0.743129
     19          6           0        2.462334   -1.768027    0.164553
     20          1           0        3.278528   -1.276350   -0.366679
     21          1           0        2.806873   -2.065204    1.161837
     22          1           0        2.170417   -2.671249   -0.386308
 ---------------------------------------------------------------------

 The electronic state is 1-A.
 Alpha  occ. eigenvalues --  -19.12512 -19.09959 -14.37745 -14.34243 -10.30346
 Alpha  occ. eigenvalues --  -10.27389 -10.23932 -10.20592 -10.20362 -10.18358
 Alpha  occ. eigenvalues --   -1.04376  -1.01740  -0.93444  -0.90394  -0.78447
 Alpha  occ. eigenvalues --   -0.73683  -0.69824  -0.65221  -0.59305  -0.56294
 Alpha  occ. eigenvalues --   -0.53273  -0.50824  -0.46982  -0.45786  -0.44118
 Alpha  occ. eigenvalues --   -0.43816  -0.42186  -0.41627  -0.41252  -0.40506
 Alpha  occ. eigenvalues --   -0.38536  -0.37552  -0.36922  -0.35856  -0.35118
 Alpha  occ. eigenvalues --   -0.27951  -0.26377  -0.23812  -0.23237
 Alpha virt. eigenvalues --    0.00936   0.03760   0.05570   0.11255   0.11874
 Alpha virt. eigenvalues --    0.12924   0.14133   0.16145   0.16461   0.16793
 Alpha virt. eigenvalues --    0.17352   0.17698   0.18092   0.18516   0.19976

 Mulliken atomic charges:
              1
     1  H    0.190211
     2  C   -0.531423
     3  H    0.191067
     4  H    0.148167
     5  C    0.606296
     6  O   -0.532989
     7  N   -0.593774
     8  H    0.334602
     9  C   -0.054434
    10  H    0.165602
    11  C   -0.455352
    12  H    0.185998
    13  H    0.165223
    14  H    0.148195
    15  C    0.591819
    16  O   -0.525845
    17  N   -0.601240
    18  H    0.373456
    19  C   -0.310271
    20  H    0.196127
    21  H    0.155062
    22  H    0.153504
 Sum of Mulliken atomic charges =   0.00000

 Dipole moment (field-independent basis, Debye):
    X=             -3.3856    Y=              0.1366    Z=             -0.7613  Tot=              3.4728
 Quadrupole moment (field-independent basis, Debye-Ang):
   XX=            -60.3811   YY=            -57.2263   ZZ=            -61.2620
   XY=             -6.8758   XZ=              9.7449   YZ=              2.0123

 Normal termination of Gaussian 09 at Sat Feb 11 02:54:06 2017.
