 Gaussian 09, Revision A.02,
 Gaussian 09:  EM64L-G09RevA.02 11-Jun-2009

 ----------------------------------------------------------------------
 # b3lyp/6-31G* Opt=(ModRedundant, maxcycles=1000, calcfc) geom=nocrowd
 ----------------------------------------------------------------------

 ------------------
 Phi Psi fixed scan
 ------------------
 Symbolic Z-matrix:
 Charge =  0 Multiplicity = 1

 SCF Done:  E(RB3LYP) =  -495.830114554     A.U. after   15 cycles

  Exact polarizability:   0.000   0.000   0.000   0.000   0.000   0.000
 Approx polarizability: 104.214  -0.952 113.073   0.544 -24.212 118.112

 SCF Done:  E(RB3LYP) =  -495.835996260     A.U. after   12 cycles
 SCF Done:  E(RB3LYP) =  -495.844028677     A.U. after   13 cycles
 SCF Done:  E(RB3LYP) =  -495.847127120     A.U. after   13 cycles
 SCF Done:  E(RB3LYP) =  -495.846806125     A.U. after   16 cycles
 SCF Done:  E(RB3LYP) =  -495.847423522     A.U. after   16 cycles
 SCF Done:  E(RB3LYP) =  -495.847614904     A.U. after   12 cycles
 SCF Done:  E(RB3LYP) =  -495.847781699     A.U. after   12 cycles
 SCF Done:  E(RB3LYP) =  -495.845473081     A.U. after   16 cycles
 SCF Done:  E(RB3LYP) =  -495.847809593     A.U. after   16 cycles
 SCF Done:  E(RB3LYP) =  -495.848361550     A.U. after   11 cycles
 SCF Done:  E(RB3LYP) =  -495.848403679     A.U. after   11 cycles
 SCF Done:  E(RB3LYP) =  -495.848399994     A.U. after   11 cycles
 SCF Done:  E(RB3LYP) =  -495.848467604     A.U. after   12 cycles
 SCF Done:  E(RB3LYP) =  -495.848475047     A.U. after   10 cycles
 SCF Done:  E(RB3LYP) =  -495.848476406     A.U. after   10 cycles
 SCF Done:  E(RB3LYP) =  -495.848477292     A.U. after   10 cycles
 SCF Done:  E(RB3LYP) =  -495.848477545     A.U. after    7 cycles
 SCF Done:  E(RB3LYP) =  -495.848477614     A.U. after    7 cycles
 SCF Done:  E(RB3LYP) =  -495.848477610     A.U. after    6 cycles
 Optimization completed.
    -- Stationary point found.

                         Standard orientation:
 ---------------------------------------------------------------------
 Center     Atomic      Atomic             Coordinates (Angstroms)
 Number     Number       Type             X           Y           Z
 ---------------------------------------------------------------------
      1          1           0       -3.891359   -0.757596    0.130598
      2          6           0       -3.084723   -0.910784   -0.593676
      3          1           0       -3.350221   -0.406912   -1.528056
      4          1           0       -3.009424   -1.986756   -0.775239
      5          6           0       -1.780719   -0.425750    0.019591
      6          8           0       -1.311701   -0.958781    1.026749
      7          7           0       -1.184245    0.627213   -0.606609
      8          1           0       -1.570163    0.951152   -1.480893
      9          6           0        0.057526    1.265921   -0.137203
     10          1           0        0.203322    2.118489   -0.805665
     11          6           0       -0.032831    1.791370    1.299740
     12          1           0       -0.228274    0.997493    2.020844
     13          1           0        0.904975    2.289331    1.566531
     14          1           0       -0.844141    2.524025    1.371521
     15          6           0        1.271640    0.359821   -0.462610
     16          8           0        1.895516    0.511310   -1.507175
     17          7           0        1.606633   -0.541515    0.503676
     18          1           0        0.851853   -0.800047    1.133369
     19          6           0        2.654207   -1.521681    0.262352
     20          1           0        3.472136   -1.033610   -0.270130
     21          1           0        3.018903   -1.903533    1.219875
     22          1           0        2.304553   -2.365522   -0.347977
 ---------------------------------------------------------------------

 The electronic state is 1-A.
 Alpha  occ. eigenvalues --  -19.12030 -19.10458 -14.37319 -14.34633 -10.29864
 Alpha  occ. eigenvalues --  -10.27546 -10.23783 -10.20803 -10.20009 -10.18269
 Alpha  occ. eigenvalues --   -1.03959  -1.02150  -0.93012  -0.90740  -0.78235
 Alpha  occ. eigenvalues --   -0.73434  -0.69729  -0.65193  -0.59224  -0.56160
 Alpha  occ. eigenvalues --   -0.52906  -0.50731  -0.46843  -0.45624  -0.44248
 Alpha  occ. eigenvalues --   -0.43960  -0.41902  -0.41477  -0.40850  -0.40066
 Alpha  occ. eigenvalues --   -0.38711  -0.37678  -0.36738  -0.35728  -0.35390
 Alpha  occ. eigenvalues --   -0.27592  -0.26064  -0.24640  -0.23145
 Alpha virt. eigenvalues --    0.01382   0.02965   0.06234   0.10908   0.11443
 Alpha virt. eigenvalues --    0.12856   0.14072   0.15534   0.16557   0.16582
 Alpha virt. eigenvalues --    0.16939   0.17909   0.18134   0.18915   0.20261

 Mulliken atomic charges:
              1
     1  H    0.188996
     2  C   -0.532276
     3  H    0.147698
     4  H    0.189433
     5  C    0.604829
     6  O   -0.530314
     7  N   -0.593191
     8  H    0.335112
     9  C   -0.050847
    10  H    0.164095
    11  C   -0.454226
    12  H    0.182966
    13  H    0.159296
    14  H    0.148008
    15  C    0.589364
    16  O   -0.520665
    17  N   -0.583074
    18  H    0.360868
    19  C   -0.304197
    20  H    0.187715
    21  H    0.152477
    22  H    0.157931
 Sum of Mulliken atomic charges =   0.00000

 Dipole moment (field-independent basis, Debye):
    X=             -2.5791    Y=              0.4855    Z=              0.0229  Tot=              2.6245
 Quadrupole moment (field-independent basis, Debye-Ang):
   XX=            -56.7799   YY=            -56.8838   ZZ=            -63.5684
   XY=             -4.7944   XZ=             10.3121   YZ=              1.6208

 Normal termination of Gaussian 09 at Sat Feb 11 02:59:31 2017.
