 Gaussian 09, Revision A.02,
 Gaussian 09:  EM64L-G09RevA.02 11-Jun-2009

 ----------------------------------------------------------------------
 # b3lyp/6-31G* Opt=(ModRedundant, maxcycles=1000, calcfc) geom=nocrowd
 ----------------------------------------------------------------------

 ------------------
 Phi Psi fixed scan
 ------------------
 Symbolic Z-matrix:
 Charge =  0 Multiplicity = 1

 SCF Done:  E(RB3LYP) =  -495.826964950     A.U. after   15 cycles

  Exact polarizability:   0.000   0.000   0.000   0.000   0.000   0.000
 Approx polarizability: 100.913   0.873 111.364  -0.695  21.254 122.180

 SCF Done:  E(RB3LYP) =  -495.832059369     A.U. after   13 cycles
 SCF Done:  E(RB3LYP) =  -495.837856904     A.U. after   13 cycles
 SCF Done:  E(RB3LYP) =  -495.839453072     A.U. after   14 cycles
 SCF Done:  E(RB3LYP) =  -495.837097651     A.U. after   14 cycles
 SCF Done:  E(RB3LYP) =  -495.839752510     A.U. after   14 cycles
 SCF Done:  E(RB3LYP) =  -495.840172771     A.U. after   12 cycles
 SCF Done:  E(RB3LYP) =  -495.840360057     A.U. after   13 cycles
 SCF Done:  E(RB3LYP) =  -495.840847872     A.U. after   13 cycles
 SCF Done:  E(RB3LYP) =  -495.840838906     A.U. after   13 cycles
 SCF Done:  E(RB3LYP) =  -495.840976591     A.U. after    9 cycles
 SCF Done:  E(RB3LYP) =  -495.840977951     A.U. after    8 cycles
 SCF Done:  E(RB3LYP) =  -495.840982632     A.U. after    9 cycles
 SCF Done:  E(RB3LYP) =  -495.840990443     A.U. after   10 cycles
 SCF Done:  E(RB3LYP) =  -495.841025721     A.U. after   11 cycles
 SCF Done:  E(RB3LYP) =  -495.841055819     A.U. after   11 cycles
 SCF Done:  E(RB3LYP) =  -495.841060905     A.U. after   10 cycles
 SCF Done:  E(RB3LYP) =  -495.841062689     A.U. after    9 cycles
 SCF Done:  E(RB3LYP) =  -495.841063018     A.U. after    8 cycles
 SCF Done:  E(RB3LYP) =  -495.841063042     A.U. after    6 cycles
 Optimization completed.
    -- Stationary point found.

                         Standard orientation:
 ---------------------------------------------------------------------
 Center     Atomic      Atomic             Coordinates (Angstroms)
 Number     Number       Type             X           Y           Z
 ---------------------------------------------------------------------
      1          1           0       -3.312178   -1.909353    0.721217
      2          6           0       -3.086793   -1.215494   -0.091164
      3          1           0       -3.918445   -0.504365   -0.164194
      4          1           0       -3.021810   -1.768023   -1.034423
      5          6           0       -1.807952   -0.462067    0.252861
      6          8           0       -1.500030   -0.183555    1.400416
      7          7           0       -1.014226   -0.140250   -0.830888
      8          1           0       -1.458186   -0.237841   -1.735484
      9          6           0        0.047178    0.884354   -0.762799
     10          1           0        0.374865    1.014123   -1.801525
     11          6           0       -0.417920    2.231229   -0.209299
     12          1           0       -0.723657    2.130382    0.832296
     13          1           0        0.401660    2.953162   -0.256428
     14          1           0       -1.257332    2.610682   -0.802814
     15          6           0        1.282588    0.350720    0.006293
     16          8           0        1.783371    0.953311    0.942134
     17          7           0        1.849324   -0.760392   -0.564067
     18          1           0        1.245707   -1.310401   -1.161898
     19          6           0        2.953320   -1.451699    0.083466
     20          1           0        3.561562   -0.706136    0.597272
     21          1           0        2.611181   -2.187097    0.824218
     22          1           0        3.561703   -1.960944   -0.670100
 ---------------------------------------------------------------------

 The electronic state is 1-A.
 Alpha  occ. eigenvalues --  -19.11588 -19.10687 -14.36815 -14.35397 -10.29261
 Alpha  occ. eigenvalues --  -10.27845 -10.23863 -10.21236 -10.19793 -10.17054
 Alpha  occ. eigenvalues --   -1.03659  -1.02468  -0.92905  -0.90989  -0.77739
 Alpha  occ. eigenvalues --   -0.72966  -0.70504  -0.63920  -0.59066  -0.56491
 Alpha  occ. eigenvalues --   -0.52304  -0.50013  -0.46834  -0.45564  -0.45018
 Alpha  occ. eigenvalues --   -0.43935  -0.41552  -0.41499  -0.40171  -0.39779
 Alpha  occ. eigenvalues --   -0.38490  -0.36962  -0.36637  -0.35393  -0.35176
 Alpha  occ. eigenvalues --   -0.27604  -0.25024  -0.24678  -0.23784
 Alpha virt. eigenvalues --    0.01790   0.02152   0.06338   0.09831   0.11509
 Alpha virt. eigenvalues --    0.12879   0.13578   0.14705   0.15839   0.16358
 Alpha virt. eigenvalues --    0.17034   0.17802   0.18069   0.18733   0.19741

 Mulliken atomic charges:
              1
     1  H    0.191784
     2  C   -0.545336
     3  H    0.182960
     4  H    0.149510
     5  C    0.589900
     6  O   -0.482213
     7  N   -0.605957
     8  H    0.320057
     9  C   -0.068931
    10  H    0.152213
    11  C   -0.441244
    12  H    0.204220
    13  H    0.162152
    14  H    0.125174
    15  C    0.631190
    16  O   -0.504294
    17  N   -0.583980
    18  H    0.321929
    19  C   -0.306908
    20  H    0.197499
    21  H    0.160728
    22  H    0.149547
 Sum of Mulliken atomic charges =   0.00000

 Dipole moment (field-independent basis, Debye):
    X=             -1.6839    Y=             -2.3498    Z=             -5.3122  Tot=              6.0479
 Quadrupole moment (field-independent basis, Debye-Ang):
   XX=            -55.3564   YY=            -57.0988   ZZ=            -62.0897
   XY=             -3.5892   XZ=              2.0488   YZ=             -1.1643

 Normal termination of Gaussian 09 at Sat Feb 11 03:18:56 2017.
