 Gaussian 09, Revision A.02,
 Gaussian 09:  EM64L-G09RevA.02 11-Jun-2009

 -------------------------------------------
 # HF/6-31G* Opt=(ModRedundant) geom=nocrowd
 -------------------------------------------

 ------------------
 Phi Psi fixed scan
 ------------------
 Symbolic Z-matrix:
 Charge =  0 Multiplicity = 1

 SCF Done:  E(RHF) =  -492.841567245     A.U. after   15 cycles
 SCF Done:  E(RHF) =  -492.850744860     A.U. after   13 cycles
 SCF Done:  E(RHF) =  -492.853114530     A.U. after   13 cycles
 SCF Done:  E(RHF) =  -492.853889355     A.U. after   12 cycles
 SCF Done:  E(RHF) =  -492.854053053     A.U. after   12 cycles
 SCF Done:  E(RHF) =  -492.854305740     A.U. after   12 cycles
 SCF Done:  E(RHF) =  -492.854387918     A.U. after   11 cycles
 SCF Done:  E(RHF) =  -492.854395511     A.U. after   11 cycles
 SCF Done:  E(RHF) =  -492.854400870     A.U. after    9 cycles
 SCF Done:  E(RHF) =  -492.854404107     A.U. after   10 cycles
 SCF Done:  E(RHF) =  -492.854810445     A.U. after   12 cycles
 SCF Done:  E(RHF) =  -492.854896635     A.U. after   11 cycles
 SCF Done:  E(RHF) =  -492.854908392     A.U. after   10 cycles
 SCF Done:  E(RHF) =  -492.854931049     A.U. after   12 cycles
 SCF Done:  E(RHF) =  -492.854885287     A.U. after   12 cycles
 SCF Done:  E(RHF) =  -492.854957162     A.U. after   11 cycles
 SCF Done:  E(RHF) =  -492.854966680     A.U. after   11 cycles
 SCF Done:  E(RHF) =  -492.854969977     A.U. after   11 cycles
 SCF Done:  E(RHF) =  -492.854970459     A.U. after    9 cycles
 SCF Done:  E(RHF) =  -492.854970566     A.U. after    9 cycles
 Optimization completed.
    -- Stationary point found.

                         Standard orientation:
 ---------------------------------------------------------------------
 Center     Atomic      Atomic             Coordinates (Angstroms)
 Number     Number       Type             X           Y           Z
 ---------------------------------------------------------------------
      1          1           0       -4.103321   -0.775209    0.922278
      2          6           0       -3.254851   -1.195167    0.400143
      3          1           0       -3.620882   -1.682868   -0.497752
      4          1           0       -2.772354   -1.937621    1.024154
      5          6           0       -2.326857   -0.068093   -0.004632
      6          8           0       -2.755792    1.005700   -0.336038
      7          7           0       -1.012432   -0.381616    0.009892
      8          1           0       -0.744872   -1.333195    0.129655
      9          6           0        0.057594    0.497976   -0.417870
     10          1           0       -0.021639    0.687562   -1.486450
     11          6           0        0.039596    1.839686    0.321814
     12          1           0        0.241774    1.702213    1.378975
     13          1           0        0.775582    2.521933   -0.093353
     14          1           0       -0.927745    2.301010    0.210905
     15          6           0        1.350390   -0.307044   -0.211203
     16          8           0        1.340588   -1.508826   -0.307296
     17          7           0        2.472883    0.370763    0.072627
     18          1           0        2.445979    1.355395    0.178076
     19          6           0        3.738639   -0.314911    0.238056
     20          1           0        3.692554   -1.016882    1.060420
     21          1           0        4.003261   -0.857861   -0.659739
     22          1           0        4.503067    0.421808    0.444021
 ---------------------------------------------------------------------

 The electronic state is 1-A.
 Alpha  occ. eigenvalues --  -20.53394 -20.51614 -15.59777 -15.57832 -11.35637
 Alpha  occ. eigenvalues --  -11.34380 -11.28611 -11.26639 -11.22654 -11.22334
 Alpha  occ. eigenvalues --   -1.40542  -1.38376  -1.24509  -1.23396  -1.05732
 Alpha  occ. eigenvalues --   -0.99000  -0.96066  -0.89451  -0.80869  -0.77444
 Alpha  occ. eigenvalues --   -0.73147  -0.67896  -0.66311  -0.65368  -0.62931
 Alpha  occ. eigenvalues --   -0.61882  -0.59577  -0.58689  -0.56720  -0.56165
 Alpha  occ. eigenvalues --   -0.55850  -0.54863  -0.53317  -0.52601  -0.49691
 Alpha  occ. eigenvalues --   -0.42929  -0.40966  -0.40203  -0.38503
 Alpha virt. eigenvalues --    0.18670   0.20807   0.21864   0.24621   0.25856
 Alpha virt. eigenvalues --    0.28194   0.28714   0.30097   0.30692   0.32156
 Alpha virt. eigenvalues --    0.33088   0.33342   0.35163   0.36003   0.37566

 Mulliken atomic charges:
              1
     1  H    0.208388
     2  C   -0.580553
     3  H    0.201399
     4  H    0.176419
     5  C    0.758618
     6  O   -0.619345
     7  N   -0.836266
     8  H    0.422692
     9  C    0.005675
    10  H    0.213153
    11  C   -0.533392
    12  H    0.171874
    13  H    0.144902
    14  H    0.253291
    15  C    0.767435
    16  O   -0.635273
    17  N   -0.808989
    18  H    0.402802
    19  C   -0.269139
    20  H    0.193021
    21  H    0.193362
    22  H    0.169926
 Sum of Mulliken atomic charges =   0.00000

 Dipole moment (field-independent basis, Debye):
    X=              3.1113    Y=              0.5445    Z=              1.1299  Tot=              3.3545
 Quadrupole moment (field-independent basis, Debye-Ang):
   XX=            -57.0635   YY=            -63.3987   ZZ=            -60.2724
   XY=             14.2561   XZ=             -1.2708   YZ=             -0.4198

 Normal termination of Gaussian 09 at Sat Feb 11 15:14:18 2017.
