 Gaussian 09, Revision A.02,
 Gaussian 09:  EM64L-G09RevA.02 11-Jun-2009

 -------------------------------------------
 # HF/6-31G* Opt=(ModRedundant) geom=nocrowd
 -------------------------------------------

 ------------------
 Phi Psi fixed scan
 ------------------
 Symbolic Z-matrix:
 Charge =  0 Multiplicity = 1

 SCF Done:  E(RHF) =  -492.836234661     A.U. after   15 cycles
 SCF Done:  E(RHF) =  -492.846386425     A.U. after   14 cycles
 SCF Done:  E(RHF) =  -492.848639047     A.U. after   13 cycles
 SCF Done:  E(RHF) =  -492.849748949     A.U. after   13 cycles
 SCF Done:  E(RHF) =  -492.850015954     A.U. after   13 cycles
 SCF Done:  E(RHF) =  -492.850582377     A.U. after   13 cycles
 SCF Done:  E(RHF) =  -492.850886357     A.U. after   12 cycles
 SCF Done:  E(RHF) =  -492.850852303     A.U. after   12 cycles
 SCF Done:  E(RHF) =  -492.850983774     A.U. after   12 cycles
 SCF Done:  E(RHF) =  -492.850991975     A.U. after   10 cycles
 SCF Done:  E(RHF) =  -492.851324717     A.U. after   16 cycles
 SCF Done:  E(RHF) =  -492.851271842     A.U. after   13 cycles
 SCF Done:  E(RHF) =  -492.851473154     A.U. after   12 cycles
 SCF Done:  E(RHF) =  -492.851499792     A.U. after   11 cycles
 SCF Done:  E(RHF) =  -492.851512577     A.U. after   10 cycles
 SCF Done:  E(RHF) =  -492.851514944     A.U. after   11 cycles
 SCF Done:  E(RHF) =  -492.851515353     A.U. after    9 cycles
 SCF Done:  E(RHF) =  -492.851515450     A.U. after    8 cycles
 SCF Done:  E(RHF) =  -492.851515485     A.U. after    8 cycles
 SCF Done:  E(RHF) =  -492.851515494     A.U. after    6 cycles
 Optimization completed.
    -- Stationary point found.

                         Standard orientation:
 ---------------------------------------------------------------------
 Center     Atomic      Atomic             Coordinates (Angstroms)
 Number     Number       Type             X           Y           Z
 ---------------------------------------------------------------------
      1          1           0        4.062682   -0.902414   -0.954250
      2          6           0        3.139560   -1.281667   -0.540395
      3          1           0        3.377576   -1.896871    0.322301
      4          1           0        2.635527   -1.901732   -1.272373
      5          6           0        2.287236   -0.111464   -0.093188
      6          8           0        2.771497    0.949911    0.188915
      7          7           0        0.956963   -0.379574   -0.028683
      8          1           0        0.691609   -1.340078   -0.029294
      9          6           0       -0.040214    0.514319    0.546296
     10          1           0        0.112447    0.601912    1.618301
     11          6           0       -0.008201    1.911390   -0.072121
     12          1           0       -0.117688    1.864297   -1.151303
     13          1           0       -0.805525    2.521530    0.342235
     14          1           0        0.931637    2.391103    0.144608
     15          6           0       -1.366353   -0.241397    0.375666
     16          8           0       -1.478180   -1.341858    0.855413
     17          7           0       -2.343351    0.322228   -0.349672
     18          1           0       -2.206799    1.214507   -0.758155
     19          6           0       -3.602174   -0.361441   -0.565662
     20          1           0       -4.076314   -0.598898    0.377296
     21          1           0       -4.252698    0.288187   -1.135227
     22          1           0       -3.453393   -1.282992   -1.113860
 ---------------------------------------------------------------------

 The electronic state is 1-A.
 Alpha  occ. eigenvalues --  -20.52911 -20.52291 -15.59696 -15.58330 -11.35283
 Alpha  occ. eigenvalues --  -11.34788 -11.28427 -11.26547 -11.22977 -11.22254
 Alpha  occ. eigenvalues --   -1.40139  -1.38926  -1.24378  -1.23598  -1.05775
 Alpha  occ. eigenvalues --   -0.99198  -0.96049  -0.89452  -0.80441  -0.77582
 Alpha  occ. eigenvalues --   -0.73003  -0.68289  -0.66572  -0.65034  -0.62824
 Alpha  occ. eigenvalues --   -0.62058  -0.59388  -0.58786  -0.56739  -0.56236
 Alpha  occ. eigenvalues --   -0.55772  -0.54434  -0.53860  -0.52561  -0.50104
 Alpha  occ. eigenvalues --   -0.42796  -0.41347  -0.39808  -0.38955
 Alpha virt. eigenvalues --    0.18855   0.20436   0.22112   0.23929   0.25895
 Alpha virt. eigenvalues --    0.27906   0.29032   0.29630   0.30718   0.31759
 Alpha virt. eigenvalues --    0.32822   0.33315   0.34460   0.35552   0.37202

 Mulliken atomic charges:
              1
     1  H    0.212441
     2  C   -0.587697
     3  H    0.199377
     4  H    0.181359
     5  C    0.752893
     6  O   -0.607494
     7  N   -0.825255
     8  H    0.408649
     9  C    0.023397
    10  H    0.209444
    11  C   -0.539393
    12  H    0.164618
    13  H    0.157393
    14  H    0.250394
    15  C    0.741184
    16  O   -0.630332
    17  N   -0.802231
    18  H    0.405510
    19  C   -0.269661
    20  H    0.195415
    21  H    0.169626
    22  H    0.190367
 Sum of Mulliken atomic charges =   0.00000

 Dipole moment (field-independent basis, Debye):
    X=             -2.5343    Y=              0.2664    Z=             -2.1487  Tot=              3.3332
 Quadrupole moment (field-independent basis, Debye-Ang):
   XX=            -59.3949   YY=            -62.0873   ZZ=            -60.6718
   XY=            -13.5840   XZ=              2.5550   YZ=              2.0774

 Normal termination of Gaussian 09 at Fri Feb 10 06:42:18 2017.
