 Gaussian 09, Revision A.02,
 Gaussian 09:  EM64L-G09RevA.02 11-Jun-2009

 -------------------------------------------
 # HF/6-31G* Opt=(ModRedundant) geom=nocrowd
 -------------------------------------------

 ------------------
 Phi Psi fixed scan
 ------------------
 Symbolic Z-matrix:
 Charge =  0 Multiplicity = 1

 SCF Done:  E(RHF) =  -492.846629107     A.U. after   15 cycles
 SCF Done:  E(RHF) =  -492.853974140     A.U. after   13 cycles
 SCF Done:  E(RHF) =  -492.855666057     A.U. after   13 cycles
 SCF Done:  E(RHF) =  -492.855972996     A.U. after   13 cycles
 SCF Done:  E(RHF) =  -492.855999234     A.U. after   11 cycles
 SCF Done:  E(RHF) =  -492.856072927     A.U. after   11 cycles
 SCF Done:  E(RHF) =  -492.856081478     A.U. after   10 cycles
 SCF Done:  E(RHF) =  -492.856088568     A.U. after   10 cycles
 SCF Done:  E(RHF) =  -492.856092002     A.U. after    8 cycles
 SCF Done:  E(RHF) =  -492.856095693     A.U. after   10 cycles
 SCF Done:  E(RHF) =  -492.856656032     A.U. after   11 cycles
 SCF Done:  E(RHF) =  -492.856660126     A.U. after   10 cycles
 SCF Done:  E(RHF) =  -492.856660956     A.U. after    9 cycles
 SCF Done:  E(RHF) =  -492.856661836     A.U. after    9 cycles
 SCF Done:  E(RHF) =  -492.856663217     A.U. after   10 cycles
 SCF Done:  E(RHF) =  -492.856665947     A.U. after   10 cycles
 SCF Done:  E(RHF) =  -492.856667785     A.U. after   11 cycles
 SCF Done:  E(RHF) =  -492.856667991     A.U. after    9 cycles
 SCF Done:  E(RHF) =  -492.856668022     A.U. after    8 cycles
 SCF Done:  E(RHF) =  -492.856668057     A.U. after    8 cycles
 Optimization completed.
    -- Stationary point found.

                         Standard orientation:
 ---------------------------------------------------------------------
 Center     Atomic      Atomic             Coordinates (Angstroms)
 Number     Number       Type             X           Y           Z
 ---------------------------------------------------------------------
      1          1           0       -4.159637   -1.126998   -0.327325
      2          6           0       -3.298060   -1.153668    0.325788
      3          1           0       -2.859000   -2.143851    0.309884
      4          1           0       -3.636561   -0.941841    1.334634
      5          6           0       -2.334213   -0.064808   -0.097750
      6          8           0       -2.728259    1.017938   -0.446022
      7          7           0       -1.028587   -0.397473   -0.036550
      8          1           0       -0.761132   -1.335082    0.163387
      9          6           0        0.063208    0.500781   -0.339925
     10          1           0        0.022971    0.791285   -1.387146
     11          6           0        0.029273    1.765709    0.529885
     12          1           0        0.199357    1.517172    1.571966
     13          1           0        0.782012    2.483134    0.219532
     14          1           0       -0.933183    2.241793    0.433921
     15          6           0        1.349242   -0.312562   -0.133274
     16          8           0        1.321117   -1.513170   -0.037288
     17          7           0        2.498424    0.379473   -0.051995
     18          1           0        2.492543    1.360230   -0.197912
     19          6           0        3.774929   -0.296605    0.061532
     20          1           0        3.762907   -0.977731    0.900484
     21          1           0        4.007906   -0.860293   -0.834106
     22          1           0        4.543822    0.446961    0.221423
 ---------------------------------------------------------------------

 The electronic state is 1-A.
 Alpha  occ. eigenvalues --  -20.53723 -20.51381 -15.59738 -15.57702 -11.35769
 Alpha  occ. eigenvalues --  -11.34246 -11.28595 -11.26651 -11.22604 -11.22317
 Alpha  occ. eigenvalues --   -1.40766  -1.38209  -1.24543  -1.23350  -1.05678
 Alpha  occ. eigenvalues --   -0.98971  -0.96076  -0.89278  -0.80895  -0.77619
 Alpha  occ. eigenvalues --   -0.73165  -0.67764  -0.66152  -0.65343  -0.63181
 Alpha  occ. eigenvalues --   -0.61784  -0.59717  -0.58609  -0.56634  -0.56320
 Alpha  occ. eigenvalues --   -0.55952  -0.54855  -0.53224  -0.52430  -0.49528
 Alpha  occ. eigenvalues --   -0.43033  -0.40955  -0.40386  -0.38304
 Alpha virt. eigenvalues --    0.18585   0.20771   0.21601   0.24585   0.25824
 Alpha virt. eigenvalues --    0.28481   0.28834   0.29637   0.31525   0.31973
 Alpha virt. eigenvalues --    0.33005   0.33443   0.34706   0.36358   0.38032

 Mulliken atomic charges:
              1
     1  H    0.207213
     2  C   -0.575882
     3  H    0.174243
     4  H    0.200547
     5  C    0.760791
     6  O   -0.623150
     7  N   -0.840002
     8  H    0.426398
     9  C   -0.008852
    10  H    0.213414
    11  C   -0.512585
    12  H    0.173194
    13  H    0.140851
    14  H    0.244675
    15  C    0.774016
    16  O   -0.633542
    17  N   -0.803685
    18  H    0.395953
    19  C   -0.270697
    20  H    0.201099
    21  H    0.185130
    22  H    0.170872
 Sum of Mulliken atomic charges =   0.00000

 Dipole moment (field-independent basis, Debye):
    X=              3.1991    Y=              0.5243    Z=              0.6794  Tot=              3.3122
 Quadrupole moment (field-independent basis, Debye-Ang):
   XX=            -56.3940   YY=            -63.6837   ZZ=            -60.2979
   XY=             14.1274   XZ=             -3.9000   YZ=              0.1008

 Normal termination of Gaussian 09 at Fri Feb 10 06:19:47 2017.
