 Gaussian 09, Revision A.02,
 Gaussian 09:  EM64L-G09RevA.02 11-Jun-2009

 -------------------------------------------
 # HF/6-31G* Opt=(ModRedundant) geom=nocrowd
 -------------------------------------------

 ------------------
 Phi Psi fixed scan
 ------------------
 Symbolic Z-matrix:
 Charge =  0 Multiplicity = 1

 SCF Done:  E(RHF) =  -492.841666290     A.U. after   15 cycles
 SCF Done:  E(RHF) =  -492.849592157     A.U. after   14 cycles
 SCF Done:  E(RHF) =  -492.850057958     A.U. after   13 cycles
 SCF Done:  E(RHF) =  -492.850660631     A.U. after   13 cycles
 SCF Done:  E(RHF) =  -492.851190983     A.U. after   12 cycles
 SCF Done:  E(RHF) =  -492.851785015     A.U. after   14 cycles
 SCF Done:  E(RHF) =  -492.852008144     A.U. after   13 cycles
 SCF Done:  E(RHF) =  -492.852085942     A.U. after   13 cycles
 SCF Done:  E(RHF) =  -492.852122281     A.U. after   11 cycles
 SCF Done:  E(RHF) =  -492.852152399     A.U. after   11 cycles
 SCF Done:  E(RHF) =  -492.837685674     A.U. after   14 cycles
 SCF Done:  E(RHF) =  -492.852441172     A.U. after   15 cycles
 SCF Done:  E(RHF) =  -492.852474979     A.U. after   12 cycles
 SCF Done:  E(RHF) =  -492.852499629     A.U. after   12 cycles
 SCF Done:  E(RHF) =  -492.852462315     A.U. after   11 cycles
 SCF Done:  E(RHF) =  -492.852504480     A.U. after   11 cycles
 SCF Done:  E(RHF) =  -492.852505090     A.U. after   10 cycles
 SCF Done:  E(RHF) =  -492.852505207     A.U. after    9 cycles
 SCF Done:  E(RHF) =  -492.852505235     A.U. after    7 cycles
 SCF Done:  E(RHF) =  -492.852505256     A.U. after    7 cycles
 Optimization completed.
    -- Stationary point found.

                         Standard orientation:
 ---------------------------------------------------------------------
 Center     Atomic      Atomic             Coordinates (Angstroms)
 Number     Number       Type             X           Y           Z
 ---------------------------------------------------------------------
      1          1           0       -3.943001   -1.488952    0.317074
      2          6           0       -2.994341   -1.280749    0.789580
      3          1           0       -2.486263   -2.210553    1.019372
      4          1           0       -3.178880   -0.755646    1.722332
      5          6           0       -2.171548   -0.401012   -0.126737
      6          8           0       -2.658425    0.229337   -1.020699
      7          7           0       -0.826871   -0.401948    0.126355
      8          1           0       -0.569366   -0.752837    1.024604
      9          6           0        0.037477    0.663307   -0.386830
     10          1           0        0.002510    0.613673   -1.467504
     11          6           0       -0.365815    2.061031    0.073271
     12          1           0       -0.330732    2.130622    1.153026
     13          1           0        0.322528    2.796574   -0.327331
     14          1           0       -1.362225    2.293030   -0.274982
     15          6           0        1.455390    0.328254    0.091876
     16          8           0        1.978798    0.907688    1.003312
     17          7           0        2.053356   -0.681014   -0.574210
     18          1           0        1.513026   -1.197095   -1.229808
     19          6           0        3.345276   -1.197456   -0.176896
     20          1           0        4.030794   -0.378698   -0.014583
     21          1           0        3.286465   -1.780342    0.736516
     22          1           0        3.728125   -1.825483   -0.970225
 ---------------------------------------------------------------------

 The electronic state is 1-A.
 Alpha  occ. eigenvalues --  -20.53331 -20.53184 -15.59314 -15.59038 -11.35510
 Alpha  occ. eigenvalues --  -11.34970 -11.28071 -11.26254 -11.23844 -11.20852
 Alpha  occ. eigenvalues --   -1.40299  -1.39767  -1.24936  -1.23206  -1.05388
 Alpha  occ. eigenvalues --   -0.99470  -0.96604  -0.87722  -0.79382  -0.78948
 Alpha  occ. eigenvalues --   -0.73160  -0.67326  -0.66237  -0.65276  -0.62908
 Alpha  occ. eigenvalues --   -0.62381  -0.60493  -0.59137  -0.57500  -0.56474
 Alpha  occ. eigenvalues --   -0.55744  -0.53548  -0.52569  -0.51862  -0.50134
 Alpha  occ. eigenvalues --   -0.43103  -0.42158  -0.40565  -0.38914
 Alpha virt. eigenvalues --    0.18690   0.19635   0.21797   0.22681   0.26095
 Alpha virt. eigenvalues --    0.27617   0.28051   0.30214   0.30899   0.31201
 Alpha virt. eigenvalues --    0.32929   0.33142   0.33798   0.35308   0.37298

 Mulliken atomic charges:
              1
     1  H    0.217673
     2  C   -0.591751
     3  H    0.183976
     4  H    0.197582
     5  C    0.746576
     6  O   -0.591255
     7  N   -0.810411
     8  H    0.384851
     9  C   -0.033204
    10  H    0.210419
    11  C   -0.491999
    12  H    0.178719
    13  H    0.173431
    14  H    0.204652
    15  C    0.736412
    16  O   -0.602148
    17  N   -0.784530
    18  H    0.393823
    19  C   -0.273786
    20  H    0.205898
    21  H    0.173641
    22  H    0.171431
 Sum of Mulliken atomic charges =   0.00000

 Dipole moment (field-independent basis, Debye):
    X=              0.7415    Y=             -3.5845    Z=              0.3583  Tot=              3.6779
 Quadrupole moment (field-independent basis, Debye-Ang):
   XX=            -64.7992   YY=            -58.2987   ZZ=            -62.1718
   XY=             -2.1625   XZ=            -12.8145   YZ=             -1.6970

 Normal termination of Gaussian 09 at Fri Feb 10 05:50:34 2017.
