 Gaussian 09, Revision A.02,
 Gaussian 09:  EM64L-G09RevA.02 11-Jun-2009

 -------------------------------------------
 # HF/6-31G* Opt=(ModRedundant) geom=nocrowd
 -------------------------------------------

 ------------------
 Phi Psi fixed scan
 ------------------
 Symbolic Z-matrix:
 Charge =  0 Multiplicity = 1

 SCF Done:  E(RHF) =  -492.835398651     A.U. after   15 cycles
 SCF Done:  E(RHF) =  -492.844742828     A.U. after   14 cycles
 SCF Done:  E(RHF) =  -492.846494312     A.U. after   13 cycles
 SCF Done:  E(RHF) =  -492.847131463     A.U. after   13 cycles
 SCF Done:  E(RHF) =  -492.847142134     A.U. after   13 cycles
 SCF Done:  E(RHF) =  -492.847449709     A.U. after   12 cycles
 SCF Done:  E(RHF) =  -492.847669725     A.U. after   13 cycles
 SCF Done:  E(RHF) =  -492.847697897     A.U. after   14 cycles
 SCF Done:  E(RHF) =  -492.847971623     A.U. after   13 cycles
 SCF Done:  E(RHF) =  -492.848065054     A.U. after   11 cycles
 SCF Done:  E(RHF) =  -492.848239912     A.U. after   10 cycles
 SCF Done:  E(RHF) =  -492.847849976     A.U. after   12 cycles
 SCF Done:  E(RHF) =  -492.848247562     A.U. after   12 cycles
 SCF Done:  E(RHF) =  -492.847794942     A.U. after   12 cycles
 SCF Done:  E(RHF) =  -492.848262310     A.U. after   12 cycles
 SCF Done:  E(RHF) =  -492.848277833     A.U. after   11 cycles
 SCF Done:  E(RHF) =  -492.848307358     A.U. after   11 cycles
 SCF Done:  E(RHF) =  -492.848351205     A.U. after   11 cycles
 SCF Done:  E(RHF) =  -492.841941981     A.U. after   13 cycles
 SCF Done:  E(RHF) =  -492.848359884     A.U. after   13 cycles
 Optimization completed.
    -- Stationary point found.

                         Standard orientation:
 ---------------------------------------------------------------------
 Center     Atomic      Atomic             Coordinates (Angstroms)
 Number     Number       Type             X           Y           Z
 ---------------------------------------------------------------------
      1          1           0        3.951763   -1.150703   -0.923032
      2          6           0        3.033773   -1.439805   -0.432258
      3          1           0        3.285918   -1.950748    0.492326
      4          1           0        2.480742   -2.127063   -1.061916
      5          6           0        2.240517   -0.190910   -0.105821
      6          8           0        2.768692    0.876208    0.030619
      7          7           0        0.899519   -0.392685    0.027377
      8          1           0        0.616075   -1.339702    0.154318
      9          6           0       -0.028186    0.606981    0.554863
     10          1           0        0.170655    0.779727    1.605780
     11          6           0        0.037940    1.940873   -0.191005
     12          1           0        0.012363    1.800847   -1.267131
     13          1           0       -0.801284    2.564347    0.099774
     14          1           0        0.954798    2.455804    0.044400
     15          6           0       -1.406076   -0.067017    0.513397
     16          8           0       -1.769323   -0.740957    1.441127
     17          7           0       -2.130046    0.087421   -0.611488
     18          1           0       -1.730245    0.582512   -1.373068
     19          6           0       -3.400331   -0.574087   -0.816558
     20          1           0       -3.846876   -0.777228    0.143529
     21          1           0       -4.056911    0.072754   -1.384909
     22          1           0       -3.284071   -1.511921   -1.350980
 ---------------------------------------------------------------------

 The electronic state is 1-A.
 Alpha  occ. eigenvalues --  -20.52896 -20.52845 -15.59307 -15.59087 -11.35295
 Alpha  occ. eigenvalues --  -11.35083 -11.28239 -11.26289 -11.23494 -11.22177
 Alpha  occ. eigenvalues --   -1.40019  -1.39413  -1.24687  -1.23462  -1.05823
 Alpha  occ. eigenvalues --   -0.99504  -0.96055  -0.89251  -0.79803  -0.78086
 Alpha  occ. eigenvalues --   -0.73000  -0.68569  -0.66874  -0.64646  -0.62851
 Alpha  occ. eigenvalues --   -0.62304  -0.59597  -0.58937  -0.56931  -0.56251
 Alpha  occ. eigenvalues --   -0.55783  -0.54526  -0.53911  -0.52355  -0.50528
 Alpha  occ. eigenvalues --   -0.43013  -0.41443  -0.40003  -0.38972
 Alpha virt. eigenvalues --    0.19464   0.19644   0.21796   0.22894   0.25949
 Alpha virt. eigenvalues --    0.27809   0.28553   0.30197   0.30502   0.31160
 Alpha virt. eigenvalues --    0.32436   0.33561   0.34205   0.35203   0.37053

 Mulliken atomic charges:
              1
     1  H    0.215159
     2  C   -0.589696
     3  H    0.200762
     4  H    0.179793
     5  C    0.752106
     6  O   -0.598540
     7  N   -0.826582
     8  H    0.395423
     9  C    0.013311
    10  H    0.216477
    11  C   -0.517908
    12  H    0.153311
    13  H    0.170611
    14  H    0.237511
    15  C    0.719444
    16  O   -0.612537
    17  N   -0.787952
    18  H    0.396544
    19  C   -0.282412
    20  H    0.221912
    21  H    0.172494
    22  H    0.170767
 Sum of Mulliken atomic charges =   0.00000

 Dipole moment (field-independent basis, Debye):
    X=             -1.4800    Y=             -1.2715    Z=             -3.1248  Tot=              3.6840
 Quadrupole moment (field-independent basis, Debye-Ang):
   XX=            -63.5788   YY=            -59.2977   ZZ=            -62.3760
   XY=            -10.4615   XZ=              6.6884   YZ=              2.3931

 Normal termination of Gaussian 09 at Fri Feb 10 06:53:21 2017.
