 Gaussian 09, Revision A.02,
 Gaussian 09:  EM64L-G09RevA.02 11-Jun-2009

 -------------------------------------------
 # HF/6-31G* Opt=(ModRedundant) geom=nocrowd
 -------------------------------------------

 ------------------
 Phi Psi fixed scan
 ------------------
 Symbolic Z-matrix:
 Charge =  0 Multiplicity = 1

 SCF Done:  E(RHF) =  -492.841115433     A.U. after   15 cycles
 SCF Done:  E(RHF) =  -492.849164378     A.U. after   14 cycles
 SCF Done:  E(RHF) =  -492.850545004     A.U. after   14 cycles
 SCF Done:  E(RHF) =  -492.851314967     A.U. after   13 cycles
 SCF Done:  E(RHF) =  -492.852218521     A.U. after   13 cycles
 SCF Done:  E(RHF) =  -492.852487056     A.U. after   13 cycles
 SCF Done:  E(RHF) =  -492.852650180     A.U. after   12 cycles
 SCF Done:  E(RHF) =  -492.852737025     A.U. after   12 cycles
 SCF Done:  E(RHF) =  -492.852812171     A.U. after   12 cycles
 SCF Done:  E(RHF) =  -492.852852396     A.U. after   11 cycles
 SCF Done:  E(RHF) =  -492.853108643     A.U. after   11 cycles
 SCF Done:  E(RHF) =  -492.853129075     A.U. after   11 cycles
 SCF Done:  E(RHF) =  -492.853141409     A.U. after   10 cycles
 SCF Done:  E(RHF) =  -492.853151662     A.U. after   14 cycles
 SCF Done:  E(RHF) =  -492.853184192     A.U. after   14 cycles
 SCF Done:  E(RHF) =  -492.853206233     A.U. after   10 cycles
 SCF Done:  E(RHF) =  -492.853221375     A.U. after   11 cycles
 SCF Done:  E(RHF) =  -492.853222019     A.U. after    9 cycles
 SCF Done:  E(RHF) =  -492.853222106     A.U. after    8 cycles
 SCF Done:  E(RHF) =  -492.853222123     A.U. after    7 cycles
 Optimization completed.
    -- Stationary point found.

                         Standard orientation:
 ---------------------------------------------------------------------
 Center     Atomic      Atomic             Coordinates (Angstroms)
 Number     Number       Type             X           Y           Z
 ---------------------------------------------------------------------
      1          1           0       -3.933542   -1.496379    0.239695
      2          6           0       -2.969775   -1.343751    0.702733
      3          1           0       -2.459221   -2.294328    0.809585
      4          1           0       -3.123513   -0.928136    1.694406
      5          6           0       -2.172856   -0.364897   -0.132785
      6          8           0       -2.687521    0.368860   -0.926386
      7          7           0       -0.820452   -0.401253    0.069640
      8          1           0       -0.529074   -0.877811    0.895887
      9          6           0        0.040371    0.708316   -0.343059
     10          1           0       -0.018199    0.779620   -1.423384
     11          6           0       -0.351363    2.049685    0.272132
     12          1           0       -0.294675    2.004160    1.354120
     13          1           0        0.328550    2.822249   -0.060713
     14          1           0       -1.356875    2.312177   -0.023508
     15          6           0        1.488025    0.357158    0.022901
     16          8           0        2.227793    1.148569    0.536501
     17          7           0        1.870454   -0.901345   -0.289548
     18          1           0        1.248180   -1.460920   -0.826104
     19          6           0        3.245097   -1.330013   -0.140470
     20          1           0        3.603407   -1.075230    0.846226
     21          1           0        3.289852   -2.403812   -0.265423
     22          1           0        3.895935   -0.861815   -0.871067
 ---------------------------------------------------------------------

 The electronic state is 1-A.
 Alpha  occ. eigenvalues --  -20.53418 -20.53118 -15.59432 -15.59012 -11.35632
 Alpha  occ. eigenvalues --  -11.35023 -11.28200 -11.26269 -11.23997 -11.20773
 Alpha  occ. eigenvalues --   -1.40345  -1.39824  -1.25360  -1.22909  -1.05431
 Alpha  occ. eigenvalues --   -0.99496  -0.96646  -0.87692  -0.79557  -0.78926
 Alpha  occ. eigenvalues --   -0.73425  -0.67519  -0.65976  -0.65450  -0.62991
 Alpha  occ. eigenvalues --   -0.62512  -0.60388  -0.59409  -0.57667  -0.56180
 Alpha  occ. eigenvalues --   -0.55785  -0.53590  -0.52598  -0.51913  -0.50016
 Alpha  occ. eigenvalues --   -0.43218  -0.42055  -0.40566  -0.39118
 Alpha virt. eigenvalues --    0.18072   0.19633   0.22060   0.23510   0.26686
 Alpha virt. eigenvalues --    0.27535   0.28076   0.30018   0.30033   0.31228
 Alpha virt. eigenvalues --    0.33148   0.33458   0.33529   0.35012   0.37156

 Mulliken atomic charges:
              1
     1  H    0.218504
     2  C   -0.591354
     3  H    0.181635
     4  H    0.197485
     5  C    0.748809
     6  O   -0.589561
     7  N   -0.823176
     8  H    0.382596
     9  C   -0.035644
    10  H    0.221875
    11  C   -0.488540
    12  H    0.161760
    13  H    0.190367
    14  H    0.205350
    15  C    0.737322
    16  O   -0.602644
    17  N   -0.789806
    18  H    0.396490
    19  C   -0.272695
    20  H    0.202360
    21  H    0.168970
    22  H    0.179897
 Sum of Mulliken atomic charges =   0.00000

 Dipole moment (field-independent basis, Debye):
    X=              0.3193    Y=             -4.3675    Z=              0.9332  Tot=              4.4775
 Quadrupole moment (field-independent basis, Debye-Ang):
   XX=            -67.8776   YY=            -58.8962   ZZ=            -60.4515
   XY=             -2.8375   XZ=            -10.3751   YZ=             -1.0712

 Normal termination of Gaussian 09 at Fri Feb 10 05:44:41 2017.
