 Gaussian 09, Revision A.02,
 Gaussian 09:  EM64L-G09RevA.02 11-Jun-2009

 -------------------------------------------
 # HF/6-31G* Opt=(ModRedundant) geom=nocrowd
 -------------------------------------------

 ------------------
 Phi Psi fixed scan
 ------------------
 Symbolic Z-matrix:
 Charge =  0 Multiplicity = 1

 SCF Done:  E(RHF) =  -492.838203557     A.U. after   15 cycles
 SCF Done:  E(RHF) =  -492.848394903     A.U. after   14 cycles
 SCF Done:  E(RHF) =  -492.850738509     A.U. after   13 cycles
 SCF Done:  E(RHF) =  -492.851862968     A.U. after   13 cycles
 SCF Done:  E(RHF) =  -492.852091790     A.U. after   13 cycles
 SCF Done:  E(RHF) =  -492.852517769     A.U. after   13 cycles
 SCF Done:  E(RHF) =  -492.852696649     A.U. after   12 cycles
 SCF Done:  E(RHF) =  -492.852663267     A.U. after   12 cycles
 SCF Done:  E(RHF) =  -492.852737914     A.U. after   12 cycles
 SCF Done:  E(RHF) =  -492.852740293     A.U. after    9 cycles
 SCF Done:  E(RHF) =  -492.853073631     A.U. after   11 cycles
 SCF Done:  E(RHF) =  -492.853176995     A.U. after   12 cycles
 SCF Done:  E(RHF) =  -492.853201588     A.U. after   11 cycles
 SCF Done:  E(RHF) =  -492.853246842     A.U. after   11 cycles
 SCF Done:  E(RHF) =  -492.853271497     A.U. after   12 cycles
 SCF Done:  E(RHF) =  -492.853287933     A.U. after   11 cycles
 SCF Done:  E(RHF) =  -492.853284130     A.U. after   11 cycles
 SCF Done:  E(RHF) =  -492.853290180     A.U. after   11 cycles
 SCF Done:  E(RHF) =  -492.853290226     A.U. after    8 cycles
 SCF Done:  E(RHF) =  -492.853290253     A.U. after    8 cycles
 Optimization completed.
    -- Stationary point found.

                         Standard orientation:
 ---------------------------------------------------------------------
 Center     Atomic      Atomic             Coordinates (Angstroms)
 Number     Number       Type             X           Y           Z
 ---------------------------------------------------------------------
      1          1           0       -4.097976   -0.829043    0.928873
      2          6           0       -3.199691   -1.233201    0.484411
      3          1           0       -3.482613   -1.808133   -0.392155
      4          1           0       -2.709590   -1.897703    1.185973
      5          6           0       -2.310444   -0.085279    0.051599
      6          8           0       -2.768414    0.981382   -0.258526
      7          7           0       -0.987647   -0.377947    0.024968
      8          1           0       -0.722302   -1.336545    0.078716
      9          6           0        0.049417    0.501758   -0.488567
     10          1           0       -0.067509    0.627664   -1.562568
     11          6           0        0.029062    1.881345    0.171275
     12          1           0        0.194012    1.803788    1.241371
     13          1           0        0.792125    2.520956   -0.262899
     14          1           0       -0.926820    2.350796    0.008917
     15          6           0        1.356141   -0.283407   -0.294542
     16          8           0        1.392975   -1.453709   -0.583416
     17          7           0        2.420376    0.356296    0.211461
     18          1           0        2.346827    1.305900    0.483687
     19          6           0        3.680387   -0.331569    0.407829
     20          1           0        4.038638   -0.747749   -0.524153
     21          1           0        4.405276    0.379669    0.779645
     22          1           0        3.575105   -1.137306    1.123088
 ---------------------------------------------------------------------

 The electronic state is 1-A.
 Alpha  occ. eigenvalues --  -20.53107 -20.51952 -15.59786 -15.58038 -11.35475
 Alpha  occ. eigenvalues --  -11.34566 -11.28535 -11.26603 -11.22787 -11.22283
 Alpha  occ. eigenvalues --   -1.40320  -1.38640  -1.24456  -1.23487  -1.05760
 Alpha  occ. eigenvalues --   -0.99083  -0.96060  -0.89478  -0.80695  -0.77449
 Alpha  occ. eigenvalues --   -0.73079  -0.68095  -0.66435  -0.65241  -0.62868
 Alpha  occ. eigenvalues --   -0.61948  -0.59424  -0.58752  -0.56755  -0.56025
 Alpha  occ. eigenvalues --   -0.55907  -0.54684  -0.53556  -0.52652  -0.49889
 Alpha  occ. eigenvalues --   -0.42856  -0.41135  -0.39989  -0.38729
 Alpha virt. eigenvalues --    0.18714   0.20709   0.22064   0.24385   0.25925
 Alpha virt. eigenvalues --    0.27989   0.29073   0.29744   0.30638   0.32264
 Alpha virt. eigenvalues --    0.32616   0.33327   0.34881   0.35713   0.37205

 Mulliken atomic charges:
              1
     1  H    0.210624
     2  C   -0.584809
     3  H    0.200128
     4  H    0.179319
     5  C    0.755443
     6  O   -0.613423
     7  N   -0.830048
     8  H    0.416106
     9  C    0.016083
    10  H    0.210702
    11  C   -0.540645
    12  H    0.168360
    13  H    0.151302
    14  H    0.254181
    15  C    0.755768
    16  O   -0.634079
    17  N   -0.807275
    18  H    0.405392
    19  C   -0.269709
    20  H    0.195671
    21  H    0.169829
    22  H    0.191080
 Sum of Mulliken atomic charges =   0.00000

 Dipole moment (field-independent basis, Debye):
    X=              2.8830    Y=              0.4678    Z=              1.6420  Tot=              3.3506
 Quadrupole moment (field-independent basis, Debye-Ang):
   XX=            -58.0641   YY=            -62.9195   ZZ=            -60.3486
   XY=             14.0173   XZ=              0.7019   YZ=             -1.2772

 Normal termination of Gaussian 09 at Fri Feb 10 06:37:37 2017.
