 Gaussian 09, Revision A.02,
 Gaussian 09:  EM64L-G09RevA.02 11-Jun-2009

 -------------------------------------------
 # HF/6-31G* Opt=(ModRedundant) geom=nocrowd
 -------------------------------------------

 ------------------
 Phi Psi fixed scan
 ------------------
 Symbolic Z-matrix:
 Charge =  0 Multiplicity = 1

 SCF Done:  E(RHF) =  -492.851850769     A.U. after   15 cycles
 SCF Done:  E(RHF) =  -492.857507592     A.U. after   14 cycles
 SCF Done:  E(RHF) =  -492.858399611     A.U. after   13 cycles
 SCF Done:  E(RHF) =  -492.858577652     A.U. after   13 cycles
 SCF Done:  E(RHF) =  -492.858887901     A.U. after   12 cycles
 SCF Done:  E(RHF) =  -492.858935374     A.U. after   10 cycles
 SCF Done:  E(RHF) =  -492.858938691     A.U. after   11 cycles
 SCF Done:  E(RHF) =  -492.858951943     A.U. after    9 cycles
 SCF Done:  E(RHF) =  -492.858956336     A.U. after    9 cycles
 SCF Done:  E(RHF) =  -492.858968703     A.U. after   11 cycles
 SCF Done:  E(RHF) =  -492.859033932     A.U. after   14 cycles
 SCF Done:  E(RHF) =  -492.859269548     A.U. after   12 cycles
 SCF Done:  E(RHF) =  -492.859164871     A.U. after   12 cycles
 SCF Done:  E(RHF) =  -492.859270743     A.U. after   11 cycles
 SCF Done:  E(RHF) =  -492.859328257     A.U. after   11 cycles
 SCF Done:  E(RHF) =  -492.859338335     A.U. after   10 cycles
 SCF Done:  E(RHF) =  -492.859343786     A.U. after   10 cycles
 SCF Done:  E(RHF) =  -492.859345470     A.U. after   10 cycles
 SCF Done:  E(RHF) =  -492.859346067     A.U. after    9 cycles
 SCF Done:  E(RHF) =  -492.859346107     A.U. after    7 cycles
 Optimization completed.
    -- Stationary point found.

                         Standard orientation:
 ---------------------------------------------------------------------
 Center     Atomic      Atomic             Coordinates (Angstroms)
 Number     Number       Type             X           Y           Z
 ---------------------------------------------------------------------
      1          1           0       -4.211454   -0.998445   -0.494980
      2          6           0       -3.330653   -1.141071    0.115090
      3          1           0       -2.936683   -2.138783   -0.037692
      4          1           0       -3.620289   -1.042184    1.156665
      5          6           0       -2.326189   -0.058125   -0.216632
      6          8           0       -2.670620    1.042554   -0.559361
      7          7           0       -1.030040   -0.417470   -0.096860
      8          1           0       -0.790170   -1.312748    0.268038
      9          6           0        0.063868    0.520425   -0.189386
     10          1           0        0.060227    0.977619   -1.172860
     11          6           0       -0.003232    1.623878    0.879821
     12          1           0        0.045995    1.185109    1.871007
     13          1           0        0.822538    2.319334    0.773839
     14          1           0       -0.928765    2.170794    0.781225
     15          6           0        1.351129   -0.282185   -0.000909
     16          8           0        1.344892   -1.386500    0.478723
     17          7           0        2.485073    0.344926   -0.361111
     18          1           0        2.425406    1.214054   -0.838401
     19          6           0        3.779814   -0.291627   -0.232495
     20          1           0        3.902800   -0.683325    0.767033
     21          1           0        3.895043   -1.106916   -0.937286
     22          1           0        4.547522    0.447108   -0.418612
 ---------------------------------------------------------------------

 The electronic state is 1-A.
 Alpha  occ. eigenvalues --  -20.53740 -20.51529 -15.59728 -15.57672 -11.35644
 Alpha  occ. eigenvalues --  -11.34252 -11.28319 -11.26658 -11.22670 -11.22173
 Alpha  occ. eigenvalues --   -1.40697  -1.38328  -1.24537  -1.23360  -1.05624
 Alpha  occ. eigenvalues --   -0.99035  -0.96277  -0.88742  -0.80698  -0.77955
 Alpha  occ. eigenvalues --   -0.73081  -0.67607  -0.65995  -0.64609  -0.63540
 Alpha  occ. eigenvalues --   -0.61877  -0.60106  -0.58528  -0.56577  -0.56450
 Alpha  occ. eigenvalues --   -0.56332  -0.54754  -0.52797  -0.52274  -0.49539
 Alpha  occ. eigenvalues --   -0.42992  -0.41191  -0.40443  -0.38213
 Alpha virt. eigenvalues --    0.18609   0.20801   0.21502   0.24345   0.25956
 Alpha virt. eigenvalues --    0.28520   0.29041   0.30012   0.31368   0.31474
 Alpha virt. eigenvalues --    0.32614   0.33173   0.34614   0.35281   0.37105

 Mulliken atomic charges:
              1
     1  H    0.209412
     2  C   -0.581026
     3  H    0.178202
     4  H    0.198551
     5  C    0.758564
     6  O   -0.620961
     7  N   -0.832036
     8  H    0.421740
     9  C   -0.013887
    10  H    0.203955
    11  C   -0.502667
    12  H    0.174915
    13  H    0.155471
    14  H    0.230215
    15  C    0.773169
    16  O   -0.631132
    17  N   -0.799052
    18  H    0.389887
    19  C   -0.271528
    20  H    0.202101
    21  H    0.184457
    22  H    0.171649
 Sum of Mulliken atomic charges =   0.00000

 Dipole moment (field-independent basis, Debye):
    X=              2.9645    Y=              0.2498    Z=             -0.1989  Tot=              2.9816
 Quadrupole moment (field-independent basis, Debye-Ang):
   XX=            -55.8519   YY=            -63.5458   ZZ=            -60.4870
   XY=             13.5914   XZ=             -6.9669   YZ=              1.3438

 Normal termination of Gaussian 09 at Fri Feb 10 06:11:36 2017.
