 Gaussian 09, Revision A.02,
 Gaussian 09:  EM64L-G09RevA.02 11-Jun-2009

 -------------------------------------------
 # HF/6-31G* Opt=(ModRedundant) geom=nocrowd
 -------------------------------------------

 ------------------
 Phi Psi fixed scan
 ------------------
 Symbolic Z-matrix:
 Charge =  0 Multiplicity = 1

 SCF Done:  E(RHF) =  -492.834753851     A.U. after   15 cycles
 SCF Done:  E(RHF) =  -492.844741204     A.U. after   16 cycles
 SCF Done:  E(RHF) =  -492.846906381     A.U. after   13 cycles
 SCF Done:  E(RHF) =  -492.847889861     A.U. after   13 cycles
 SCF Done:  E(RHF) =  -492.848049367     A.U. after   13 cycles
 SCF Done:  E(RHF) =  -492.848600007     A.U. after   13 cycles
 SCF Done:  E(RHF) =  -492.849098392     A.U. after   13 cycles
 SCF Done:  E(RHF) =  -492.849136606     A.U. after   13 cycles
 SCF Done:  E(RHF) =  -492.849243144     A.U. after   11 cycles
 SCF Done:  E(RHF) =  -492.849275826     A.U. after   11 cycles
 SCF Done:  E(RHF) =  -492.849609982     A.U. after   13 cycles
 SCF Done:  E(RHF) =  -492.849588584     A.U. after   12 cycles
 SCF Done:  E(RHF) =  -492.849666100     A.U. after   11 cycles
 SCF Done:  E(RHF) =  -492.849755752     A.U. after   11 cycles
 SCF Done:  E(RHF) =  -492.849777290     A.U. after   11 cycles
 SCF Done:  E(RHF) =  -492.849783795     A.U. after   11 cycles
 SCF Done:  E(RHF) =  -492.849784783     A.U. after   10 cycles
 SCF Done:  E(RHF) =  -492.849784848     A.U. after    8 cycles
 SCF Done:  E(RHF) =  -492.849784854     A.U. after    8 cycles
 SCF Done:  E(RHF) =  -492.849784862     A.U. after    7 cycles
 Optimization completed.
    -- Stationary point found.

                         Standard orientation:
 ---------------------------------------------------------------------
 Center     Atomic      Atomic             Coordinates (Angstroms)
 Number     Number       Type             X           Y           Z
 ---------------------------------------------------------------------
      1          1           0        4.016047   -1.000418   -0.960967
      2          6           0        3.081128   -1.347189   -0.545429
      3          1           0        3.297609   -1.961316    0.323781
      4          1           0        2.559559   -1.958574   -1.272588
      5          6           0        2.262478   -0.147281   -0.114629
      6          8           0        2.770724    0.912158    0.124869
      7          7           0        0.925761   -0.385527   -0.017608
      8          1           0        0.654254   -1.343437    0.029227
      9          6           0       -0.031747    0.542220    0.578119
     10          1           0        0.148369    0.629410    1.644299
     11          6           0        0.019060    1.934336   -0.050958
     12          1           0       -0.035857    1.880235   -1.133990
     13          1           0       -0.806201    2.536487    0.316951
     14          1           0        0.943665    2.425611    0.202828
     15          6           0       -1.382221   -0.174967    0.447863
     16          8           0       -1.603984   -1.140003    1.133946
     17          7           0       -2.244395    0.250088   -0.489130
     18          1           0       -2.016498    1.033402   -1.051900
     19          6           0       -3.508521   -0.423237   -0.703671
     20          1           0       -4.091381   -0.444245    0.207545
     21          1           0       -4.059695    0.113629   -1.463703
     22          1           0       -3.354409   -1.443243   -1.032611
 ---------------------------------------------------------------------

 The electronic state is 1-A.
 Alpha  occ. eigenvalues --  -20.52846 -20.52599 -15.59497 -15.58680 -11.35087
 Alpha  occ. eigenvalues --  -11.35031 -11.28324 -11.26466 -11.23211 -11.22248
 Alpha  occ. eigenvalues --   -1.40038  -1.39196  -1.24397  -1.23608  -1.05795
 Alpha  occ. eigenvalues --   -0.99337  -0.96021  -0.89396  -0.80150  -0.77805
 Alpha  occ. eigenvalues --   -0.72969  -0.68446  -0.66718  -0.64810  -0.62777
 Alpha  occ. eigenvalues --   -0.62206  -0.59463  -0.58825  -0.56716  -0.56509
 Alpha  occ. eigenvalues --   -0.55679  -0.54217  -0.54129  -0.52378  -0.50332
 Alpha  occ. eigenvalues --   -0.42832  -0.41453  -0.39815  -0.39064
 Alpha virt. eigenvalues --    0.19148   0.20038   0.21986   0.23295   0.25811
 Alpha virt. eigenvalues --    0.27837   0.28630   0.29881   0.30587   0.31485
 Alpha virt. eigenvalues --    0.32883   0.33565   0.34135   0.35390   0.37391

 Mulliken atomic charges:
              1
     1  H    0.214035
     2  C   -0.589438
     3  H    0.199211
     4  H    0.182099
     5  C    0.751611
     6  O   -0.602394
     7  N   -0.823403
     8  H    0.401412
     9  C    0.025382
    10  H    0.211075
    11  C   -0.533162
    12  H    0.159994
    13  H    0.163646
    14  H    0.244466
    15  C    0.727440
    16  O   -0.623014
    17  N   -0.796366
    18  H    0.403764
    19  C   -0.269048
    20  H    0.195254
    21  H    0.169279
    22  H    0.188155
 Sum of Mulliken atomic charges =   0.00000

 Dipole moment (field-independent basis, Debye):
    X=             -2.0633    Y=             -0.1766    Z=             -2.6936  Tot=              3.3976
 Quadrupole moment (field-independent basis, Debye-Ang):
   XX=            -61.2557   YY=            -60.8485   ZZ=            -61.2764
   XY=            -12.7166   XZ=              4.5339   YZ=              2.5483

 Normal termination of Gaussian 09 at Fri Feb 10 06:48:57 2017.
