 Gaussian 09, Revision A.02,
 Gaussian 09:  EM64L-G09RevA.02 11-Jun-2009

 -------------------------------------------
 # HF/6-31G* Opt=(ModRedundant) geom=nocrowd
 -------------------------------------------

 ------------------
 Phi Psi fixed scan
 ------------------
 Symbolic Z-matrix:
 Charge =  0 Multiplicity = 1

 SCF Done:  E(RHF) =  -492.841293853     A.U. after   15 cycles
 SCF Done:  E(RHF) =  -492.848400400     A.U. after   14 cycles
 SCF Done:  E(RHF) =  -492.848851417     A.U. after   13 cycles
 SCF Done:  E(RHF) =  -492.849101178     A.U. after   16 cycles
 SCF Done:  E(RHF) =  -492.849447585     A.U. after   12 cycles
 SCF Done:  E(RHF) =  -492.849581051     A.U. after   12 cycles
 SCF Done:  E(RHF) =  -492.849672759     A.U. after   13 cycles
 SCF Done:  E(RHF) =  -492.849703501     A.U. after   12 cycles
 SCF Done:  E(RHF) =  -492.849742562     A.U. after   12 cycles
 SCF Done:  E(RHF) =  -492.849795141     A.U. after   12 cycles
 SCF Done:  E(RHF) =  -492.850115972     A.U. after   12 cycles
 SCF Done:  E(RHF) =  -492.850122320     A.U. after   11 cycles
 SCF Done:  E(RHF) =  -492.850128485     A.U. after   10 cycles
 SCF Done:  E(RHF) =  -492.850139833     A.U. after   10 cycles
 SCF Done:  E(RHF) =  -492.850167104     A.U. after   12 cycles
 SCF Done:  E(RHF) =  -492.850179635     A.U. after   11 cycles
 SCF Done:  E(RHF) =  -492.850181383     A.U. after   10 cycles
 SCF Done:  E(RHF) =  -492.850181570     A.U. after    8 cycles
 SCF Done:  E(RHF) =  -492.850181626     A.U. after    8 cycles
 SCF Done:  E(RHF) =  -492.850181649     A.U. after    7 cycles
 Optimization completed.
    -- Stationary point found.

                         Standard orientation:
 ---------------------------------------------------------------------
 Center     Atomic      Atomic             Coordinates (Angstroms)
 Number     Number       Type             X           Y           Z
 ---------------------------------------------------------------------
      1          1           0        3.935317   -1.391781   -0.492385
      2          6           0        3.013878   -1.523803    0.056060
      3          1           0        3.260900   -1.761844    1.086233
      4          1           0        2.455259   -2.353619   -0.361693
      5          6           0        2.236329   -0.223860    0.022895
      6          8           0        2.781896    0.835749   -0.107963
      7          7           0        0.892632   -0.358565    0.176365
      8          1           0        0.556946   -1.256317    0.442873
      9          6           0       -0.029496    0.763743    0.325915
     10          1           0        0.170978    1.285981    1.251958
     11          6           0        0.034440    1.763993   -0.833983
     12          1           0       -0.083665    1.270059   -1.792825
     13          1           0       -0.761012    2.493927   -0.723275
     14          1           0        0.982698    2.276970   -0.834711
     15          6           0       -1.445314    0.202760    0.472368
     16          8           0       -2.111210    0.429396    1.444275
     17          7           0       -1.896762   -0.540879   -0.561815
     18          1           0       -1.342796   -0.603380   -1.383823
     19          6           0       -3.258592   -1.031233   -0.601036
     20          1           0       -3.497077   -1.533741    0.325277
     21          1           0       -3.970680   -0.226357   -0.745413
     22          1           0       -3.350915   -1.734553   -1.417874
 ---------------------------------------------------------------------

 The electronic state is 1-A.
 Alpha  occ. eigenvalues --  -20.53097 -20.52855 -15.59398 -15.59291 -11.35457
 Alpha  occ. eigenvalues --  -11.34993 -11.28205 -11.26447 -11.23766 -11.22171
 Alpha  occ. eigenvalues --   -1.40092  -1.39543  -1.25213  -1.23140  -1.05958
 Alpha  occ. eigenvalues --   -0.99653  -0.96256  -0.88952  -0.79801  -0.78726
 Alpha  occ. eigenvalues --   -0.73429  -0.68312  -0.67085  -0.64042  -0.63063
 Alpha  occ. eigenvalues --   -0.62563  -0.59664  -0.59493  -0.57182  -0.56747
 Alpha  occ. eigenvalues --   -0.56032  -0.54909  -0.53402  -0.51878  -0.50453
 Alpha  occ. eigenvalues --   -0.43343  -0.41081  -0.40326  -0.39165
 Alpha virt. eigenvalues --    0.18680   0.19700   0.21593   0.22684   0.25869
 Alpha virt. eigenvalues --    0.27511   0.28124   0.29881   0.30072   0.31420
 Alpha virt. eigenvalues --    0.32716   0.33932   0.34543   0.35646   0.36856

 Mulliken atomic charges:
              1
     1  H    0.216131
     2  C   -0.587140
     3  H    0.202411
     4  H    0.173882
     5  C    0.755571
     6  O   -0.600331
     7  N   -0.838277
     8  H    0.390887
     9  C   -0.001407
    10  H    0.226601
    11  C   -0.506408
    12  H    0.148881
    13  H    0.176821
    14  H    0.236609
    15  C    0.716644
    16  O   -0.600359
    17  N   -0.784028
    18  H    0.393110
    19  C   -0.272143
    20  H    0.201138
    21  H    0.182678
    22  H    0.168726
 Sum of Mulliken atomic charges =   0.00000

 Dipole moment (field-independent basis, Debye):
    X=             -0.7669    Y=             -3.8191    Z=             -2.7061  Tot=              4.7430
 Quadrupole moment (field-independent basis, Debye-Ang):
   XX=            -67.7685   YY=            -57.6838   ZZ=            -62.4863
   XY=             -4.5031   XZ=              9.1611   YZ=             -0.8518

 Normal termination of Gaussian 09 at Fri Feb 10 06:58:46 2017.
