 Gaussian 09, Revision A.02,
 Gaussian 09:  EM64L-G09RevA.02 11-Jun-2009

 -------------------------------------------
 # HF/6-31G* Opt=(ModRedundant) geom=nocrowd
 -------------------------------------------

 ------------------
 Phi Psi fixed scan
 ------------------
 Symbolic Z-matrix:
 Charge =  0 Multiplicity = 1

 SCF Done:  E(RHF) =  -492.846796989     A.U. after   15 cycles
 SCF Done:  E(RHF) =  -492.853443321     A.U. after   14 cycles
 SCF Done:  E(RHF) =  -492.854394161     A.U. after   13 cycles
 SCF Done:  E(RHF) =  -492.855151402     A.U. after   13 cycles
 SCF Done:  E(RHF) =  -492.856001159     A.U. after   13 cycles
 SCF Done:  E(RHF) =  -492.856332783     A.U. after   12 cycles
 SCF Done:  E(RHF) =  -492.856271726     A.U. after   12 cycles
 SCF Done:  E(RHF) =  -492.856406119     A.U. after   12 cycles
 SCF Done:  E(RHF) =  -492.856418528     A.U. after   11 cycles
 SCF Done:  E(RHF) =  -492.856437113     A.U. after   11 cycles
 SCF Done:  E(RHF) =  -492.856647895     A.U. after   11 cycles
 SCF Done:  E(RHF) =  -492.856679540     A.U. after   11 cycles
 SCF Done:  E(RHF) =  -492.856666708     A.U. after   12 cycles
 SCF Done:  E(RHF) =  -492.856669671     A.U. after   11 cycles
 SCF Done:  E(RHF) =  -492.856706499     A.U. after   11 cycles
 SCF Done:  E(RHF) =  -492.856710156     A.U. after   11 cycles
 SCF Done:  E(RHF) =  -492.856711638     A.U. after   11 cycles
 SCF Done:  E(RHF) =  -492.856713092     A.U. after   10 cycles
 SCF Done:  E(RHF) =  -492.856713471     A.U. after    9 cycles
 SCF Done:  E(RHF) =  -492.856713500     A.U. after    8 cycles
 Optimization completed.
    -- Stationary point found.

                         Standard orientation:
 ---------------------------------------------------------------------
 Center     Atomic      Atomic             Coordinates (Angstroms)
 Number     Number       Type             X           Y           Z
 ---------------------------------------------------------------------
      1          1           0       -4.121020   -1.239902   -0.322724
      2          6           0       -3.196541   -1.284985    0.234288
      3          1           0       -2.770820   -2.279124    0.161401
      4          1           0       -3.411849   -1.083952    1.279713
      5          6           0       -2.252630   -0.225919   -0.292732
      6          8           0       -2.637549    0.726127   -0.913272
      7          7           0       -0.935537   -0.444961   -0.026495
      8          1           0       -0.723575   -1.111917    0.684570
      9          6           0        0.052080    0.614315   -0.163227
     10          1           0        0.055557    0.932532   -1.197528
     11          6           0       -0.207754    1.824477    0.739164
     12          1           0       -0.205648    1.520221    1.778749
     13          1           0        0.569992    2.570027    0.600609
     14          1           0       -1.159647    2.273761    0.494547
     15          6           0        1.388393   -0.016324    0.219166
     16          8           0        1.541893   -0.508348    1.307693
     17          7           0        2.346341   -0.014188   -0.721693
     18          1           0        2.135782    0.339591   -1.625012
     19          6           0        3.645617   -0.608456   -0.484704
     20          1           0        4.080560   -0.210657    0.421593
     21          1           0        3.574069   -1.685038   -0.386091
     22          1           0        4.291223   -0.372381   -1.319605
 ---------------------------------------------------------------------

 The electronic state is 1-A.
 Alpha  occ. eigenvalues --  -20.53083 -20.52471 -15.59745 -15.58273 -11.35183
 Alpha  occ. eigenvalues --  -11.34768 -11.28036 -11.26532 -11.23128 -11.21545
 Alpha  occ. eigenvalues --   -1.40188  -1.39095  -1.24403  -1.23584  -1.05386
 Alpha  occ. eigenvalues --   -0.99197  -0.96631  -0.88138  -0.80218  -0.78343
 Alpha  occ. eigenvalues --   -0.73043  -0.67182  -0.66113  -0.64452  -0.63228
 Alpha  occ. eigenvalues --   -0.62252  -0.60360  -0.58558  -0.57021  -0.56638
 Alpha  occ. eigenvalues --   -0.56218  -0.54262  -0.52280  -0.51793  -0.50016
 Alpha  occ. eigenvalues --   -0.42746  -0.41940  -0.39915  -0.38969
 Alpha virt. eigenvalues --    0.18927   0.20612   0.21171   0.23398   0.25947
 Alpha virt. eigenvalues --    0.28047   0.29452   0.30629   0.30831   0.31492
 Alpha virt. eigenvalues --    0.32446   0.33177   0.33984   0.35718   0.37352

 Mulliken atomic charges:
              1
     1  H    0.213600
     2  C   -0.588618
     3  H    0.184910
     4  H    0.196801
     5  C    0.748361
     6  O   -0.604920
     7  N   -0.808372
     8  H    0.401308
     9  C   -0.013835
    10  H    0.200470
    11  C   -0.511449
    12  H    0.187491
    13  H    0.163106
    14  H    0.214937
    15  C    0.764374
    16  O   -0.630364
    17  N   -0.795081
    18  H    0.393130
    19  C   -0.273523
    20  H    0.199913
    21  H    0.186552
    22  H    0.171210
 Sum of Mulliken atomic charges =   0.00000

 Dipole moment (field-independent basis, Debye):
    X=              2.1422    Y=             -1.0878    Z=             -1.1907  Tot=              2.6814
 Quadrupole moment (field-independent basis, Debye-Ang):
   XX=            -57.8444   YY=            -59.7483   ZZ=            -62.9349
   XY=              7.9927   XZ=            -13.1439   YZ=              1.8349

 Normal termination of Gaussian 09 at Fri Feb 10 06:02:27 2017.
