 Gaussian 09, Revision A.02,
 Gaussian 09:  EM64L-G09RevA.02 11-Jun-2009

 -------------------------------------------
 # HF/6-31G* Opt=(ModRedundant) geom=nocrowd
 -------------------------------------------

 ------------------
 Phi Psi fixed scan
 ------------------
 Symbolic Z-matrix:
 Charge =  0 Multiplicity = 1

 SCF Done:  E(RHF) =  -492.844344512     A.U. after   15 cycles
 SCF Done:  E(RHF) =  -492.851359685     A.U. after   14 cycles
 SCF Done:  E(RHF) =  -492.852159649     A.U. after   13 cycles
 SCF Done:  E(RHF) =  -492.852943301     A.U. after   13 cycles
 SCF Done:  E(RHF) =  -492.853890329     A.U. after   13 cycles
 SCF Done:  E(RHF) =  -492.854376903     A.U. after   13 cycles
 SCF Done:  E(RHF) =  -492.854391916     A.U. after   13 cycles
 SCF Done:  E(RHF) =  -492.854537758     A.U. after   12 cycles
 SCF Done:  E(RHF) =  -492.854554528     A.U. after   11 cycles
 SCF Done:  E(RHF) =  -492.854574020     A.U. after   11 cycles
 SCF Done:  E(RHF) =  -492.854751323     A.U. after   15 cycles
 SCF Done:  E(RHF) =  -492.854775316     A.U. after   12 cycles
 SCF Done:  E(RHF) =  -492.854797893     A.U. after   11 cycles
 SCF Done:  E(RHF) =  -492.854845801     A.U. after   11 cycles
 SCF Done:  E(RHF) =  -492.854869982     A.U. after   12 cycles
 SCF Done:  E(RHF) =  -492.854879669     A.U. after   12 cycles
 SCF Done:  E(RHF) =  -492.854881189     A.U. after   11 cycles
 SCF Done:  E(RHF) =  -492.854882333     A.U. after   10 cycles
 SCF Done:  E(RHF) =  -492.854882382     A.U. after    8 cycles
 SCF Done:  E(RHF) =  -492.854882377     A.U. after    6 cycles
 Optimization completed.
    -- Stationary point found.

                         Standard orientation:
 ---------------------------------------------------------------------
 Center     Atomic      Atomic             Coordinates (Angstroms)
 Number     Number       Type             X           Y           Z
 ---------------------------------------------------------------------
      1          1           0       -4.049190   -1.388574    0.008331
      2          6           0       -3.116444   -1.280375    0.542232
      3          1           0       -2.656514   -2.252182    0.680564
      4          1           0       -3.324048   -0.860996    1.522426
      5          6           0       -2.216835   -0.336182   -0.225477
      6          8           0       -2.637667    0.424621   -1.050767
      7          7           0       -0.889189   -0.433257    0.075562
      8          1           0       -0.669662   -0.893096    0.933777
      9          6           0        0.045460    0.625703   -0.290185
     10          1           0        0.040093    0.707157   -1.369081
     11          6           0       -0.285455    1.986357    0.323837
     12          1           0       -0.269811    1.922341    1.404402
     13          1           0        0.451395    2.723161    0.018073
     14          1           0       -1.258801    2.318554   -0.008200
     15          6           0        1.408400    0.149657    0.211731
     16          8           0        1.660053    0.135534    1.388480
     17          7           0        2.264267   -0.298217   -0.722768
     18          1           0        1.961574   -0.347598   -1.667154
     19          6           0        3.550926   -0.860040   -0.369260
     20          1           0        4.075412   -0.193022    0.299935
     21          1           0        3.444475   -1.821635    0.119831
     22          1           0        4.134130   -0.985759   -1.271425
 ---------------------------------------------------------------------

 The electronic state is 1-A.
 Alpha  occ. eigenvalues --  -20.53045 -20.52810 -15.59560 -15.58626 -11.35086
 Alpha  occ. eigenvalues --  -11.35027 -11.28024 -11.26432 -11.23364 -11.21251
 Alpha  occ. eigenvalues --   -1.40157  -1.39377  -1.24440  -1.23597  -1.05341
 Alpha  occ. eigenvalues --   -0.99278  -0.96645  -0.87985  -0.79925  -0.78542
 Alpha  occ. eigenvalues --   -0.73049  -0.67164  -0.66162  -0.64700  -0.63039
 Alpha  occ. eigenvalues --   -0.62366  -0.60385  -0.58696  -0.57169  -0.56684
 Alpha  occ. eigenvalues --   -0.56042  -0.54041  -0.52331  -0.51656  -0.50129
 Alpha  occ. eigenvalues --   -0.42732  -0.42148  -0.39944  -0.39144
 Alpha virt. eigenvalues --    0.19162   0.20168   0.21304   0.22888   0.25987
 Alpha virt. eigenvalues --    0.28047   0.28899   0.30624   0.30842   0.31511
 Alpha virt. eigenvalues --    0.32671   0.33028   0.33960   0.35763   0.37376

 Mulliken atomic charges:
              1
     1  H    0.215001
     2  C   -0.590151
     3  H    0.185524
     4  H    0.196971
     5  C    0.747020
     6  O   -0.599328
     7  N   -0.807000
     8  H    0.394859
     9  C   -0.017151
    10  H    0.201100
    11  C   -0.508673
    12  H    0.189029
    13  H    0.164511
    14  H    0.210433
    15  C    0.757584
    16  O   -0.622515
    17  N   -0.792614
    18  H    0.393256
    19  C   -0.273967
    20  H    0.202705
    21  H    0.182188
    22  H    0.171218
 Sum of Mulliken atomic charges =   0.00000

 Dipole moment (field-independent basis, Debye):
    X=              1.7108    Y=             -2.0667    Z=             -0.8682  Tot=              2.8199
 Quadrupole moment (field-independent basis, Debye-Ang):
   XX=            -59.8246   YY=            -58.4116   ZZ=            -63.5302
   XY=              2.9127   XZ=            -14.6437   YZ=              0.1896

 Normal termination of Gaussian 09 at Fri Feb 10 05:57:39 2017.
