 Gaussian 09, Revision A.02,
 Gaussian 09:  EM64L-G09RevA.02 11-Jun-2009

 -------------------------------------------
 # HF/6-31G* Opt=(ModRedundant) geom=nocrowd
 -------------------------------------------

 ------------------
 Phi Psi fixed scan
 ------------------
 Symbolic Z-matrix:
 Charge =  0 Multiplicity = 1

 SCF Done:  E(RHF) =  -492.842051618     A.U. after   15 cycles
 SCF Done:  E(RHF) =  -492.848677590     A.U. after   14 cycles
 SCF Done:  E(RHF) =  -492.849472287     A.U. after   13 cycles
 SCF Done:  E(RHF) =  -492.850050371     A.U. after   13 cycles
 SCF Done:  E(RHF) =  -492.850643311     A.U. after   12 cycles
 SCF Done:  E(RHF) =  -492.850909029     A.U. after   16 cycles
 SCF Done:  E(RHF) =  -492.850974419     A.U. after   16 cycles
 SCF Done:  E(RHF) =  -492.851012003     A.U. after   12 cycles
 SCF Done:  E(RHF) =  -492.851062788     A.U. after   11 cycles
 SCF Done:  E(RHF) =  -492.851156030     A.U. after   12 cycles
 SCF Done:  E(RHF) =  -492.851426190     A.U. after   12 cycles
 SCF Done:  E(RHF) =  -492.851517291     A.U. after   12 cycles
 SCF Done:  E(RHF) =  -492.851541294     A.U. after   11 cycles
 SCF Done:  E(RHF) =  -492.851548848     A.U. after   10 cycles
 SCF Done:  E(RHF) =  -492.851551212     A.U. after   10 cycles
 SCF Done:  E(RHF) =  -492.851551358     A.U. after    8 cycles
 SCF Done:  E(RHF) =  -492.851551387     A.U. after    7 cycles
 SCF Done:  E(RHF) =  -492.851551446     A.U. after    8 cycles
 SCF Done:  E(RHF) =  -492.851551488     A.U. after    8 cycles
 SCF Done:  E(RHF) =  -492.851551523     A.U. after    8 cycles
 Optimization completed.
    -- Stationary point found.

                         Standard orientation:
 ---------------------------------------------------------------------
 Center     Atomic      Atomic             Coordinates (Angstroms)
 Number     Number       Type             X           Y           Z
 ---------------------------------------------------------------------
      1          1           0        3.948252   -1.402671   -0.367668
      2          6           0        3.005831   -1.516243    0.148095
      3          1           0        3.211225   -1.721650    1.194476
      4          1           0        2.461721   -2.358295   -0.264323
      5          6           0        2.230998   -0.218648    0.040593
      6          8           0        2.779217    0.832528   -0.132806
      7          7           0        0.881817   -0.348873    0.174784
      8          1           0        0.555870   -1.220902    0.527296
      9          6           0       -0.033654    0.781404    0.298139
     10          1           0        0.166177    1.331680    1.208352
     11          6           0        0.031753    1.745127   -0.893797
     12          1           0       -0.129269    1.219064   -1.829315
     13          1           0       -0.740690    2.498623   -0.783967
     14          1           0        0.993540    2.230349   -0.935328
     15          6           0       -1.464127    0.261816    0.430306
     16          8           0       -2.223896    0.732812    1.229706
     17          7           0       -1.818410   -0.726215   -0.424868
     18          1           0       -1.198923   -0.941389   -1.172210
     19          6           0       -3.192062   -1.175682   -0.519835
     20          1           0       -3.577895   -1.372011    0.469325
     21          1           0       -3.828561   -0.436511   -0.994537
     22          1           0       -3.220309   -2.090023   -1.097715
 ---------------------------------------------------------------------

 The electronic state is 1-A.
 Alpha  occ. eigenvalues --  -20.53117 -20.53054 -15.59456 -15.59307 -11.35616
 Alpha  occ. eigenvalues --  -11.35021 -11.28194 -11.26393 -11.23893 -11.22015
 Alpha  occ. eigenvalues --   -1.40174  -1.39688  -1.25447  -1.23032  -1.05969
 Alpha  occ. eigenvalues --   -0.99703  -0.96321  -0.88678  -0.79778  -0.78547
 Alpha  occ. eigenvalues --   -0.73572  -0.68457  -0.67243  -0.63729  -0.63173
 Alpha  occ. eigenvalues --   -0.62625  -0.59950  -0.59718  -0.57233  -0.56573
 Alpha  occ. eigenvalues --   -0.56024  -0.54782  -0.53252  -0.51814  -0.50371
 Alpha  occ. eigenvalues --   -0.43476  -0.41225  -0.40271  -0.39511
 Alpha virt. eigenvalues --    0.18433   0.19681   0.21564   0.23295   0.26283
 Alpha virt. eigenvalues --    0.27629   0.28184   0.29552   0.29945   0.31463
 Alpha virt. eigenvalues --    0.32678   0.33878   0.34216   0.36080   0.36512

 Mulliken atomic charges:
              1
     1  H    0.217315
     2  C   -0.588426
     3  H    0.200830
     4  H    0.175428
     5  C    0.754010
     6  O   -0.595641
     7  N   -0.842241
     8  H    0.389440
     9  C   -0.005914
    10  H    0.224599
    11  C   -0.507472
    12  H    0.152492
    13  H    0.183629
    14  H    0.236557
    15  C    0.724602
    16  O   -0.603573
    17  N   -0.786801
    18  H    0.391579
    19  C   -0.275330
    20  H    0.206152
    21  H    0.179542
    22  H    0.169224
 Sum of Mulliken atomic charges =   0.00000

 Dipole moment (field-independent basis, Debye):
    X=             -0.4085    Y=             -4.4315    Z=             -2.0367  Tot=              4.8942
 Quadrupole moment (field-independent basis, Debye-Ang):
   XX=            -68.9416   YY=            -58.2664   ZZ=            -61.3654
   XY=             -2.6557   XZ=              8.5925   YZ=             -1.4225

 Normal termination of Gaussian 09 at Fri Feb 10 07:01:21 2017.
