 Gaussian 09, Revision A.02,
 Gaussian 09:  EM64L-G09RevA.02 11-Jun-2009

 -------------------------------------------
 # HF/6-31G* Opt=(ModRedundant) geom=nocrowd
 -------------------------------------------

 ------------------
 Phi Psi fixed scan
 ------------------
 Symbolic Z-matrix:
 Charge =  0 Multiplicity = 1

 SCF Done:  E(RHF) =  -492.849227731     A.U. after   15 cycles
 SCF Done:  E(RHF) =  -492.855563836     A.U. after   13 cycles
 SCF Done:  E(RHF) =  -492.856557433     A.U. after   13 cycles
 SCF Done:  E(RHF) =  -492.857112450     A.U. after   13 cycles
 SCF Done:  E(RHF) =  -492.857784386     A.U. after   13 cycles
 SCF Done:  E(RHF) =  -492.857988668     A.U. after   11 cycles
 SCF Done:  E(RHF) =  -492.857953490     A.U. after   11 cycles
 SCF Done:  E(RHF) =  -492.858023258     A.U. after   11 cycles
 SCF Done:  E(RHF) =  -492.858032610     A.U. after   10 cycles
 SCF Done:  E(RHF) =  -492.858055435     A.U. after   11 cycles
 SCF Done:  E(RHF) =  -492.858083598     A.U. after   11 cycles
 SCF Done:  E(RHF) =  -492.858097703     A.U. after   10 cycles
 SCF Done:  E(RHF) =  -492.858104106     A.U. after   10 cycles
 SCF Done:  E(RHF) =  -492.858106427     A.U. after   10 cycles
 SCF Done:  E(RHF) =  -492.858107807     A.U. after    9 cycles
 SCF Done:  E(RHF) =  -492.858107954     A.U. after    8 cycles
 Optimization completed.
    -- Stationary point found.

                         Standard orientation:
 ---------------------------------------------------------------------
 Center     Atomic      Atomic             Coordinates (Angstroms)
 Number     Number       Type             X           Y           Z
 ---------------------------------------------------------------------
      1          1           0       -4.184925   -1.047635   -0.523219
      2          6           0       -3.275661   -1.210590    0.037079
      3          1           0       -2.882898   -2.197624   -0.177593
      4          1           0       -3.510115   -1.160837    1.096355
      5          6           0       -2.286367   -0.116845   -0.303020
      6          8           0       -2.633537    0.950294   -0.731189
      7          7           0       -0.982873   -0.436382   -0.099868
      8          1           0       -0.776287   -1.246791    0.443159
      9          6           0        0.061385    0.569471   -0.096658
     10          1           0        0.073639    1.047059   -1.068001
     11          6           0       -0.115100    1.637588    0.991065
     12          1           0       -0.123108    1.172554    1.970092
     13          1           0        0.703321    2.350926    0.957691
     14          1           0       -1.042070    2.171342    0.838810
     15          6           0        1.369529   -0.173024    0.160546
     16          8           0        1.433186   -1.011616    1.023049
     17          7           0        2.405028    0.175107   -0.623237
     18          1           0        2.253949    0.857837   -1.329334
     19          6           0        3.733924   -0.380726   -0.481957
     20          1           0        3.713843   -1.110084    0.311210
     21          1           0        4.044182   -0.865602   -1.400512
     22          1           0        4.451929    0.393118   -0.234144
 ---------------------------------------------------------------------

 The electronic state is 1-A.
 Alpha  occ. eigenvalues --  -20.53184 -20.52104 -15.59904 -15.57961 -11.35521
 Alpha  occ. eigenvalues --  -11.34528 -11.28091 -11.26456 -11.22916 -11.21856
 Alpha  occ. eigenvalues --   -1.40275  -1.38784  -1.24552  -1.23467  -1.05484
 Alpha  occ. eigenvalues --   -0.99145  -0.96624  -0.88279  -0.80356  -0.78185
 Alpha  occ. eigenvalues --   -0.73072  -0.67342  -0.66108  -0.64142  -0.63464
 Alpha  occ. eigenvalues --   -0.62142  -0.60476  -0.58500  -0.56916  -0.56685
 Alpha  occ. eigenvalues --   -0.55897  -0.54529  -0.52393  -0.52256  -0.49854
 Alpha  occ. eigenvalues --   -0.42848  -0.41655  -0.39958  -0.38655
 Alpha virt. eigenvalues --    0.18976   0.21023   0.21475   0.23850   0.26290
 Alpha virt. eigenvalues --    0.28383   0.29722   0.30772   0.30889   0.31618
 Alpha virt. eigenvalues --    0.31975   0.32459   0.34031   0.35331   0.36494

 Mulliken atomic charges:
              1
     1  H    0.212167
     2  C   -0.586566
     3  H    0.183333
     4  H    0.196924
     5  C    0.750988
     6  O   -0.611158
     7  N   -0.813362
     8  H    0.408840
     9  C   -0.014749
    10  H    0.200503
    11  C   -0.509987
    12  H    0.184286
    13  H    0.161020
    14  H    0.220332
    15  C    0.772006
    16  O   -0.635487
    17  N   -0.795936
    18  H    0.389019
    19  C   -0.291987
    20  H    0.230822
    21  H    0.175152
    22  H    0.173843
 Sum of Mulliken atomic charges =   0.00000

 Dipole moment (field-independent basis, Debye):
    X=              2.5095    Y=             -0.3463    Z=             -0.8744  Tot=              2.6800
 Quadrupole moment (field-independent basis, Debye-Ang):
   XX=            -56.3592   YY=            -61.6196   ZZ=            -61.9857
   XY=             11.3741   XZ=             -9.9351   YZ=              2.2978

 Normal termination of Gaussian 09 at Fri Feb 10 06:04:19 2017.
