 Gaussian 09, Revision A.02,
 Gaussian 09:  EM64L-G09RevA.02 11-Jun-2009

 -------------------------------------------
 # HF/6-31G* Opt=(ModRedundant) geom=nocrowd
 -------------------------------------------

 ------------------
 Phi Psi fixed scan
 ------------------
 Symbolic Z-matrix:
 Charge =  0 Multiplicity = 1

 SCF Done:  E(RHF) =  -492.842485778     A.U. after   15 cycles
 SCF Done:  E(RHF) =  -492.849963613     A.U. after   14 cycles
 SCF Done:  E(RHF) =  -492.850534688     A.U. after   13 cycles
 SCF Done:  E(RHF) =  -492.851229851     A.U. after   13 cycles
 SCF Done:  E(RHF) =  -492.852016804     A.U. after   13 cycles
 SCF Done:  E(RHF) =  -492.852569212     A.U. after   14 cycles
 SCF Done:  E(RHF) =  -492.852800815     A.U. after   13 cycles
 SCF Done:  E(RHF) =  -492.852895052     A.U. after   12 cycles
 SCF Done:  E(RHF) =  -492.852923978     A.U. after   11 cycles
 SCF Done:  E(RHF) =  -492.852945385     A.U. after   11 cycles
 SCF Done:  E(RHF) =  -492.853166667     A.U. after   14 cycles
 SCF Done:  E(RHF) =  -492.853101416     A.U. after   15 cycles
 SCF Done:  E(RHF) =  -492.853268457     A.U. after   14 cycles
 SCF Done:  E(RHF) =  -492.853243166     A.U. after   12 cycles
 SCF Done:  E(RHF) =  -492.853196872     A.U. after   12 cycles
 SCF Done:  E(RHF) =  -492.853288465     A.U. after   11 cycles
 SCF Done:  E(RHF) =  -492.853290862     A.U. after   10 cycles
 SCF Done:  E(RHF) =  -492.853293021     A.U. after   10 cycles
 SCF Done:  E(RHF) =  -492.853293065     A.U. after    7 cycles
 SCF Done:  E(RHF) =  -492.853293087     A.U. after    8 cycles
 Optimization completed.
    -- Stationary point found.

                         Standard orientation:
 ---------------------------------------------------------------------
 Center     Atomic      Atomic             Coordinates (Angstroms)
 Number     Number       Type             X           Y           Z
 ---------------------------------------------------------------------
      1          1           0       -3.983290   -1.457198    0.238812
      2          6           0       -3.043274   -1.263454    0.734276
      3          1           0       -2.552892   -2.200516    0.972436
      4          1           0       -3.242460   -0.739069    1.664410
      5          6           0       -2.187132   -0.391898   -0.158829
      6          8           0       -2.644253    0.249152   -1.061628
      7          7           0       -0.850090   -0.412285    0.125768
      8          1           0       -0.614283   -0.759080    1.031697
      9          6           0        0.039889    0.637535   -0.368978
     10          1           0        0.020933    0.594191   -1.449972
     11          6           0       -0.341368    2.042692    0.090913
     12          1           0       -0.313549    2.106182    1.170954
     13          1           0        0.363160    2.767297   -0.304540
     14          1           0       -1.329895    2.295613   -0.265295
     15          6           0        1.431620    0.267859    0.151449
     16          8           0        1.811647    0.620879    1.235551
     17          7           0        2.163374   -0.520349   -0.658878
     18          1           0        1.740870   -0.872923   -1.486089
     19          6           0        3.442489   -1.057705   -0.246954
     20          1           0        4.052814   -0.270205    0.170430
     21          1           0        3.330941   -1.836660    0.499731
     22          1           0        3.942176   -1.469606   -1.113446
 ---------------------------------------------------------------------

 The electronic state is 1-A.
 Alpha  occ. eigenvalues --  -20.53115 -20.53113 -15.59287 -15.59003 -11.35293
 Alpha  occ. eigenvalues --  -11.35020 -11.28042 -11.26320 -11.23620 -11.21013
 Alpha  occ. eigenvalues --   -1.40213  -1.39619  -1.24652  -1.23439  -1.05353
 Alpha  occ. eigenvalues --   -0.99380  -0.96621  -0.87843  -0.79597  -0.78768
 Alpha  occ. eigenvalues --   -0.73086  -0.67222  -0.66217  -0.65001  -0.62920
 Alpha  occ. eigenvalues --   -0.62414  -0.60437  -0.58908  -0.57334  -0.56637
 Alpha  occ. eigenvalues --   -0.55850  -0.53813  -0.52430  -0.51719  -0.50151
 Alpha  occ. eigenvalues --   -0.42899  -0.42198  -0.40253  -0.39057
 Alpha virt. eigenvalues --    0.19433   0.19540   0.21602   0.22449   0.26044
 Alpha virt. eigenvalues --    0.27884   0.28373   0.30409   0.30920   0.31378
 Alpha virt. eigenvalues --    0.32858   0.33010   0.33897   0.35581   0.37320

 Mulliken atomic charges:
              1
     1  H    0.216424
     2  C   -0.591226
     3  H    0.185155
     4  H    0.197309
     5  C    0.746601
     6  O   -0.594644
     7  N   -0.807907
     8  H    0.389333
     9  C   -0.024953
    10  H    0.204052
    11  C   -0.501187
    12  H    0.186434
    13  H    0.167538
    14  H    0.206847
    15  C    0.747349
    16  O   -0.611025
    17  N   -0.788478
    18  H    0.393079
    19  C   -0.274422
    20  H    0.205351
    21  H    0.176913
    22  H    0.171454
 Sum of Mulliken atomic charges =   0.00000

 Dipole moment (field-independent basis, Debye):
    X=              1.2053    Y=             -2.9141    Z=             -0.2467  Tot=              3.1631
 Quadrupole moment (field-independent basis, Debye-Ang):
   XX=            -62.3317   YY=            -58.1997   ZZ=            -62.9780
   XY=             -0.6050   XZ=            -14.0920   YZ=             -1.1399

 Normal termination of Gaussian 09 at Fri Feb 10 05:53:47 2017.
