 Gaussian 09, Revision A.02,
 Gaussian 09:  EM64L-G09RevA.02 11-Jun-2009

 -------------------------------------------
 # HF/6-31G* Opt=(ModRedundant) geom=nocrowd
 -------------------------------------------

 ------------------
 Phi Psi fixed scan
 ------------------
 Symbolic Z-matrix:
 Charge =  0 Multiplicity = 1

 SCF Done:  E(RHF) =  -492.850552990     A.U. after   15 cycles
 SCF Done:  E(RHF) =  -492.856428869     A.U. after   14 cycles
 SCF Done:  E(RHF) =  -492.857410251     A.U. after   13 cycles
 SCF Done:  E(RHF) =  -492.857619547     A.U. after   12 cycles
 SCF Done:  E(RHF) =  -492.857752047     A.U. after   12 cycles
 SCF Done:  E(RHF) =  -492.857817021     A.U. after   11 cycles
 SCF Done:  E(RHF) =  -492.857820408     A.U. after    9 cycles
 SCF Done:  E(RHF) =  -492.857827556     A.U. after    9 cycles
 SCF Done:  E(RHF) =  -492.857833772     A.U. after   10 cycles
 SCF Done:  E(RHF) =  -492.857847082     A.U. after   11 cycles
 SCF Done:  E(RHF) =  -492.858231560     A.U. after   11 cycles
 SCF Done:  E(RHF) =  -492.858249990     A.U. after   11 cycles
 SCF Done:  E(RHF) =  -492.858277694     A.U. after   10 cycles
 SCF Done:  E(RHF) =  -492.858308313     A.U. after   11 cycles
 SCF Done:  E(RHF) =  -492.858333400     A.U. after   12 cycles
 SCF Done:  E(RHF) =  -492.858352548     A.U. after   11 cycles
 SCF Done:  E(RHF) =  -492.858313106     A.U. after   11 cycles
 SCF Done:  E(RHF) =  -492.858355297     A.U. after   10 cycles
 SCF Done:  E(RHF) =  -492.858355597     A.U. after    9 cycles
 SCF Done:  E(RHF) =  -492.858356056     A.U. after    9 cycles
 Optimization completed.
    -- Stationary point found.

                         Standard orientation:
 ---------------------------------------------------------------------
 Center     Atomic      Atomic             Coordinates (Angstroms)
 Number     Number       Type             X           Y           Z
 ---------------------------------------------------------------------
      1          1           0       -4.182978   -1.064147   -0.441682
      2          6           0       -3.325738   -1.137652    0.213261
      3          1           0       -2.908074   -2.135691    0.157400
      4          1           0       -3.663677   -0.961170    1.229306
      5          6           0       -2.333682   -0.056716   -0.161230
      6          8           0       -2.696667    1.037160   -0.508559
      7          7           0       -1.035156   -0.407912   -0.067121
      8          1           0       -0.779328   -1.326710    0.218439
      9          6           0        0.064898    0.506750   -0.261705
     10          1           0        0.048064    0.887803   -1.278645
     11          6           0        0.020419    1.689535    0.719671
     12          1           0        0.118322    1.333762    1.739997
     13          1           0        0.821265    2.395207    0.527916
     14          1           0       -0.919391    2.209092    0.616291
     15          6           0        1.348780   -0.305942   -0.063329
     16          8           0        1.322154   -1.472802    0.232196
     17          7           0        2.501838    0.373185   -0.204017
     18          1           0        2.475853    1.303565   -0.549948
     19          6           0        3.786103   -0.288879   -0.098725
     20          1           0        3.829910   -0.864174    0.814519
     21          1           0        3.963123   -0.956707   -0.934150
     22          1           0        4.561556    0.464826   -0.078231
 ---------------------------------------------------------------------

 The electronic state is 1-A.
 Alpha  occ. eigenvalues --  -20.53872 -20.51363 -15.59711 -15.57650 -11.35773
 Alpha  occ. eigenvalues --  -11.34205 -11.28474 -11.26655 -11.22609 -11.22238
 Alpha  occ. eigenvalues --   -1.40832  -1.38200  -1.24556  -1.23344  -1.05651
 Alpha  occ. eigenvalues --   -0.98987  -0.96134  -0.89009  -0.80796  -0.77801
 Alpha  occ. eigenvalues --   -0.73125  -0.67707  -0.66034  -0.65028  -0.63420
 Alpha  occ. eigenvalues --   -0.61788  -0.59888  -0.58565  -0.56524  -0.56441
 Alpha  occ. eigenvalues --   -0.56137  -0.54831  -0.53044  -0.52322  -0.49485
 Alpha  occ. eigenvalues --   -0.43054  -0.41035  -0.40501  -0.38183
 Alpha virt. eigenvalues --    0.18560   0.20735   0.21589   0.24503   0.25906
 Alpha virt. eigenvalues --    0.28744   0.28784   0.29709   0.31446   0.31888
 Alpha virt. eigenvalues --    0.32857   0.33500   0.34468   0.35626   0.37452

 Mulliken atomic charges:
              1
     1  H    0.207913
     2  C   -0.577811
     3  H    0.175541
     4  H    0.199781
     5  C    0.761182
     6  O   -0.623506
     7  N   -0.838770
     8  H    0.425854
     9  C   -0.015314
    10  H    0.208895
    11  C   -0.501545
    12  H    0.172619
    13  H    0.147194
    14  H    0.236215
    15  C    0.775265
    16  O   -0.631420
    17  N   -0.798841
    18  H    0.390773
    19  C   -0.272260
    20  H    0.203856
    21  H    0.182573
    22  H    0.171808
 Sum of Mulliken atomic charges =   0.00000

 Dipole moment (field-independent basis, Debye):
    X=              3.1240    Y=              0.3770    Z=              0.1766  Tot=              3.1517
 Quadrupole moment (field-independent basis, Debye-Ang):
   XX=            -56.0301   YY=            -63.7901   ZZ=            -60.3081
   XY=             13.8756   XZ=             -5.6632   YZ=              0.7088

 Normal termination of Gaussian 09 at Fri Feb 10 06:15:35 2017.
