 Gaussian 09, Revision A.02,
 Gaussian 09:  EM64L-G09RevA.02 11-Jun-2009

 -------------------------------------------
 # HF/6-31G* Opt=(ModRedundant) geom=nocrowd
 -------------------------------------------

 ------------------
 Phi Psi fixed scan
 ------------------
 Symbolic Z-matrix:
 Charge =  0 Multiplicity = 1

 SCF Done:  E(RHF) =  -492.839232959     A.U. after   15 cycles
 SCF Done:  E(RHF) =  -492.846703250     A.U. after   14 cycles
 SCF Done:  E(RHF) =  -492.848310423     A.U. after   13 cycles
 SCF Done:  E(RHF) =  -492.849414886     A.U. after   13 cycles
 SCF Done:  E(RHF) =  -492.850580561     A.U. after   13 cycles
 SCF Done:  E(RHF) =  -492.850640097     A.U. after   16 cycles
 SCF Done:  E(RHF) =  -492.850941856     A.U. after   13 cycles
 SCF Done:  E(RHF) =  -492.851059625     A.U. after   11 cycles
 SCF Done:  E(RHF) =  -492.851172758     A.U. after   11 cycles
 SCF Done:  E(RHF) =  -492.851272753     A.U. after   12 cycles
 SCF Done:  E(RHF) =  -492.851363435     A.U. after   12 cycles
 SCF Done:  E(RHF) =  -492.851614301     A.U. after   13 cycles
 SCF Done:  E(RHF) =  -492.851672315     A.U. after   12 cycles
 SCF Done:  E(RHF) =  -492.851700918     A.U. after   11 cycles
 SCF Done:  E(RHF) =  -492.851711135     A.U. after   11 cycles
 SCF Done:  E(RHF) =  -492.851712803     A.U. after   10 cycles
 SCF Done:  E(RHF) =  -492.851713424     A.U. after    9 cycles
 SCF Done:  E(RHF) =  -492.851714169     A.U. after    9 cycles
 SCF Done:  E(RHF) =  -492.851715221     A.U. after   10 cycles
 SCF Done:  E(RHF) =  -492.851715468     A.U. after    9 cycles
 Optimization completed.
    -- Stationary point found.

                         Standard orientation:
 ---------------------------------------------------------------------
 Center     Atomic      Atomic             Coordinates (Angstroms)
 Number     Number       Type             X           Y           Z
 ---------------------------------------------------------------------
      1          1           0       -3.965516   -1.395188    0.303407
      2          6           0       -2.992812   -1.524932   -0.147987
      3          1           0       -3.131300   -1.775673   -1.195692
      4          1           0       -2.471924   -2.345474    0.332200
      5          6           0       -2.227471   -0.221369   -0.043499
      6          8           0       -2.783838    0.828703    0.100640
      7          7           0       -0.870863   -0.352551   -0.138594
      8          1           0       -0.555227   -1.212256   -0.531072
      9          6           0        0.035609    0.780072   -0.302735
     10          1           0       -0.155256    1.292411   -1.237482
     11          6           0       -0.056891    1.789192    0.850305
     12          1           0        0.116860    1.297140    1.802452
     13          1           0        0.699140    2.552852    0.710957
     14          1           0       -1.029878    2.252228    0.874590
     15          6           0        1.481761    0.294712   -0.375624
     16          8           0        2.299058    0.911121   -0.999833
     17          7           0        1.778598   -0.840315    0.304283
     18          1           0        1.125523   -1.145906    0.989767
     19          6           0        3.155341   -1.270985    0.445658
     20          1           0        3.629069   -1.283903   -0.524201
     21          1           0        3.723515   -0.613222    1.094906
     22          1           0        3.165861   -2.271681    0.857179
 ---------------------------------------------------------------------

 The electronic state is 1-A.
 Alpha  occ. eigenvalues --  -20.53415 -20.52991 -15.59484 -15.59338 -11.35770
 Alpha  occ. eigenvalues --  -11.35059 -11.28204 -11.26327 -11.23998 -11.21766
 Alpha  occ. eigenvalues --   -1.40324  -1.39801  -1.25595  -1.22977  -1.05916
 Alpha  occ. eigenvalues --   -0.99714  -0.96347  -0.88404  -0.79839  -0.78191
 Alpha  occ. eigenvalues --   -0.73691  -0.68607  -0.67398  -0.63567  -0.63223
 Alpha  occ. eigenvalues --   -0.62673  -0.60297  -0.59775  -0.57258  -0.56323
 Alpha  occ. eigenvalues --   -0.55938  -0.54553  -0.53072  -0.51768  -0.50241
 Alpha  occ. eigenvalues --   -0.43565  -0.41467  -0.40337  -0.39769
 Alpha virt. eigenvalues --    0.18241   0.19694   0.21272   0.23871   0.26847
 Alpha virt. eigenvalues --    0.27645   0.28219   0.29417   0.29886   0.31525
 Alpha virt. eigenvalues --    0.32712   0.33707   0.34155   0.35993   0.36770

 Mulliken atomic charges:
              1
     1  H    0.218569
     2  C   -0.589987
     3  H    0.198474
     4  H    0.177987
     5  C    0.751647
     6  O   -0.589599
     7  N   -0.844163
     8  H    0.387259
     9  C   -0.006678
    10  H    0.221348
    11  C   -0.509154
    12  H    0.155200
    13  H    0.190728
    14  H    0.235695
    15  C    0.732364
    16  O   -0.606299
    17  N   -0.793063
    18  H    0.391379
    19  C   -0.277348
    20  H    0.207492
    21  H    0.178731
    22  H    0.169416
 Sum of Mulliken atomic charges =   0.00000

 Dipole moment (field-independent basis, Debye):
    X=              0.1591    Y=             -4.7822    Z=              1.5388  Tot=              5.0262
 Quadrupole moment (field-independent basis, Debye-Ang):
   XX=            -69.7267   YY=            -58.7075   ZZ=            -60.4136
   XY=              1.5108   XZ=              7.3977   YZ=              1.3956

 Normal termination of Gaussian 09 at Fri Feb 10 07:03:49 2017.
