 Gaussian 09, Revision A.02,
 Gaussian 09:  EM64L-G09RevA.02 11-Jun-2009

 -------------------------------------------
 # HF/6-31G* Opt=(ModRedundant) geom=nocrowd
 -------------------------------------------

 ------------------
 Phi Psi fixed scan
 ------------------
 Symbolic Z-matrix:
 Charge =  0 Multiplicity = 1

 SCF Done:  E(RHF) =  -492.832788303     A.U. after   15 cycles
 SCF Done:  E(RHF) =  -492.841216366     A.U. after   16 cycles
 SCF Done:  E(RHF) =  -492.843785025     A.U. after   13 cycles
 SCF Done:  E(RHF) =  -492.845016873     A.U. after   13 cycles
 SCF Done:  E(RHF) =  -492.846988698     A.U. after   14 cycles
 SCF Done:  E(RHF) =  -492.848210459     A.U. after   13 cycles
 SCF Done:  E(RHF) =  -492.849254843     A.U. after   12 cycles
 SCF Done:  E(RHF) =  -492.849214840     A.U. after   13 cycles
 SCF Done:  E(RHF) =  -492.849530445     A.U. after   11 cycles
 SCF Done:  E(RHF) =  -492.849648522     A.U. after   11 cycles
 SCF Done:  E(RHF) =  -492.850273688     A.U. after   12 cycles
 SCF Done:  E(RHF) =  -492.850294799     A.U. after   11 cycles
 SCF Done:  E(RHF) =  -492.850310403     A.U. after   11 cycles
 SCF Done:  E(RHF) =  -492.850312832     A.U. after   10 cycles
 SCF Done:  E(RHF) =  -492.850314120     A.U. after    9 cycles
 SCF Done:  E(RHF) =  -492.850316291     A.U. after   10 cycles
 SCF Done:  E(RHF) =  -492.850318646     A.U. after   10 cycles
 SCF Done:  E(RHF) =  -492.850320091     A.U. after   10 cycles
 SCF Done:  E(RHF) =  -492.850320342     A.U. after    9 cycles
 SCF Done:  E(RHF) =  -492.850320359     A.U. after    8 cycles
 Optimization completed.
    -- Stationary point found.

                         Standard orientation:
 ---------------------------------------------------------------------
 Center     Atomic      Atomic             Coordinates (Angstroms)
 Number     Number       Type             X           Y           Z
 ---------------------------------------------------------------------
      1          1           0       -3.976953   -1.398205    0.272315
      2          6           0       -2.974592   -1.549934   -0.100146
      3          1           0       -3.037333   -1.883811   -1.131997
      4          1           0       -2.481146   -2.323303    0.477453
      5          6           0       -2.226119   -0.233538   -0.041635
      6          8           0       -2.796606    0.815160    0.031082
      7          7           0       -0.862233   -0.359944   -0.084199
      8          1           0       -0.550207   -1.221180   -0.478126
      9          6           0        0.035397    0.769580   -0.312041
     10          1           0       -0.134640    1.206614   -1.289373
     11          6           0       -0.109058    1.861728    0.756813
     12          1           0        0.042414    1.441350    1.746655
     13          1           0        0.641426    2.622103    0.582997
     14          1           0       -1.088798    2.308573    0.718691
     15          6           0        1.495944    0.317425   -0.305422
     16          8           0        2.341969    1.031011   -0.765749
     17          7           0        1.771200   -0.913002    0.200709
     18          1           0        1.111454   -1.289196    0.843903
     19          6           0        3.151553   -1.329948    0.359505
     20          1           0        3.672647   -1.206865   -0.577610
     21          1           0        3.669487   -0.751120    1.116857
     22          1           0        3.167216   -2.375591    0.637555
 ---------------------------------------------------------------------

 The electronic state is 1-A.
 Alpha  occ. eigenvalues --  -20.53657 -20.53037 -15.59482 -15.59398 -11.35875
 Alpha  occ. eigenvalues --  -11.35144 -11.28244 -11.26274 -11.24062 -11.21422
 Alpha  occ. eigenvalues --   -1.40485  -1.39934  -1.25662  -1.22976  -1.05804
 Alpha  occ. eigenvalues --   -0.99668  -0.96352  -0.88165  -0.79925  -0.77776
 Alpha  occ. eigenvalues --   -0.73768  -0.68732  -0.67511  -0.63718  -0.63162
 Alpha  occ. eigenvalues --   -0.62675  -0.60539  -0.59755  -0.57267  -0.56164
 Alpha  occ. eigenvalues --   -0.55659  -0.54279  -0.52844  -0.51741  -0.50147
 Alpha  occ. eigenvalues --   -0.43602  -0.41928  -0.40359  -0.39918
 Alpha virt. eigenvalues --    0.18097   0.19619   0.20880   0.24227   0.27317
 Alpha virt. eigenvalues --    0.27759   0.28228   0.29553   0.29996   0.31391
 Alpha virt. eigenvalues --    0.32816   0.33462   0.34392   0.35704   0.37149

 Mulliken atomic charges:
              1
     1  H    0.219526
     2  C   -0.591271
     3  H    0.195907
     4  H    0.180641
     5  C    0.749138
     6  O   -0.583840
     7  N   -0.842711
     8  H    0.384165
     9  C   -0.009784
    10  H    0.218411
    11  C   -0.509782
    12  H    0.156932
    13  H    0.196647
    14  H    0.233504
    15  C    0.741668
    16  O   -0.606002
    17  N   -0.799219
    18  H    0.389614
    19  C   -0.279365
    20  H    0.207577
    21  H    0.178805
    22  H    0.169438
 Sum of Mulliken atomic charges =   0.00000

 Dipole moment (field-independent basis, Debye):
    X=              0.0684    Y=             -5.0238    Z=              1.1680  Tot=              5.1583
 Quadrupole moment (field-independent basis, Debye-Ang):
   XX=            -70.1636   YY=            -58.9437   ZZ=            -59.7689
   XY=              0.7296   XZ=              5.7586   YZ=              1.0543

 Normal termination of Gaussian 09 at Fri Feb 10 07:06:38 2017.
