 Gaussian 09, Revision A.02,
 Gaussian 09:  EM64L-G09RevA.02 11-Jun-2009

 -------------------------------------------
 # HF/6-31G* Opt=(ModRedundant) geom=nocrowd
 -------------------------------------------

 ------------------
 Phi Psi fixed scan
 ------------------
 Symbolic Z-matrix:
 Charge =  0 Multiplicity = 1

 SCF Done:  E(RHF) =  -492.841642370     A.U. after   15 cycles
 SCF Done:  E(RHF) =  -492.849728652     A.U. after   14 cycles
 SCF Done:  E(RHF) =  -492.850405281     A.U. after   13 cycles
 SCF Done:  E(RHF) =  -492.851005535     A.U. after   13 cycles
 SCF Done:  E(RHF) =  -492.851604899     A.U. after   13 cycles
 SCF Done:  E(RHF) =  -492.851972066     A.U. after   13 cycles
 SCF Done:  E(RHF) =  -492.852195118     A.U. after   13 cycles
 SCF Done:  E(RHF) =  -492.852272404     A.U. after   12 cycles
 SCF Done:  E(RHF) =  -492.852313247     A.U. after   11 cycles
 SCF Done:  E(RHF) =  -492.852353203     A.U. after   11 cycles
 SCF Done:  E(RHF) =  -492.852376504     A.U. after   11 cycles
 SCF Done:  E(RHF) =  -492.852380295     A.U. after   10 cycles
 SCF Done:  E(RHF) =  -492.852383526     A.U. after   10 cycles
 SCF Done:  E(RHF) =  -492.852387419     A.U. after   11 cycles
 SCF Done:  E(RHF) =  -492.852387823     A.U. after   10 cycles
 SCF Done:  E(RHF) =  -492.852387841     A.U. after    7 cycles
 Optimization completed.
    -- Stationary point found.

                         Standard orientation:
 ---------------------------------------------------------------------
 Center     Atomic      Atomic             Coordinates (Angstroms)
 Number     Number       Type             X           Y           Z
 ---------------------------------------------------------------------
      1          1           0       -3.923536   -1.509854    0.298300
      2          6           0       -2.971568   -1.312045    0.768605
      3          1           0       -2.454496   -2.246061    0.957999
      4          1           0       -3.150656   -0.824071    1.722322
      5          6           0       -2.165830   -0.390746   -0.121946
      6          8           0       -2.669487    0.275063   -0.980151
      7          7           0       -0.818184   -0.396360    0.110729
      8          1           0       -0.540104   -0.804292    0.977513
      9          6           0        0.040804    0.687153   -0.371788
     10          1           0       -0.001093    0.675300   -1.454276
     11          6           0       -0.368268    2.066343    0.136665
     12          1           0       -0.329594    2.100899    1.218736
     13          1           0        0.313750    2.818009   -0.240539
     14          1           0       -1.368640    2.301393   -0.197508
     15          6           0        1.476186    0.358279    0.063403
     16          8           0        2.111257    1.085321    0.775259
     17          7           0        1.949395   -0.808316   -0.426113
     18          1           0        1.347140   -1.348017   -1.004945
     19          6           0        3.284001   -1.300553   -0.166197
     20          1           0        3.763698   -0.631999    0.530146
     21          1           0        3.249073   -2.295058    0.264954
     22          1           0        3.869871   -1.337176   -1.078332
 ---------------------------------------------------------------------

 The electronic state is 1-A.
 Alpha  occ. eigenvalues --  -20.53350 -20.53050 -15.59409 -15.59037 -11.35571
 Alpha  occ. eigenvalues --  -11.35129 -11.28127 -11.26149 -11.23928 -11.20724
 Alpha  occ. eigenvalues --   -1.40279  -1.39735  -1.25196  -1.23037  -1.05394
 Alpha  occ. eigenvalues --   -0.99476  -0.96712  -0.87611  -0.79394  -0.78985
 Alpha  occ. eigenvalues --   -0.73286  -0.67419  -0.66188  -0.65415  -0.62921
 Alpha  occ. eigenvalues --   -0.62379  -0.60540  -0.59307  -0.57586  -0.56153
 Alpha  occ. eigenvalues --   -0.55505  -0.53766  -0.52634  -0.51916  -0.50075
 Alpha  occ. eigenvalues --   -0.43164  -0.41991  -0.40655  -0.38762
 Alpha virt. eigenvalues --    0.18319   0.19767   0.22178   0.23369   0.26567
 Alpha virt. eigenvalues --    0.27707   0.28019   0.30113   0.30822   0.31737
 Alpha virt. eigenvalues --    0.32367   0.32950   0.33424   0.34795   0.36985

 Mulliken atomic charges:
              1
     1  H    0.218130
     2  C   -0.591512
     3  H    0.182306
     4  H    0.197769
     5  C    0.747657
     6  O   -0.590728
     7  N   -0.815102
     8  H    0.383216
     9  C   -0.036555
    10  H    0.215154
    11  C   -0.486869
    12  H    0.169829
    13  H    0.181027
    14  H    0.204275
    15  C    0.736064
    16  O   -0.603210
    17  N   -0.786637
    18  H    0.394010
    19  C   -0.287942
    20  H    0.227677
    21  H    0.168045
    22  H    0.173396
 Sum of Mulliken atomic charges =   0.00000

 Dipole moment (field-independent basis, Debye):
    X=              0.5589    Y=             -4.0082    Z=              0.7564  Tot=              4.1170
 Quadrupole moment (field-independent basis, Debye-Ang):
   XX=            -66.2386   YY=            -58.9593   ZZ=            -61.2025
   XY=             -2.6663   XZ=            -11.4645   YZ=             -1.7749

 Normal termination of Gaussian 09 at Fri Feb 10 05:46:38 2017.
