 Gaussian 09, Revision A.02,
 Gaussian 09:  EM64L-G09RevA.02 11-Jun-2009

 -------------------------------------------
 # HF/6-31G* Opt=(ModRedundant) geom=nocrowd
 -------------------------------------------

 ------------------
 Phi Psi fixed scan
 ------------------
 Symbolic Z-matrix:
 Charge =  0 Multiplicity = 1

 SCF Done:  E(RHF) =  -492.838095027     A.U. after   15 cycles
 SCF Done:  E(RHF) =  -492.846477360     A.U. after   14 cycles
 SCF Done:  E(RHF) =  -492.849471604     A.U. after   14 cycles
 SCF Done:  E(RHF) =  -492.851098443     A.U. after   14 cycles
 SCF Done:  E(RHF) =  -492.852033919     A.U. after   13 cycles
 SCF Done:  E(RHF) =  -492.852412916     A.U. after   13 cycles
 SCF Done:  E(RHF) =  -492.852442174     A.U. after   12 cycles
 SCF Done:  E(RHF) =  -492.852568122     A.U. after   12 cycles
 SCF Done:  E(RHF) =  -492.852662073     A.U. after   11 cycles
 SCF Done:  E(RHF) =  -492.852812376     A.U. after   12 cycles
 SCF Done:  E(RHF) =  -492.852921196     A.U. after   11 cycles
 SCF Done:  E(RHF) =  -492.853101008     A.U. after   12 cycles
 SCF Done:  E(RHF) =  -492.853156645     A.U. after   12 cycles
 SCF Done:  E(RHF) =  -492.853193249     A.U. after   11 cycles
 SCF Done:  E(RHF) =  -492.853200325     A.U. after   11 cycles
 SCF Done:  E(RHF) =  -492.853207396     A.U. after   10 cycles
 SCF Done:  E(RHF) =  -492.853214994     A.U. after   11 cycles
 SCF Done:  E(RHF) =  -492.853218478     A.U. after   11 cycles
 SCF Done:  E(RHF) =  -492.853218760     A.U. after    9 cycles
 Optimization completed.
    -- Stationary point found.

                         Standard orientation:
 ---------------------------------------------------------------------
 Center     Atomic      Atomic             Coordinates (Angstroms)
 Number     Number       Type             X           Y           Z
 ---------------------------------------------------------------------
      1          1           0       -3.950195   -1.465822    0.184899
      2          6           0       -2.968634   -1.371530    0.625447
      3          1           0       -2.475675   -2.337242    0.634078
      4          1           0       -3.080048   -1.038878    1.653495
      5          6           0       -2.177211   -0.342505   -0.152908
      6          8           0       -2.698437    0.454026   -0.877733
      7          7           0       -0.818550   -0.412779    0.014326
      8          1           0       -0.529434   -0.928222    0.818462
      9          6           0        0.038323    0.727889   -0.311805
     10          1           0       -0.046541    0.900868   -1.378763
     11          6           0       -0.336079    2.008939    0.433667
     12          1           0       -0.261138    1.861289    1.506528
     13          1           0        0.341194    2.805752    0.160980
     14          1           0       -1.346333    2.300343    0.185177
     15          6           0        1.500820    0.366303   -0.027646
     16          8           0        2.300809    1.198748    0.295169
     17          7           0        1.827250   -0.940720   -0.168601
     18          1           0        1.178712   -1.527414   -0.642168
     19          6           0        3.209726   -1.367501   -0.095866
     20          1           0        3.661887   -0.978758    0.804274
     21          1           0        3.237949   -2.448784   -0.066264
     22          1           0        3.788072   -1.020407   -0.945590
 ---------------------------------------------------------------------

 The electronic state is 1-A.
 Alpha  occ. eigenvalues --  -20.53621 -20.53065 -15.59459 -15.59076 -11.35748
 Alpha  occ. eigenvalues --  -11.35090 -11.28236 -11.26213 -11.24096 -11.20957
 Alpha  occ. eigenvalues --   -1.40476  -1.39889  -1.25530  -1.22860  -1.05469
 Alpha  occ. eigenvalues --   -0.99578  -0.96588  -0.87783  -0.79718  -0.78742
 Alpha  occ. eigenvalues --   -0.73552  -0.67649  -0.65642  -0.65520  -0.63093
 Alpha  occ. eigenvalues --   -0.62664  -0.60225  -0.59505  -0.57815  -0.56301
 Alpha  occ. eigenvalues --   -0.55748  -0.53966  -0.52628  -0.51802  -0.50011
 Alpha  occ. eigenvalues --   -0.43317  -0.42236  -0.40383  -0.39537
 Alpha virt. eigenvalues --    0.17992   0.19571   0.21806   0.24035   0.27075
 Alpha virt. eigenvalues --    0.27697   0.28097   0.29680   0.29988   0.31208
 Alpha virt. eigenvalues --    0.33113   0.33182   0.33805   0.34712   0.36993

 Mulliken atomic charges:
              1
     1  H    0.219269
     2  C   -0.592005
     3  H    0.182544
     4  H    0.196436
     5  C    0.748359
     6  O   -0.585764
     7  N   -0.828014
     8  H    0.380474
     9  C   -0.038589
    10  H    0.229794
    11  C   -0.495124
    12  H    0.155601
    13  H    0.200331
    14  H    0.206335
    15  C    0.747518
    16  O   -0.604735
    17  N   -0.796467
    18  H    0.396695
    19  C   -0.275182
    20  H    0.204853
    21  H    0.168983
    22  H    0.178689
 Sum of Mulliken atomic charges =   0.00000

 Dipole moment (field-independent basis, Debye):
    X=              0.1057    Y=             -4.5787    Z=              1.2439  Tot=              4.7458
 Quadrupole moment (field-independent basis, Debye-Ang):
   XX=            -68.6746   YY=            -59.0169   ZZ=            -60.1959
   XY=             -2.6988   XZ=             -8.7656   YZ=             -0.3836

 Normal termination of Gaussian 09 at Fri Feb 10 05:41:50 2017.
