 Gaussian 09, Revision A.02,
 Gaussian 09:  EM64L-G09RevA.02 11-Jun-2009

 -------------------------------------------
 # HF/6-31G* Opt=(ModRedundant) geom=nocrowd
 -------------------------------------------

 ------------------
 Phi Psi fixed scan
 ------------------
 Symbolic Z-matrix:
 Charge =  0 Multiplicity = 1

 SCF Done:  E(RHF) =  -492.851110121     A.U. after   15 cycles
 SCF Done:  E(RHF) =  -492.857097359     A.U. after   14 cycles
 SCF Done:  E(RHF) =  -492.858060524     A.U. after   13 cycles
 SCF Done:  E(RHF) =  -492.858352140     A.U. after   13 cycles
 SCF Done:  E(RHF) =  -492.858849497     A.U. after   12 cycles
 SCF Done:  E(RHF) =  -492.858969193     A.U. after   11 cycles
 SCF Done:  E(RHF) =  -492.858985638     A.U. after   11 cycles
 SCF Done:  E(RHF) =  -492.858989965     A.U. after   10 cycles
 SCF Done:  E(RHF) =  -492.858996394     A.U. after   10 cycles
 SCF Done:  E(RHF) =  -492.859008658     A.U. after   11 cycles
 SCF Done:  E(RHF) =  -492.859083793     A.U. after   10 cycles
 SCF Done:  E(RHF) =  -492.859083717     A.U. after   11 cycles
 SCF Done:  E(RHF) =  -492.859087770     A.U. after   10 cycles
 SCF Done:  E(RHF) =  -492.859087898     A.U. after    8 cycles
 SCF Done:  E(RHF) =  -492.859087939     A.U. after    8 cycles
 SCF Done:  E(RHF) =  -492.859087959     A.U. after    7 cycles
 SCF Done:  E(RHF) =  -492.859087986     A.U. after    7 cycles
 SCF Done:  E(RHF) =  -492.859088013     A.U. after    8 cycles
 SCF Done:  E(RHF) =  -492.859088057     A.U. after    7 cycles
 SCF Done:  E(RHF) =  -492.859088291     A.U. after   10 cycles
 Optimization completed.
    -- Stationary point found.

                         Standard orientation:
 ---------------------------------------------------------------------
 Center     Atomic      Atomic             Coordinates (Angstroms)
 Number     Number       Type             X           Y           Z
 ---------------------------------------------------------------------
      1          1           0       -4.211790   -0.972648   -0.554106
      2          6           0       -3.323321   -1.151616    0.034539
      3          1           0       -2.939376   -2.143399   -0.173555
      4          1           0       -3.594234   -1.102691    1.084782
      5          6           0       -2.311968   -0.065590   -0.263760
      6          8           0       -2.644507    1.035349   -0.614577
      7          7           0       -1.016504   -0.426452   -0.112949
      8          1           0       -0.799049   -1.295621    0.323475
      9          6           0        0.065383    0.532866   -0.126257
     10          1           0        0.074027    1.033692   -1.086756
     11          6           0       -0.038765    1.582872    0.991101
     12          1           0       -0.026996    1.096176    1.960329
     13          1           0        0.796054    2.275464    0.945865
     14          1           0       -0.956538    2.142313    0.884817
     15          6           0        1.356171   -0.258164    0.071666
     16          8           0        1.368831   -1.267984    0.727759
     17          7           0        2.449517    0.270840   -0.507170
     18          1           0        2.343050    1.095463   -1.051993
     19          6           0        3.777429   -0.286087   -0.362286
     20          1           0        3.704027   -1.192356    0.216365
     21          1           0        4.200121   -0.519756   -1.332704
     22          1           0        4.435449    0.408044    0.148844
 ---------------------------------------------------------------------

 The electronic state is 1-A.
 Alpha  occ. eigenvalues --  -20.53437 -20.51768 -15.59872 -15.57776 -11.35680
 Alpha  occ. eigenvalues --  -11.34358 -11.28194 -11.26500 -11.22766 -11.22096
 Alpha  occ. eigenvalues --   -1.40467  -1.38514  -1.24600  -1.23397  -1.05587
 Alpha  occ. eigenvalues --   -0.99097  -0.96498  -0.88497  -0.80515  -0.78071
 Alpha  occ. eigenvalues --   -0.73093  -0.67517  -0.66066  -0.64198  -0.63532
 Alpha  occ. eigenvalues --   -0.62042  -0.60435  -0.58516  -0.56817  -0.56580
 Alpha  occ. eigenvalues --   -0.55944  -0.54669  -0.52620  -0.52401  -0.49693
 Alpha  occ. eigenvalues --   -0.42938  -0.41392  -0.40152  -0.38391
 Alpha virt. eigenvalues --    0.18890   0.21050   0.21553   0.24158   0.26274
 Alpha virt. eigenvalues --    0.28501   0.29826   0.30324   0.31108   0.31296
 Alpha virt. eigenvalues --    0.31839   0.32918   0.34362   0.35170   0.36416

 Mulliken atomic charges:
              1
     1  H    0.210694
     2  C   -0.583741
     3  H    0.180565
     4  H    0.197813
     5  C    0.754981
     6  O   -0.617049
     7  N   -0.822651
     8  H    0.416114
     9  C   -0.015111
    10  H    0.201918
    11  C   -0.506532
    12  H    0.179890
    13  H    0.158252
    14  H    0.225971
    15  C    0.774912
    16  O   -0.634635
    17  N   -0.797978
    18  H    0.388056
    19  C   -0.290679
    20  H    0.230494
    21  H    0.174908
    22  H    0.173807
 Sum of Mulliken atomic charges =   0.00000

 Dipole moment (field-independent basis, Debye):
    X=              2.7643    Y=              0.0257    Z=             -0.4662  Tot=              2.8035
 Quadrupole moment (field-independent basis, Debye-Ang):
   XX=            -55.8262   YY=            -62.8663   ZZ=            -61.1734
   XY=             12.7890   XZ=             -7.8823   YZ=              1.9875

 Normal termination of Gaussian 09 at Fri Feb 10 06:07:01 2017.
