 Gaussian 09, Revision A.02,
 Gaussian 09:  EM64L-G09RevA.02 11-Jun-2009

 -------------------------------------------
 # HF/6-31G* Opt=(ModRedundant) geom=nocrowd
 -------------------------------------------

 ------------------
 Phi Psi fixed scan
 ------------------
 Symbolic Z-matrix:
 Charge =  0 Multiplicity = 1

 SCF Done:  E(RHF) =  -492.828405259     A.U. after   15 cycles
 SCF Done:  E(RHF) =  -492.838085467     A.U. after   14 cycles
 SCF Done:  E(RHF) =  -492.841544847     A.U. after   13 cycles
 SCF Done:  E(RHF) =  -492.842327721     A.U. after   13 cycles
 SCF Done:  E(RHF) =  -492.842584092     A.U. after   13 cycles
 SCF Done:  E(RHF) =  -492.843482303     A.U. after   13 cycles
 SCF Done:  E(RHF) =  -492.843386158     A.U. after   14 cycles
 SCF Done:  E(RHF) =  -492.844997715     A.U. after   13 cycles
 SCF Done:  E(RHF) =  -492.846630298     A.U. after   13 cycles
 SCF Done:  E(RHF) =  -492.847929616     A.U. after   13 cycles
 SCF Done:  E(RHF) =  -492.849674354     A.U. after   13 cycles
 SCF Done:  E(RHF) =  -492.849902248     A.U. after   12 cycles
 SCF Done:  E(RHF) =  -492.849995235     A.U. after   12 cycles
 SCF Done:  E(RHF) =  -492.850076744     A.U. after   11 cycles
 SCF Done:  E(RHF) =  -492.850090374     A.U. after   11 cycles
 SCF Done:  E(RHF) =  -492.850093227     A.U. after   10 cycles
 SCF Done:  E(RHF) =  -492.850093917     A.U. after    9 cycles
 SCF Done:  E(RHF) =  -492.850094428     A.U. after    8 cycles
 SCF Done:  E(RHF) =  -492.850094965     A.U. after   10 cycles
 SCF Done:  E(RHF) =  -492.850095038     A.U. after    8 cycles
 Optimization completed.
    -- Stationary point found.

                         Standard orientation:
 ---------------------------------------------------------------------
 Center     Atomic      Atomic             Coordinates (Angstroms)
 Number     Number       Type             X           Y           Z
 ---------------------------------------------------------------------
      1          1           0       -4.012064   -1.371931    0.071030
      2          6           0       -2.993812   -1.416211    0.427998
      3          1           0       -2.561682   -2.381155    0.187653
      4          1           0       -2.998858   -1.307239    1.508952
      5          6           0       -2.205233   -0.283106   -0.192352
      6          8           0       -2.731055    0.650853   -0.721434
      7          7           0       -0.838028   -0.430540   -0.130087
      8          1           0       -0.558249   -1.043523    0.607561
      9          6           0        0.025730    0.743779   -0.255708
     10          1           0       -0.130667    1.158017   -1.242400
     11          6           0       -0.262600    1.826658    0.791866
     12          1           0       -0.119916    1.433264    1.795052
     13          1           0        0.414620    2.657570    0.654938
     14          1           0       -1.279694    2.178109    0.694140
     15          6           0        1.505690    0.365217   -0.159814
     16          8           0        2.342866    1.222836   -0.174981
     17          7           0        1.813583   -0.947688    0.020753
     18          1           0        1.168963   -1.607029   -0.353337
     19          6           0        3.207725   -1.350747    0.033108
     20          1           0        3.740795   -0.774300    0.773729
     21          1           0        3.260998   -2.398954    0.296578
     22          1           0        3.687388   -1.198282   -0.927821
 ---------------------------------------------------------------------

 The electronic state is 1-A.
 Alpha  occ. eigenvalues --  -20.53964 -20.53115 -15.59476 -15.59285 -11.35907
 Alpha  occ. eigenvalues --  -11.35216 -11.28178 -11.26152 -11.24228 -11.21535
 Alpha  occ. eigenvalues --   -1.40730  -1.40049  -1.25658  -1.22948  -1.05569
 Alpha  occ. eigenvalues --   -0.99772  -0.96384  -0.88067  -0.79914  -0.78488
 Alpha  occ. eigenvalues --   -0.73709  -0.67847  -0.65602  -0.64887  -0.63461
 Alpha  occ. eigenvalues --   -0.63026  -0.59857  -0.59479  -0.58069  -0.56835
 Alpha  occ. eigenvalues --   -0.55625  -0.54626  -0.52765  -0.51700  -0.49984
 Alpha  occ. eigenvalues --   -0.43580  -0.42875  -0.40205  -0.39997
 Alpha virt. eigenvalues --    0.17983   0.19400   0.20853   0.24369   0.27025
 Alpha virt. eigenvalues --    0.27722   0.28384   0.29441   0.30253   0.31240
 Alpha virt. eigenvalues --    0.32712   0.33066   0.34029   0.34471   0.36924

 Mulliken atomic charges:
              1
     1  H    0.220639
     2  C   -0.593762
     3  H    0.185833
     4  H    0.193579
     5  C    0.744666
     6  O   -0.579063
     7  N   -0.819659
     8  H    0.373030
     9  C   -0.040062
    10  H    0.238973
    11  C   -0.510567
    12  H    0.152139
    13  H    0.210007
    14  H    0.209151
    15  C    0.758125
    16  O   -0.603251
    17  N   -0.803429
    18  H    0.389957
    19  C   -0.280474
    20  H    0.205962
    21  H    0.168905
    22  H    0.179302
 Sum of Mulliken atomic charges =   0.00000

 Dipole moment (field-independent basis, Debye):
    X=             -0.0628    Y=             -4.9526    Z=              1.7736  Tot=              5.2610
 Quadrupole moment (field-independent basis, Debye-Ang):
   XX=            -68.8957   YY=            -59.0674   ZZ=            -60.4753
   XY=             -1.7458   XZ=             -5.0359   YZ=              1.1123

 Normal termination of Gaussian 09 at Fri Feb 10 05:36:53 2017.
