 Gaussian 09, Revision A.02,
 Gaussian 09:  EM64L-G09RevA.02 11-Jun-2009

 -------------------------------------------
 # HF/6-31G* Opt=(ModRedundant) geom=nocrowd
 -------------------------------------------

 ------------------
 Phi Psi fixed scan
 ------------------
 Symbolic Z-matrix:
 Charge =  0 Multiplicity = 1

 SCF Done:  E(RHF) =  -492.832075065     A.U. after   15 cycles
 SCF Done:  E(RHF) =  -492.840682627     A.U. after   14 cycles
 SCF Done:  E(RHF) =  -492.843954684     A.U. after   13 cycles
 SCF Done:  E(RHF) =  -492.846459861     A.U. after   13 cycles
 SCF Done:  E(RHF) =  -492.849241673     A.U. after   14 cycles
 SCF Done:  E(RHF) =  -492.850684729     A.U. after   13 cycles
 SCF Done:  E(RHF) =  -492.851145364     A.U. after   13 cycles
 SCF Done:  E(RHF) =  -492.851075750     A.U. after   12 cycles
 SCF Done:  E(RHF) =  -492.851336256     A.U. after   12 cycles
 SCF Done:  E(RHF) =  -492.851463296     A.U. after   12 cycles
 SCF Done:  E(RHF) =  -492.851960258     A.U. after   13 cycles
 SCF Done:  E(RHF) =  -492.852077291     A.U. after   11 cycles
 SCF Done:  E(RHF) =  -492.852122654     A.U. after   11 cycles
 SCF Done:  E(RHF) =  -492.852129962     A.U. after   10 cycles
 SCF Done:  E(RHF) =  -492.852139216     A.U. after   11 cycles
 SCF Done:  E(RHF) =  -492.852143605     A.U. after   10 cycles
 SCF Done:  E(RHF) =  -492.852145034     A.U. after   10 cycles
 SCF Done:  E(RHF) =  -492.852145195     A.U. after    8 cycles
 SCF Done:  E(RHF) =  -492.852145282     A.U. after    8 cycles
 SCF Done:  E(RHF) =  -492.852145310     A.U. after    8 cycles
 Optimization completed.
    -- Stationary point found.

                         Standard orientation:
 ---------------------------------------------------------------------
 Center     Atomic      Atomic             Coordinates (Angstroms)
 Number     Number       Type             X           Y           Z
 ---------------------------------------------------------------------
      1          1           0       -3.977825   -1.422431    0.128576
      2          6           0       -2.976728   -1.396545    0.532875
      3          1           0       -2.510885   -2.369486    0.423161
      4          1           0       -3.035756   -1.167075    1.593073
      5          6           0       -2.188293   -0.315509   -0.174611
      6          8           0       -2.713601    0.549343   -0.811812
      7          7           0       -0.824084   -0.424533   -0.054379
      8          1           0       -0.539964   -0.983031    0.723229
      9          6           0        0.032781    0.739464   -0.282694
     10          1           0       -0.087095    1.030503   -1.319132
     11          6           0       -0.307643    1.934208    0.612664
     12          1           0       -0.205844    1.665817    1.660512
     13          1           0        0.370124    2.750528    0.408970
     14          1           0       -1.321642    2.259024    0.429252
     15          6           0        1.507030    0.369037   -0.090494
     16          8           0        2.337027    1.221470    0.056535
     17          7           0        1.811281   -0.953487   -0.066878
     18          1           0        1.157773   -1.572470   -0.490611
     19          6           0        3.198759   -1.373274   -0.034106
     20          1           0        3.703007   -0.885926    0.786590
     21          1           0        3.232491   -2.444234    0.117024
     22          1           0        3.722390   -1.125866   -0.951435
 ---------------------------------------------------------------------

 The electronic state is 1-A.
 Alpha  occ. eigenvalues --  -20.53816 -20.53046 -15.59466 -15.59177 -11.35843
 Alpha  occ. eigenvalues --  -11.35157 -11.28225 -11.26171 -11.24174 -11.21225
 Alpha  occ. eigenvalues --   -1.40615  -1.39954  -1.25625  -1.22880  -1.05509
 Alpha  occ. eigenvalues --   -0.99671  -0.96499  -0.87913  -0.79843  -0.78582
 Alpha  occ. eigenvalues --   -0.73650  -0.67762  -0.65576  -0.65237  -0.63259
 Alpha  occ. eigenvalues --   -0.62846  -0.60030  -0.59524  -0.57954  -0.56544
 Alpha  occ. eigenvalues --   -0.55684  -0.54322  -0.52716  -0.51700  -0.49991
 Alpha  occ. eigenvalues --   -0.43443  -0.42532  -0.40205  -0.39883
 Alpha virt. eigenvalues --    0.17969   0.19504   0.21368   0.24320   0.27213
 Alpha virt. eigenvalues --    0.27957   0.28026   0.29465   0.30054   0.31203
 Alpha virt. eigenvalues --    0.32859   0.33169   0.34151   0.34394   0.36898

 Mulliken atomic charges:
              1
     1  H    0.220003
     2  C   -0.592849
     3  H    0.184065
     4  H    0.195043
     5  C    0.746952
     6  O   -0.581999
     7  N   -0.826767
     8  H    0.377297
     9  C   -0.040532
    10  H    0.235660
    11  C   -0.503478
    12  H    0.152402
    13  H    0.207526
    14  H    0.207625
    15  C    0.756037
    16  O   -0.605010
    17  N   -0.802500
    18  H    0.394798
    19  C   -0.277703
    20  H    0.205653
    21  H    0.168928
    22  H    0.178848
 Sum of Mulliken atomic charges =   0.00000

 Dipole moment (field-independent basis, Debye):
    X=             -0.0228    Y=             -4.7659    Z=              1.5279  Tot=              5.0049
 Quadrupole moment (field-independent basis, Debye-Ang):
   XX=            -68.9971   YY=            -59.0664   ZZ=            -60.2091
   XY=             -2.3324   XZ=             -6.9689   YZ=              0.3785

 Normal termination of Gaussian 09 at Fri Feb 10 05:39:33 2017.
