 Gaussian 09, Revision A.02,
 Gaussian 09:  EM64L-G09RevA.02 11-Jun-2009

 -------------------------------------------
 # HF/6-31G* Opt=(ModRedundant) geom=nocrowd
 -------------------------------------------

 ------------------
 Phi Psi fixed scan
 ------------------
 Symbolic Z-matrix:
 Charge =  0 Multiplicity = 1

 SCF Done:  E(RHF) =  -492.838412469     A.U. after   15 cycles
 SCF Done:  E(RHF) =  -492.846690425     A.U. after   13 cycles
 SCF Done:  E(RHF) =  -492.847666101     A.U. after   13 cycles
 SCF Done:  E(RHF) =  -492.847778863     A.U. after   13 cycles
 SCF Done:  E(RHF) =  -492.847947691     A.U. after   12 cycles
 SCF Done:  E(RHF) =  -492.848024816     A.U. after   12 cycles
 SCF Done:  E(RHF) =  -492.848097285     A.U. after   13 cycles
 SCF Done:  E(RHF) =  -492.848144672     A.U. after   13 cycles
 SCF Done:  E(RHF) =  -492.848191123     A.U. after   12 cycles
 SCF Done:  E(RHF) =  -492.848275820     A.U. after   13 cycles
 SCF Done:  E(RHF) =  -492.848306717     A.U. after   11 cycles
 SCF Done:  E(RHF) =  -492.848328784     A.U. after   12 cycles
 SCF Done:  E(RHF) =  -492.848350744     A.U. after   11 cycles
 SCF Done:  E(RHF) =  -492.848364158     A.U. after   11 cycles
 SCF Done:  E(RHF) =  -492.848368867     A.U. after   10 cycles
 SCF Done:  E(RHF) =  -492.848383913     A.U. after   11 cycles
 SCF Done:  E(RHF) =  -492.848394553     A.U. after   11 cycles
 SCF Done:  E(RHF) =  -492.848396474     A.U. after   11 cycles
 SCF Done:  E(RHF) =  -492.848396630     A.U. after    9 cycles
 SCF Done:  E(RHF) =  -492.848396642     A.U. after    7 cycles
 Optimization completed.
    -- Stationary point found.

                         Standard orientation:
 ---------------------------------------------------------------------
 Center     Atomic      Atomic             Coordinates (Angstroms)
 Number     Number       Type             X           Y           Z
 ---------------------------------------------------------------------
      1          1           0        3.943343   -1.312317   -0.684223
      2          6           0        3.017991   -1.513977   -0.164473
      3          1           0        3.256294   -1.881034    0.829360
      4          1           0        2.463601   -2.283973   -0.688697
      5          6           0        2.236250   -0.221996   -0.040999
      6          8           0        2.775109    0.848465   -0.067376
      7          7           0        0.894616   -0.383141    0.117290
      8          1           0        0.582534   -1.303867    0.331629
      9          6           0       -0.028098    0.704779    0.435855
     10          1           0        0.174872    1.080475    1.430383
     11          6           0        0.038454    1.867863   -0.558151
     12          1           0       -0.020310    1.524135   -1.585632
     13          1           0       -0.786267    2.549087   -0.374935
     14          1           0        0.966970    2.403398   -0.444976
     15          6           0       -1.428411    0.085331    0.522132
     16          8           0       -1.948042   -0.107020    1.587744
     17          7           0       -2.005948   -0.235455   -0.654619
     18          1           0       -1.508915   -0.046096   -1.493204
     19          6           0       -3.323760   -0.823166   -0.758724
     20          1           0       -3.687641   -1.021708    0.236107
     21          1           0       -4.011708   -0.148769   -1.257158
     22          1           0       -3.284537   -1.753710   -1.314122
 ---------------------------------------------------------------------

 The electronic state is 1-A.
 Alpha  occ. eigenvalues --  -20.52935 -20.52854 -15.59304 -15.59268 -11.35392
 Alpha  occ. eigenvalues --  -11.35108 -11.28209 -11.26256 -11.23654 -11.22181
 Alpha  occ. eigenvalues --   -1.40009  -1.39466  -1.24975  -1.23278  -1.05888
 Alpha  occ. eigenvalues --   -0.99599  -0.96173  -0.89098  -0.79712  -0.78478
 Alpha  occ. eigenvalues --   -0.73205  -0.68433  -0.67004  -0.64367  -0.62889
 Alpha  occ. eigenvalues --   -0.62454  -0.59630  -0.59156  -0.57135  -0.56507
 Alpha  occ. eigenvalues --   -0.55750  -0.54754  -0.53762  -0.52191  -0.50534
 Alpha  occ. eigenvalues --   -0.43202  -0.41006  -0.40393  -0.38858
 Alpha virt. eigenvalues --    0.19031   0.19916   0.21651   0.22831   0.25958
 Alpha virt. eigenvalues --    0.27530   0.28466   0.30046   0.30791   0.31599
 Alpha virt. eigenvalues --    0.31942   0.33740   0.34101   0.35198   0.36851

 Mulliken atomic charges:
              1
     1  H    0.216046
     2  C   -0.588935
     3  H    0.201286
     4  H    0.176948
     5  C    0.753966
     6  O   -0.599481
     7  N   -0.831401
     8  H    0.392104
     9  C    0.003300
    10  H    0.223167
    11  C   -0.508483
    12  H    0.149492
    13  H    0.172543
    14  H    0.236074
    15  C    0.715371
    16  O   -0.604577
    17  N   -0.783810
    18  H    0.393503
    19  C   -0.288958
    20  H    0.229290
    21  H    0.173802
    22  H    0.168753
 Sum of Mulliken atomic charges =   0.00000

 Dipole moment (field-independent basis, Debye):
    X=             -1.1067    Y=             -2.6960    Z=             -3.0890  Tot=              4.2468
 Quadrupole moment (field-independent basis, Debye-Ang):
   XX=            -65.7381   YY=            -57.6656   ZZ=            -63.4146
   XY=             -7.3318   XZ=              8.5473   YZ=              0.6960

 Normal termination of Gaussian 09 at Fri Feb 10 06:55:39 2017.
