 Gaussian 09, Revision A.02,
 Gaussian 09:  EM64L-G09RevA.02 11-Jun-2009

 -------------------------------------------------------------------
 # HF/6-31G* Opt=(ModRedundant, maxcycles=1000, calcfc) geom=nocrowd
 -------------------------------------------------------------------

 ------------------
 Phi Psi fixed scan
 ------------------
 Symbolic Z-matrix:
 Charge =  0 Multiplicity = 1

 SCF Done:  E(RHF) =  -984.501576785     A.U. after   15 cycles

  Exact polarizability:   0.000   0.000   0.000   0.000   0.000   0.000
 Approx polarizability: 139.916   0.324 132.934   3.294  -6.948 117.429

 SCF Done:  E(RHF) =  -984.517067056     A.U. after   13 cycles
 SCF Done:  E(RHF) =  -984.537361700     A.U. after   14 cycles
 SCF Done:  E(RHF) =  -984.545708131     A.U. after   15 cycles
 SCF Done:  E(RHF) =  -984.549728643     A.U. after   16 cycles
 SCF Done:  E(RHF) =  -984.554046301     A.U. after   14 cycles
 SCF Done:  E(RHF) =  -984.556284348     A.U. after   15 cycles
 SCF Done:  E(RHF) =  -984.557192639     A.U. after   15 cycles
 SCF Done:  E(RHF) =  -984.558327681     A.U. after   15 cycles
 SCF Done:  E(RHF) =  -984.498272584     A.U. after   15 cycles
 SCF Done:  E(RHF) =  -984.558930342     A.U. after   11 cycles
 SCF Done:  E(RHF) =  -984.558934474     A.U. after   10 cycles
 SCF Done:  E(RHF) =  -984.558940316     A.U. after   10 cycles
 SCF Done:  E(RHF) =  -984.558946915     A.U. after   11 cycles
 SCF Done:  E(RHF) =  -984.558949318     A.U. after   10 cycles
 SCF Done:  E(RHF) =  -984.558951159     A.U. after   10 cycles
 SCF Done:  E(RHF) =  -984.558951674     A.U. after    9 cycles
 SCF Done:  E(RHF) =  -984.558951781     A.U. after    8 cycles
 SCF Done:  E(RHF) =  -984.558951817     A.U. after    7 cycles
 SCF Done:  E(RHF) =  -984.558951833     A.U. after    7 cycles
 Optimization completed.
    -- Stationary point found.

                         Standard orientation:
 ---------------------------------------------------------------------
 Center     Atomic      Atomic             Coordinates (Angstroms)
 Number     Number       Type             X           Y           Z
 ---------------------------------------------------------------------
      1          1           0       -6.113074   -1.960795   -0.978539
      2          6           0       -5.071143   -2.182872   -0.793213
      3          1           0       -4.558400   -2.342159   -1.734088
      4          1           0       -5.021228   -3.098194   -0.212584
      5          6           0       -4.472549   -1.058940    0.023852
      6          8           0       -5.093842   -0.504957    0.893027
      7          7           0       -3.195694   -0.737842   -0.271190
      8          1           0       -2.692472   -1.219459   -0.982234
      9          6           0       -2.475120    0.278850    0.452564
     10          1           0       -3.158983    1.089798    0.666368
     11          6           0       -1.888778   -0.250853    1.770424
     12          1           0       -1.182019   -1.049868    1.575521
     13          1           0       -1.378668    0.533341    2.321635
     14          1           0       -2.693570   -0.630374    2.385958
     15          6           0       -1.347283    0.770449   -0.445570
     16          8           0       -0.885940    0.068998   -1.311652
     17          7           0       -0.904509    2.019433   -0.200870
     18          1           0       -1.297044    2.478036    0.591652
     19          6           0        0.337703    2.604026   -0.700081
     20          1           0        0.304032    2.537290   -1.783067
     21          6           0        0.362880    4.077263   -0.304969
     22          1           0        0.400637    4.190267    0.774473
     23          1           0        1.234474    4.560860   -0.716339
     24          1           0       -0.528555    4.569821   -0.677022
     25          6           0        1.662406    1.916170   -0.307320
     26          8           0        2.656798    2.593590   -0.224660
     27          7           0        1.679736    0.591461   -0.090315
     28          1           0        0.916505    0.015211   -0.372561
     29          6           0        2.917850   -0.082487    0.236951
     30          1           0        3.708178    0.304090   -0.395791
     31          6           0        3.311237    0.126339    1.705389
     32          1           0        2.541925   -0.272667    2.356996
     33          1           0        4.248637   -0.371305    1.931645
     34          1           0        3.428576    1.183451    1.900723
     35          6           0        2.720734   -1.570886   -0.030773
     36          8           0        1.635562   -2.086426    0.030547
     37          7           0        3.845008   -2.266226   -0.284626
     38          1           0        4.694209   -1.772686   -0.432561
     39          6           0        3.814591   -3.691545   -0.539223
     40          1           0        3.355096   -3.916411   -1.494821
     41          1           0        4.829825   -4.064729   -0.538827
     42          1           0        3.254339   -4.194013    0.236185
 ---------------------------------------------------------------------

 The electronic state is 1-A.
 Alpha  occ. eigenvalues --  -20.54605 -20.53298 -20.52504 -20.51553 -15.60646
 Alpha  occ. eigenvalues --  -15.59516 -15.57973 -15.57728 -11.36586 -11.35270
 Alpha  occ. eigenvalues --  -11.34935 -11.34387 -11.29193 -11.28431 -11.28074
 Alpha  occ. eigenvalues --  -11.26456 -11.22919 -11.22755 -11.22430 -11.22292
 Alpha  occ. eigenvalues --   -1.41713  -1.40338  -1.39302  -1.38454  -1.25953
 Alpha  occ. eigenvalues --   -1.24274  -1.23718  -1.23324  -1.07406  -1.04851
 Alpha  occ. eigenvalues --   -1.03235  -0.98713  -0.96413  -0.91648  -0.89810
 Alpha  occ. eigenvalues --   -0.86704  -0.81890  -0.80167  -0.78813  -0.78472
 Alpha  occ. eigenvalues --   -0.75020  -0.72183  -0.69041  -0.68066  -0.67637
 Alpha  occ. eigenvalues --   -0.65691  -0.65170  -0.64095  -0.63644  -0.62948
 Alpha  occ. eigenvalues --   -0.61873  -0.61205  -0.60146  -0.59104  -0.58149
 Alpha  occ. eigenvalues --   -0.57749  -0.56810  -0.56152  -0.55718  -0.55609
 Alpha  occ. eigenvalues --   -0.55330  -0.54456  -0.54042  -0.53386  -0.52796
 Alpha  occ. eigenvalues --   -0.52524  -0.51891  -0.49787  -0.49769  -0.45077
 Alpha  occ. eigenvalues --   -0.43729  -0.42639  -0.41341  -0.40221  -0.39513
 Alpha  occ. eigenvalues --   -0.38439  -0.38249
 Alpha virt. eigenvalues --    0.17406   0.18595   0.19781   0.21129   0.21334
 Alpha virt. eigenvalues --    0.21855   0.24032   0.25853   0.26193   0.26840
 Alpha virt. eigenvalues --    0.28295   0.28891   0.29664   0.30098   0.30579

 Mulliken atomic charges:
              1
     1  H    0.208703
     2  C   -0.577425
     3  H    0.175818
     4  H    0.202553
     5  C    0.756435
     6  O   -0.622154
     7  N   -0.819758
     8  H    0.420551
     9  C   -0.036804
    10  H    0.222278
    11  C   -0.500642
    12  H    0.201140
    13  H    0.154540
    14  H    0.211561
    15  C    0.792855
    16  O   -0.647091
    17  N   -0.820596
    18  H    0.393680
    19  C   -0.033836
    20  H    0.229270
    21  C   -0.504403
    22  H    0.167324
    23  H    0.222613
    24  H    0.177300
    25  C    0.786397
    26  O   -0.632133
    27  N   -0.882188
    28  H    0.484914
    29  C   -0.011040
    30  H    0.205162
    31  C   -0.489491
    32  H    0.179693
    33  H    0.160228
    34  H    0.210385
    35  C    0.762763
    36  O   -0.622775
    37  N   -0.799815
    38  H    0.389175
    39  C   -0.272060
    40  H    0.184942
    41  H    0.170644
    42  H    0.201287
 Sum of Mulliken atomic charges =   0.00000

 Dipole moment (field-independent basis, Debye):
    X=              3.3668    Y=             -1.0395    Z=             -0.5912  Tot=              3.5729
 Quadrupole moment (field-independent basis, Debye-Ang):
   XX=           -122.4548   YY=           -112.5905   ZZ=           -120.8226
   XY=            -13.5766   XZ=              7.3107   YZ=              4.3802

 Normal termination of Gaussian 09 at Tue Dec 27 10:34:42 2016.
