 Gaussian 09, Revision A.02,
 Gaussian 09:  EM64L-G09RevA.02 11-Jun-2009

 -------------------------------------------------------------------
 # HF/6-31G* Opt=(ModRedundant, maxcycles=1000, calcfc) geom=nocrowd
 -------------------------------------------------------------------

 ------------------
 Phi Psi fixed scan
 ------------------
 Symbolic Z-matrix:
 Charge =  0 Multiplicity = 1

 SCF Done:  E(RHF) =  -984.507788609     A.U. after   15 cycles

  Exact polarizability:   0.000   0.000   0.000   0.000   0.000   0.000
 Approx polarizability: 130.191   1.671 135.427   0.164  14.021 124.113

 SCF Done:  E(RHF) =  -984.522001534     A.U. after   14 cycles
 SCF Done:  E(RHF) =  -984.538304858     A.U. after   16 cycles
 SCF Done:  E(RHF) =  -984.543065899     A.U. after   13 cycles
 SCF Done:  E(RHF) =  -984.544146061     A.U. after   15 cycles
 SCF Done:  E(RHF) =  -984.547773679     A.U. after   13 cycles
 SCF Done:  E(RHF) =  -984.550007235     A.U. after   14 cycles
 SCF Done:  E(RHF) =  -984.550489844     A.U. after   15 cycles
 SCF Done:  E(RHF) =  -984.550738168     A.U. after   14 cycles
 SCF Done:  E(RHF) =  -984.361267092     A.U. after   16 cycles
 SCF Done:  E(RHF) =  -984.551081573     A.U. after    9 cycles
 SCF Done:  E(RHF) =  -984.551081688     A.U. after    8 cycles
 SCF Done:  E(RHF) =  -984.551081759     A.U. after    8 cycles
 SCF Done:  E(RHF) =  -984.551081813     A.U. after    7 cycles
 SCF Done:  E(RHF) =  -984.551081865     A.U. after    7 cycles
 SCF Done:  E(RHF) =  -984.551081928     A.U. after    7 cycles
 SCF Done:  E(RHF) =  -984.551082001     A.U. after    8 cycles
 SCF Done:  E(RHF) =  -984.551082054     A.U. after    8 cycles
 SCF Done:  E(RHF) =  -984.551082063     A.U. after    6 cycles
 SCF Done:  E(RHF) =  -984.551082064     A.U. after    5 cycles
 Optimization completed.
    -- Stationary point found.

                         Standard orientation:
 ---------------------------------------------------------------------
 Center     Atomic      Atomic             Coordinates (Angstroms)
 Number     Number       Type             X           Y           Z
 ---------------------------------------------------------------------
      1          1           0        6.833228   -1.890732    0.888613
      2          6           0        6.398349   -0.908940    0.754819
      3          1           0        7.120318   -0.296092    0.226319
      4          1           0        6.203573   -0.464084    1.722951
      5          6           0        5.159097   -1.040494   -0.103955
      6          8           0        5.158234   -1.699049   -1.112201
      7          7           0        4.074822   -0.363534    0.321826
      8          1           0        4.108509    0.208888    1.135418
      9          6           0        2.844139   -0.332755   -0.427597
     10          1           0        3.085711   -0.258147   -1.481417
     11          6           0        1.998118   -1.593554   -0.196629
     12          1           0        1.702971   -1.664396    0.843704
     13          1           0        1.100088   -1.588766   -0.807071
     14          1           0        2.583531   -2.463042   -0.463682
     15          6           0        2.071110    0.908813    0.006438
     16          8           0        2.324277    1.482945    1.023167
     17          7           0        1.122550    1.338459   -0.887591
     18          1           0        0.993257    0.723425   -1.663489
     19          6           0       -0.111748    1.997311   -0.475779
     20          1           0        0.179509    2.821473    0.162368
     21          6           0       -0.805995    2.557416   -1.712909
     22          1           0       -1.093106    1.775521   -2.410837
     23          1           0       -1.694503    3.117847   -1.445713
     24          1           0       -0.128272    3.228130   -2.225785
     25          6           0       -0.954461    1.086995    0.440578
     26          8           0       -0.506311    0.662061    1.471310
     27          7           0       -2.190814    0.767200    0.012749
     28          1           0       -2.558211    1.100831   -0.848830
     29          6           0       -3.067112   -0.089258    0.776639
     30          1           0       -2.476834   -0.897877    1.189210
     31          6           0       -3.756260    0.661339    1.924187
     32          1           0       -4.367860    1.467334    1.533448
     33          1           0       -4.390569   -0.001718    2.503148
     34          1           0       -3.004080    1.076317    2.581629
     35          6           0       -4.104133   -0.649065   -0.193418
     36          8           0       -4.352475   -0.095556   -1.234156
     37          7           0       -4.739009   -1.762385    0.209543
     38          1           0       -4.430717   -2.222829    1.034104
     39          6           0       -5.761801   -2.392519   -0.600717
     40          1           0       -6.495644   -1.660909   -0.907111
     41          1           0       -5.340030   -2.849012   -1.488415
     42          1           0       -6.249331   -3.155279   -0.009173
 ---------------------------------------------------------------------

 The electronic state is 1-A.
 Alpha  occ. eigenvalues --  -20.54320 -20.53437 -20.52694 -20.51017 -15.60390
 Alpha  occ. eigenvalues --  -15.59297 -15.59091 -15.57391 -11.36248 -11.35241
 Alpha  occ. eigenvalues --  -11.35205 -11.33901 -11.28988 -11.28927 -11.27644
 Alpha  occ. eigenvalues --  -11.27149 -11.24121 -11.23111 -11.22403 -11.21941
 Alpha  occ. eigenvalues --   -1.41332  -1.40625  -1.39501  -1.37893  -1.25170
 Alpha  occ. eigenvalues --   -1.24980  -1.24345  -1.23035  -1.07672  -1.05129
 Alpha  occ. eigenvalues --   -1.02789  -0.98272  -0.97145  -0.91890  -0.90005
 Alpha  occ. eigenvalues --   -0.87327  -0.81529  -0.80259  -0.79601  -0.77910
 Alpha  occ. eigenvalues --   -0.75352  -0.71495  -0.68347  -0.68131  -0.67385
 Alpha  occ. eigenvalues --   -0.65276  -0.65112  -0.64393  -0.64274  -0.62782
 Alpha  occ. eigenvalues --   -0.61643  -0.61100  -0.60494  -0.59237  -0.58615
 Alpha  occ. eigenvalues --   -0.57763  -0.56906  -0.56672  -0.56428  -0.56034
 Alpha  occ. eigenvalues --   -0.55764  -0.54794  -0.54155  -0.53914  -0.52856
 Alpha  occ. eigenvalues --   -0.52329  -0.51811  -0.50381  -0.48982  -0.45019
 Alpha  occ. eigenvalues --   -0.43603  -0.42536  -0.41064  -0.40837  -0.39195
 Alpha  occ. eigenvalues --   -0.38473  -0.37989
 Alpha virt. eigenvalues --    0.17075   0.18682   0.19422   0.20425   0.21654
 Alpha virt. eigenvalues --    0.22647   0.23774   0.24621   0.25523   0.27310
 Alpha virt. eigenvalues --    0.27694   0.28592   0.29032   0.29405   0.30299

 Mulliken atomic charges:
              1
     1  H    0.205226
     2  C   -0.574761
     3  H    0.202526
     4  H    0.173761
     5  C    0.756865
     6  O   -0.625976
     7  N   -0.822073
     8  H    0.421274
     9  C   -0.046779
    10  H    0.217080
    11  C   -0.488444
    12  H    0.193511
    13  H    0.145048
    14  H    0.211028
    15  C    0.804467
    16  O   -0.596185
    17  N   -0.803104
    18  H    0.375164
    19  C   -0.044837
    20  H    0.238642
    21  C   -0.529544
    22  H    0.170720
    23  H    0.188603
    24  H    0.206576
    25  C    0.776000
    26  O   -0.614292
    27  N   -0.853477
    28  H    0.434904
    29  C   -0.029879
    30  H    0.214809
    31  C   -0.486943
    32  H    0.178288
    33  H    0.160820
    34  H    0.215081
    35  C    0.776670
    36  O   -0.632789
    37  N   -0.799471
    38  H    0.391682
    39  C   -0.272879
    40  H    0.202783
    41  H    0.186057
    42  H    0.173846
 Sum of Mulliken atomic charges =   0.00000

 Dipole moment (field-independent basis, Debye):
    X=             -4.9554    Y=             -1.0339    Z=              0.5168  Tot=              5.0884
 Quadrupole moment (field-independent basis, Debye-Ang):
   XX=           -115.0530   YY=           -115.4154   ZZ=           -126.0381
   XY=             16.8583   XZ=              0.2552   YZ=            -11.2297

 Normal termination of Gaussian 09 at Tue Dec 27 09:28:29 2016.
