 Gaussian 09, Revision A.02,
 Gaussian 09:  EM64L-G09RevA.02 11-Jun-2009

 -------------------------------------------------------------------
 # HF/6-31G* Opt=(ModRedundant, maxcycles=1000, calcfc) geom=nocrowd
 -------------------------------------------------------------------

 ------------------
 Phi Psi fixed scan
 ------------------
 Symbolic Z-matrix:
 Charge =  0 Multiplicity = 1

 SCF Done:  E(RHF) =  -984.520434902     A.U. after   15 cycles

  Exact polarizability:   0.000   0.000   0.000   0.000   0.000   0.000
 Approx polarizability: 124.667   0.940 116.373  -0.781  -0.732 148.140

 SCF Done:  E(RHF) =  -984.531461138     A.U. after   13 cycles
 SCF Done:  E(RHF) =  -984.543971275     A.U. after   13 cycles
 SCF Done:  E(RHF) =  -984.547497250     A.U. after   16 cycles
 SCF Done:  E(RHF) =  -984.550395338     A.U. after   13 cycles
 SCF Done:  E(RHF) =  -984.551720058     A.U. after   15 cycles
 SCF Done:  E(RHF) =  -984.549246718     A.U. after   15 cycles
 SCF Done:  E(RHF) =  -984.551817823     A.U. after   15 cycles
 SCF Done:  E(RHF) =  -984.369101612     A.U. after   16 cycles
 SCF Done:  E(RHF) =  -984.552032319     A.U. after   16 cycles
 SCF Done:  E(RHF) =  -984.552330722     A.U. after   10 cycles
 SCF Done:  E(RHF) =  -984.552331710     A.U. after    9 cycles
 SCF Done:  E(RHF) =  -984.552332252     A.U. after    9 cycles
 SCF Done:  E(RHF) =  -984.552332299     A.U. after    7 cycles
 SCF Done:  E(RHF) =  -984.552332312     A.U. after    7 cycles
 SCF Done:  E(RHF) =  -984.552332334     A.U. after    7 cycles
 SCF Done:  E(RHF) =  -984.552332348     A.U. after    7 cycles
 SCF Done:  E(RHF) =  -984.552332354     A.U. after    6 cycles
 SCF Done:  E(RHF) =  -984.552332364     A.U. after    7 cycles
 SCF Done:  E(RHF) =  -984.552332369     A.U. after    7 cycles
 Optimization completed.
    -- Stationary point found.

                         Standard orientation:
 ---------------------------------------------------------------------
 Center     Atomic      Atomic             Coordinates (Angstroms)
 Number     Number       Type             X           Y           Z
 ---------------------------------------------------------------------
      1          1           0        6.603895    1.934174   -1.043268
      2          6           0        6.157708    0.953151   -0.947099
      3          1           0        6.894252    0.296597   -0.496941
      4          1           0        5.903758    0.572427   -1.928783
      5          6           0        4.968068    1.050430   -0.016883
      6          8           0        5.027414    1.655148    1.022519
      7          7           0        3.854975    0.403852   -0.416883
      8          1           0        3.834602   -0.116360   -1.265291
      9          6           0        2.665008    0.348833    0.394738
     10          1           0        2.961208    0.225075    1.429138
     11          6           0        1.821079    1.625229    0.265675
     12          1           0        1.503363    1.762787   -0.762195
     13          1           0        0.938566    1.587258    0.897242
     14          1           0        2.417755    2.475779    0.566678
     15          6           0        1.857100   -0.864958   -0.058567
     16          8           0        2.007233   -1.348676   -1.143164
     17          7           0        0.986388   -1.345896    0.869235
     18          1           0        0.892666   -0.802936    1.699613
     19          6           0       -0.137410   -2.226380    0.566153
     20          1           0        0.261031   -3.065093    0.013799
     21          6           0       -0.744439   -2.730790    1.871115
     22          1           0       -1.078577   -1.921675    2.514592
     23          1           0       -1.594243   -3.373399    1.675063
     24          1           0       -0.002074   -3.300509    2.417178
     25          6           0       -1.133839   -1.583156   -0.415085
     26          8           0       -1.036833   -1.746176   -1.598943
     27          7           0       -2.138342   -0.866458    0.135654
     28          1           0       -2.178124   -0.683545    1.112650
     29          6           0       -3.090544   -0.141380   -0.670865
     30          1           0       -2.576886    0.245346   -1.542639
     31          6           0       -4.247380   -1.037128   -1.132964
     32          1           0       -4.790023   -1.423917   -0.277217
     33          1           0       -4.942606   -0.493739   -1.764357
     34          1           0       -3.847357   -1.867374   -1.699700
     35          6           0       -3.608894    1.021353    0.172512
     36          8           0       -3.493038    1.030247    1.371815
     37          7           0       -4.226004    2.003633   -0.505567
     38          1           0       -4.210791    1.987936   -1.498806
     39          6           0       -4.773879    3.165359    0.164969
     40          1           0       -5.404162    2.856486    0.986514
     41          1           0       -3.991176    3.805956    0.554129
     42          1           0       -5.367879    3.725092   -0.544487
 ---------------------------------------------------------------------

 The electronic state is 1-A.
 Alpha  occ. eigenvalues --  -20.54229 -20.53731 -20.52563 -20.51318 -15.60242
 Alpha  occ. eigenvalues --  -15.59949 -15.58568 -15.57745 -11.36122 -11.35592
 Alpha  occ. eigenvalues --  -11.34752 -11.34197 -11.28776 -11.28742 -11.28044
 Alpha  occ. eigenvalues --  -11.27043 -11.24285 -11.22964 -11.22640 -11.22466
 Alpha  occ. eigenvalues --   -1.41200  -1.40823  -1.39365  -1.38208  -1.25422
 Alpha  occ. eigenvalues --   -1.25029  -1.23956  -1.23367  -1.07756  -1.05182
 Alpha  occ. eigenvalues --   -1.03065  -0.98587  -0.96999  -0.91939  -0.90053
 Alpha  occ. eigenvalues --   -0.87441  -0.81606  -0.80741  -0.79216  -0.78386
 Alpha  occ. eigenvalues --   -0.75180  -0.71871  -0.68617  -0.67998  -0.67002
 Alpha  occ. eigenvalues --   -0.65422  -0.65283  -0.64668  -0.63883  -0.63034
 Alpha  occ. eigenvalues --   -0.62133  -0.61225  -0.60381  -0.59028  -0.58906
 Alpha  occ. eigenvalues --   -0.57841  -0.56885  -0.56798  -0.56465  -0.56394
 Alpha  occ. eigenvalues --   -0.55781  -0.54607  -0.54050  -0.53808  -0.53460
 Alpha  occ. eigenvalues --   -0.52704  -0.51971  -0.50569  -0.49365  -0.44598
 Alpha  occ. eigenvalues --   -0.43491  -0.42822  -0.41136  -0.40930  -0.39173
 Alpha  occ. eigenvalues --   -0.38520  -0.38111
 Alpha virt. eigenvalues --    0.17897   0.18760   0.19296   0.20510   0.20756
 Alpha virt. eigenvalues --    0.21523   0.24103   0.24510   0.25571   0.27330
 Alpha virt. eigenvalues --    0.27549   0.28093   0.28560   0.29061   0.30064

 Mulliken atomic charges:
              1
     1  H    0.206137
     2  C   -0.575054
     3  H    0.203464
     4  H    0.174043
     5  C    0.756490
     6  O   -0.624367
     7  N   -0.823050
     8  H    0.420897
     9  C   -0.039455
    10  H    0.218191
    11  C   -0.491540
    12  H    0.180092
    13  H    0.154332
    14  H    0.215126
    15  C    0.787991
    16  O   -0.594347
    17  N   -0.825052
    18  H    0.383385
    19  C   -0.034327
    20  H    0.240910
    21  C   -0.514815
    22  H    0.161196
    23  H    0.196361
    24  H    0.197668
    25  C    0.771608
    26  O   -0.599312
    27  N   -0.839794
    28  H    0.423335
    29  C   -0.035688
    30  H    0.217195
    31  C   -0.481338
    32  H    0.176921
    33  H    0.158195
    34  H    0.211831
    35  C    0.775142
    36  O   -0.634863
    37  N   -0.798391
    38  H    0.391760
    39  C   -0.272533
    40  H    0.202518
    41  H    0.185568
    42  H    0.173572
 Sum of Mulliken atomic charges =   0.00000

 Dipole moment (field-independent basis, Debye):
    X=             -4.2542    Y=              1.0795    Z=             -0.2755  Tot=              4.3977
 Quadrupole moment (field-independent basis, Debye-Ang):
   XX=           -112.3645   YY=           -117.6711   ZZ=           -126.1536
   XY=            -13.6861   XZ=             -0.9713   YZ=            -19.0158

 Normal termination of Gaussian 09 at Tue Dec 27 09:42:05 2016.
