 Gaussian 09, Revision A.02,
 Gaussian 09:  EM64L-G09RevA.02 11-Jun-2009

 -------------------------------------------------------------------
 # HF/6-31G* Opt=(ModRedundant, maxcycles=1000, calcfc) geom=nocrowd
 -------------------------------------------------------------------

 ------------------
 Phi Psi fixed scan
 ------------------
 Symbolic Z-matrix:
 Charge =  0 Multiplicity = 1

 SCF Done:  E(RHF) =  -984.542387099     A.U. after   15 cycles

  Exact polarizability:   0.000   0.000   0.000   0.000   0.000   0.000
 Approx polarizability: 126.223   3.325 124.409  13.156   1.458 138.236

 SCF Done:  E(RHF) =  -984.550800036     A.U. after   13 cycles
 SCF Done:  E(RHF) =  -984.559641623     A.U. after   13 cycles
 SCF Done:  E(RHF) =  -984.561721144     A.U. after   13 cycles
 SCF Done:  E(RHF) =  -984.563752875     A.U. after   13 cycles
 SCF Done:  E(RHF) =  -984.564049450     A.U. after   14 cycles
 SCF Done:  E(RHF) =  -984.563943983     A.U. after   14 cycles
 SCF Done:  E(RHF) =  -984.346976248     A.U. after   14 cycles
 SCF Done:  E(RHF) =  -984.353217538     A.U. after   11 cycles
 SCF Done:  E(RHF) =  -984.564179390     A.U. after   14 cycles
 SCF Done:  E(RHF) =  -984.564792676     A.U. after   12 cycles
 SCF Done:  E(RHF) =  -984.564824191     A.U. after   12 cycles
 SCF Done:  E(RHF) =  -984.564826380     A.U. after   10 cycles
 SCF Done:  E(RHF) =  -984.564827447     A.U. after   10 cycles
 SCF Done:  E(RHF) =  -984.564828374     A.U. after    9 cycles
 SCF Done:  E(RHF) =  -984.564829253     A.U. after    9 cycles
 SCF Done:  E(RHF) =  -984.564829970     A.U. after    9 cycles
 SCF Done:  E(RHF) =  -984.564830274     A.U. after    9 cycles
 SCF Done:  E(RHF) =  -984.564830342     A.U. after    9 cycles
 SCF Done:  E(RHF) =  -984.564830346     A.U. after    7 cycles
 Optimization completed.
    -- Stationary point found.

                         Standard orientation:
 ---------------------------------------------------------------------
 Center     Atomic      Atomic             Coordinates (Angstroms)
 Number     Number       Type             X           Y           Z
 ---------------------------------------------------------------------
      1          1           0        5.333539    2.534305   -0.958791
      2          6           0        5.215259    1.501908   -1.269659
      3          1           0        6.202786    1.079418   -1.398778
      4          1           0        4.684746    1.481038   -2.213835
      5          6           0        4.505063    0.745933   -0.167780
      6          8           0        5.063373    0.451256    0.857075
      7          7           0        3.210076    0.449538   -0.399193
      8          1           0        2.783752    0.650040   -1.275667
      9          6           0        2.410479   -0.281902    0.551897
     10          1           0        3.029483   -1.054359    0.992596
     11          6           0        1.868382    0.619273    1.670715
     12          1           0        1.196261    1.369728    1.271634
     13          1           0        1.329982    0.044046    2.417409
     14          1           0        2.700409    1.108812    2.158790
     15          6           0        1.268347   -0.935633   -0.220016
     16          8           0        0.959717   -0.582567   -1.327019
     17          7           0        0.607540   -1.918661    0.432524
     18          1           0        0.948821   -2.221390    1.316424
     19          6           0       -0.486218   -2.656760   -0.174704
     20          1           0       -0.143979   -3.109946   -1.095400
     21          6           0       -0.961348   -3.750306    0.781434
     22          1           0       -1.326012   -3.325599    1.711641
     23          1           0       -1.764632   -4.310775    0.322082
     24          1           0       -0.151158   -4.436424    1.006363
     25          6           0       -1.677523   -1.794849   -0.595478
     26          8           0       -2.396688   -2.178650   -1.479813
     27          7           0       -1.913522   -0.682240    0.120018
     28          1           0       -1.241707   -0.353029    0.775650
     29          6           0       -2.945177    0.253963   -0.254776
     30          1           0       -3.043016    0.235991   -1.333146
     31          6           0       -4.297883   -0.102388    0.374367
     32          1           0       -4.227974   -0.081363    1.456461
     33          1           0       -5.073580    0.590562    0.065319
     34          1           0       -4.582258   -1.098375    0.060704
     35          6           0       -2.492015    1.640579    0.194374
     36          8           0       -1.669699    1.784671    1.063458
     37          7           0       -3.102107    2.675451   -0.408794
     38          1           0       -3.679478    2.497919   -1.197710
     39          6           0       -2.768740    4.048178   -0.088375
     40          1           0       -2.777871    4.188226    0.982712
     41          1           0       -1.788125    4.319409   -0.462590
     42          1           0       -3.509280    4.697496   -0.535350
 ---------------------------------------------------------------------

 The electronic state is 1-A.
 Alpha  occ. eigenvalues --  -20.54411 -20.53806 -20.52000 -20.51451 -15.60352
 Alpha  occ. eigenvalues --  -15.59836 -15.57905 -15.57869 -11.36198 -11.35690
 Alpha  occ. eigenvalues --  -11.34428 -11.34312 -11.28601 -11.28237 -11.28222
 Alpha  occ. eigenvalues --  -11.26700 -11.23942 -11.22770 -11.22591 -11.21986
 Alpha  occ. eigenvalues --   -1.41465  -1.40688  -1.38874  -1.38355  -1.25961
 Alpha  occ. eigenvalues --   -1.24625  -1.23595  -1.23358  -1.07555  -1.04913
 Alpha  occ. eigenvalues --   -1.03227  -0.98624  -0.96671  -0.91727  -0.89734
 Alpha  occ. eigenvalues --   -0.87136  -0.81992  -0.80591  -0.78714  -0.78560
 Alpha  occ. eigenvalues --   -0.74548  -0.72460  -0.69232  -0.67543  -0.67029
 Alpha  occ. eigenvalues --   -0.65741  -0.65402  -0.64605  -0.63293  -0.62840
 Alpha  occ. eigenvalues --   -0.62093  -0.61165  -0.60069  -0.59074  -0.58146
 Alpha  occ. eigenvalues --   -0.57906  -0.57128  -0.56663  -0.56409  -0.55953
 Alpha  occ. eigenvalues --   -0.55685  -0.54583  -0.54382  -0.53467  -0.52817
 Alpha  occ. eigenvalues --   -0.52439  -0.51760  -0.49929  -0.49195  -0.43870
 Alpha  occ. eigenvalues --   -0.43409  -0.42955  -0.41254  -0.40552  -0.39857
 Alpha  occ. eigenvalues --   -0.38467  -0.38229
 Alpha virt. eigenvalues --    0.18177   0.18552   0.20225   0.20537   0.21076
 Alpha virt. eigenvalues --    0.21406   0.24049   0.25581   0.26044   0.26920
 Alpha virt. eigenvalues --    0.28254   0.28662   0.29031   0.29847   0.30322

 Mulliken atomic charges:
              1
     1  H    0.202806
     2  C   -0.575180
     3  H    0.207502
     4  H    0.173087
     5  C    0.755401
     6  O   -0.622497
     7  N   -0.822725
     8  H    0.419504
     9  C   -0.031923
    10  H    0.216110
    11  C   -0.497617
    12  H    0.205472
    13  H    0.151932
    14  H    0.211150
    15  C    0.785579
    16  O   -0.623565
    17  N   -0.856653
    18  H    0.396302
    19  C   -0.000553
    20  H    0.232160
    21  C   -0.525118
    22  H    0.176169
    23  H    0.215254
    24  H    0.179804
    25  C    0.790786
    26  O   -0.635970
    27  N   -0.823823
    28  H    0.428548
    29  C   -0.035509
    30  H    0.219310
    31  C   -0.480266
    32  H    0.176921
    33  H    0.158747
    34  H    0.206569
    35  C    0.778686
    36  O   -0.637242
    37  N   -0.796408
    38  H    0.390816
    39  C   -0.273514
    40  H    0.203516
    41  H    0.183752
    42  H    0.172680
 Sum of Mulliken atomic charges =   0.00000

 Dipole moment (field-independent basis, Debye):
    X=             -2.9229    Y=              1.5489    Z=              0.1382  Tot=              3.3108
 Quadrupole moment (field-independent basis, Debye-Ang):
   XX=           -127.0871   YY=           -105.0705   ZZ=           -125.6603
   XY=            -12.5935   XZ=            -11.0538   YZ=            -17.5365

 Normal termination of Gaussian 09 at Tue Dec 27 10:50:15 2016.
