 Gaussian 09, Revision A.02,
 Gaussian 09:  EM64L-G09RevA.02 11-Jun-2009

 -------------------------------------------------------------------
 # HF/6-31G* Opt=(ModRedundant, maxcycles=1000, calcfc) geom=nocrowd
 -------------------------------------------------------------------

 ------------------
 Phi Psi fixed scan
 ------------------
 Symbolic Z-matrix:
 Charge =  0 Multiplicity = 1

 SCF Done:  E(RHF) =  -984.543234114     A.U. after   15 cycles

  Exact polarizability:   0.000   0.000   0.000   0.000   0.000   0.000
 Approx polarizability: 132.031 -10.796 128.583  -2.363   3.228 127.718

 SCF Done:  E(RHF) =  -984.550769983     A.U. after   13 cycles
 SCF Done:  E(RHF) =  -984.558551477     A.U. after   13 cycles
 SCF Done:  E(RHF) =  -984.560411365     A.U. after   13 cycles
 SCF Done:  E(RHF) =  -984.563196106     A.U. after   13 cycles
 SCF Done:  E(RHF) =  -984.564239443     A.U. after   15 cycles
 SCF Done:  E(RHF) =  -984.551438584     A.U. after   14 cycles
 SCF Done:  E(RHF) =  -984.564417440     A.U. after   15 cycles
 SCF Done:  E(RHF) =  -984.564585685     A.U. after   13 cycles
 SCF Done:  E(RHF) =  -984.564590447     A.U. after   13 cycles
 SCF Done:  E(RHF) =  -984.561297729     A.U. after   13 cycles
 SCF Done:  E(RHF) =  -984.563603183     A.U. after   12 cycles
 SCF Done:  E(RHF) =  -984.564917856     A.U. after   12 cycles
 SCF Done:  E(RHF) =  -984.564918910     A.U. after   10 cycles
 SCF Done:  E(RHF) =  -984.564919339     A.U. after   10 cycles
 SCF Done:  E(RHF) =  -984.564919508     A.U. after   10 cycles
 SCF Done:  E(RHF) =  -984.564919536     A.U. after    9 cycles
 SCF Done:  E(RHF) =  -984.564919652     A.U. after    8 cycles
 SCF Done:  E(RHF) =  -984.564919505     A.U. after    8 cycles
 SCF Done:  E(RHF) =  -984.564919676     A.U. after    8 cycles
 Optimization completed.
    -- Stationary point found.

                         Standard orientation:
 ---------------------------------------------------------------------
 Center     Atomic      Atomic             Coordinates (Angstroms)
 Number     Number       Type             X           Y           Z
 ---------------------------------------------------------------------
      1          1           0       -6.294615   -2.306663   -1.382874
      2          6           0       -5.410709   -2.469720   -0.780941
      3          1           0       -4.652244   -2.964183   -1.375611
      4          1           0       -5.685238   -3.118581    0.043849
      5          6           0       -4.956157   -1.140658   -0.217861
      6          8           0       -5.738543   -0.343282    0.229763
      7          7           0       -3.625386   -0.921510   -0.231977
      8          1           0       -2.996053   -1.589955   -0.615744
      9          6           0       -3.040850    0.292165    0.283323
     10          1           0       -3.683642    1.119811    0.012922
     11          6           0       -2.879498    0.257772    1.810060
     12          1           0       -2.245349   -0.572031    2.101683
     13          1           0       -2.434878    1.173842    2.185136
     14          1           0       -3.853158    0.134784    2.265567
     15          6           0       -1.679213    0.462598   -0.377184
     16          8           0       -1.054750   -0.479435   -0.793078
     17          7           0       -1.218823    1.729949   -0.456496
     18          1           0       -1.699776    2.427200    0.067131
     19          6           0        0.166808    2.010201   -0.790351
     20          1           0        0.358404    1.585381   -1.766796
     21          6           0        0.388205    3.517897   -0.838440
     22          1           0        0.222200    3.956986    0.138148
     23          1           0        1.406466    3.738608   -1.137343
     24          1           0       -0.284586    3.973089   -1.556665
     25          6           0        1.106387    1.376842    0.242430
     26          8           0        1.055712    1.714373    1.398548
     27          7           0        1.980945    0.478429   -0.232318
     28          1           0        1.861806    0.102603   -1.147285
     29          6           0        2.885666   -0.241310    0.632802
     30          1           0        3.286743    0.461948    1.350810
     31          6           0        2.190302   -1.386691    1.381495
     32          1           0        1.768542   -2.093245    0.676024
     33          1           0        2.888532   -1.912022    2.025334
     34          1           0        1.393250   -0.984331    1.992328
     35          6           0        4.004769   -0.795849   -0.242804
     36          8           0        3.814869   -1.076448   -1.397183
     37          7           0        5.183598   -0.996608    0.374224
     38          1           0        5.309423   -0.652942    1.297644
     39          6           0        6.326290   -1.543947   -0.327333
     40          1           0        6.035530   -2.432055   -0.869598
     41          1           0        6.740787   -0.832038   -1.031917
     42          1           0        7.085218   -1.805483    0.397663
 ---------------------------------------------------------------------

 The electronic state is 1-A.
 Alpha  occ. eigenvalues --  -20.54330 -20.53312 -20.52517 -20.51467 -15.59888
 Alpha  occ. eigenvalues --  -15.59636 -15.58383 -15.57964 -11.35999 -11.35313
 Alpha  occ. eigenvalues --  -11.34681 -11.34350 -11.28701 -11.28214 -11.28145
 Alpha  occ. eigenvalues --  -11.26535 -11.23461 -11.22795 -11.22224 -11.22224
 Alpha  occ. eigenvalues --   -1.41320  -1.40361  -1.39161  -1.38377  -1.25345
 Alpha  occ. eigenvalues --   -1.24387  -1.24061  -1.23551  -1.07510  -1.04993
 Alpha  occ. eigenvalues --   -1.03008  -0.98682  -0.96492  -0.91781  -0.89857
 Alpha  occ. eigenvalues --   -0.86501  -0.81636  -0.80097  -0.78887  -0.78566
 Alpha  occ. eigenvalues --   -0.74959  -0.71853  -0.69459  -0.67996  -0.66891
 Alpha  occ. eigenvalues --   -0.65737  -0.64770  -0.64307  -0.63285  -0.62879
 Alpha  occ. eigenvalues --   -0.61678  -0.60843  -0.60395  -0.59485  -0.59082
 Alpha  occ. eigenvalues --   -0.58044  -0.56803  -0.56230  -0.56197  -0.55816
 Alpha  occ. eigenvalues --   -0.54768  -0.54448  -0.53640  -0.53115  -0.52688
 Alpha  occ. eigenvalues --   -0.52566  -0.52083  -0.50427  -0.49471  -0.44216
 Alpha  occ. eigenvalues --   -0.43365  -0.42812  -0.41280  -0.40303  -0.39872
 Alpha  occ. eigenvalues --   -0.38396  -0.38228
 Alpha virt. eigenvalues --    0.18033   0.18787   0.20121   0.21045   0.21147
 Alpha virt. eigenvalues --    0.21938   0.23834   0.24710   0.26104   0.26504
 Alpha virt. eigenvalues --    0.27483   0.28837   0.29370   0.29820   0.30268

 Mulliken atomic charges:
              1
     1  H    0.208365
     2  C   -0.576143
     3  H    0.173350
     4  H    0.202505
     5  C    0.756955
     6  O   -0.621686
     7  N   -0.823122
     8  H    0.416987
     9  C   -0.036086
    10  H    0.222081
    11  C   -0.491146
    12  H    0.178950
    13  H    0.170087
    14  H    0.210559
    15  C    0.791216
    16  O   -0.637822
    17  N   -0.800845
    18  H    0.394744
    19  C   -0.032383
    20  H    0.211443
    21  C   -0.516652
    22  H    0.196376
    23  H    0.188484
    24  H    0.184628
    25  C    0.795735
    26  O   -0.645833
    27  N   -0.811411
    28  H    0.427485
    29  C   -0.044615
    30  H    0.209893
    31  C   -0.487237
    32  H    0.191545
    33  H    0.158793
    34  H    0.206549
    35  C    0.781642
    36  O   -0.627210
    37  N   -0.800617
    38  H    0.388953
    39  C   -0.272606
    40  H    0.203732
    41  H    0.183380
    42  H    0.170976
 Sum of Mulliken atomic charges =   0.00000

 Dipole moment (field-independent basis, Debye):
    X=              4.3106    Y=             -0.0543    Z=              0.6771  Tot=              4.3637
 Quadrupole moment (field-independent basis, Debye-Ang):
   XX=           -119.0116   YY=           -110.0714   ZZ=           -124.3617
   XY=              2.9369   XZ=             14.4092   YZ=             -7.6750

 Normal termination of Gaussian 09 at Tue Dec 27 11:14:42 2016.
