 Gaussian 09, Revision A.02,
 Gaussian 09:  EM64L-G09RevA.02 11-Jun-2009

 -------------------------------------------------------------------
 # HF/6-31G* Opt=(ModRedundant, maxcycles=1000, calcfc) geom=nocrowd
 -------------------------------------------------------------------

 ------------------
 Phi Psi fixed scan
 ------------------
 Symbolic Z-matrix:
 Charge =  0 Multiplicity = 1

 SCF Done:  E(RHF) =  -984.536415375     A.U. after   15 cycles

  Exact polarizability:   0.000   0.000   0.000   0.000   0.000   0.000
 Approx polarizability: 132.199  -8.092 132.869   1.843   7.808 123.973

 SCF Done:  E(RHF) =  -984.545091647     A.U. after   13 cycles
 SCF Done:  E(RHF) =  -984.554503281     A.U. after   13 cycles
 SCF Done:  E(RHF) =  -984.557186551     A.U. after   13 cycles
 SCF Done:  E(RHF) =  -984.560312332     A.U. after   13 cycles
 SCF Done:  E(RHF) =  -984.561427780     A.U. after   15 cycles
 SCF Done:  E(RHF) =  -984.510654235     A.U. after   15 cycles
 SCF Done:  E(RHF) =  -984.562008018     A.U. after   15 cycles
 SCF Done:  E(RHF) =  -984.523462993     A.U. after   15 cycles
 SCF Done:  E(RHF) =  -984.562397555     A.U. after   15 cycles
 SCF Done:  E(RHF) =  -984.562552653     A.U. after   10 cycles
 SCF Done:  E(RHF) =  -984.562554220     A.U. after   10 cycles
 SCF Done:  E(RHF) =  -984.562556089     A.U. after    9 cycles
 SCF Done:  E(RHF) =  -984.562559675     A.U. after   10 cycles
 SCF Done:  E(RHF) =  -984.562563758     A.U. after   10 cycles
 SCF Done:  E(RHF) =  -984.562566358     A.U. after   10 cycles
 SCF Done:  E(RHF) =  -984.562566879     A.U. after    8 cycles
 SCF Done:  E(RHF) =  -984.562567133     A.U. after    9 cycles
 SCF Done:  E(RHF) =  -984.562567179     A.U. after    7 cycles
 SCF Done:  E(RHF) =  -984.562567198     A.U. after    7 cycles
 Optimization completed.
    -- Stationary point found.

                         Standard orientation:
 ---------------------------------------------------------------------
 Center     Atomic      Atomic             Coordinates (Angstroms)
 Number     Number       Type             X           Y           Z
 ---------------------------------------------------------------------
      1          1           0       -5.716816   -3.162435   -0.002573
      2          6           0       -5.080504   -2.644733   -0.708520
      3          1           0       -5.663673   -2.456944   -1.603057
      4          1           0       -4.237576   -3.274688   -0.964743
      5          6           0       -4.676605   -1.314722   -0.110845
      6          8           0       -5.485414   -0.572997    0.383237
      7          7           0       -3.364461   -1.010114   -0.183059
      8          1           0       -2.713424   -1.627134   -0.614007
      9          6           0       -2.843271    0.245739    0.296381
     10          1           0       -3.552760    1.025359    0.049993
     11          6           0       -2.617060    0.236917    1.815233
     12          1           0       -1.905422   -0.535440    2.085829
     13          1           0       -2.239834    1.191559    2.168464
     14          1           0       -3.557807    0.036900    2.310294
     15          6           0       -1.526467    0.503870   -0.426843
     16          8           0       -0.878293   -0.399022   -0.891686
     17          7           0       -1.156802    1.799051   -0.515553
     18          1           0       -1.699369    2.456476    0.000321
     19          6           0        0.184373    2.244259   -0.887050
     20          1           0        0.391586    1.835541   -1.868352
     21          6           0        0.204944    3.763962   -0.957427
     22          1           0        0.026246    4.196229    0.019033
     23          1           0        1.172928    4.110515   -1.297177
     24          1           0       -0.549735    4.112982   -1.653560
     25          6           0        1.257836    1.728179    0.087950
     26          8           0        1.578409    2.381305    1.049659
     27          7           0        1.809178    0.543797   -0.215112
     28          1           0        1.378978   -0.039144   -0.901479
     29          6           0        2.778768   -0.082578    0.652764
     30          1           0        3.418159    0.696463    1.044957
     31          6           0        2.120589   -0.828954    1.820986
     32          1           0        1.456682   -1.598995    1.444674
     33          1           0        2.866237   -1.294857    2.457271
     34          1           0        1.548947   -0.129740    2.418106
     35          6           0        3.592136   -1.058789   -0.190769
     36          8           0        3.103158   -1.641288   -1.121512
     37          7           0        4.860575   -1.261362    0.215739
     38          1           0        5.243567   -0.665533    0.912113
     39          6           0        5.744204   -2.173801   -0.479474
     40          1           0        5.241123   -3.114863   -0.647520
     41          1           0        6.057355   -1.776472   -1.438482
     42          1           0        6.618641   -2.345454    0.133882
 ---------------------------------------------------------------------

 The electronic state is 1-A.
 Alpha  occ. eigenvalues --  -20.54853 -20.52923 -20.52584 -20.51690 -15.60636
 Alpha  occ. eigenvalues --  -15.59334 -15.58244 -15.57925 -11.36637 -11.34948
 Alpha  occ. eigenvalues --  -11.34715 -11.34586 -11.28966 -11.28613 -11.27959
 Alpha  occ. eigenvalues --  -11.26291 -11.23095 -11.22950 -11.22780 -11.22334
 Alpha  occ. eigenvalues --   -1.41773  -1.40050  -1.39155  -1.38629  -1.25872
 Alpha  occ. eigenvalues --   -1.24090  -1.23907  -1.23626  -1.07630  -1.04984
 Alpha  occ. eigenvalues --   -1.03184  -0.98928  -0.96308  -0.91865  -0.90017
 Alpha  occ. eigenvalues --   -0.86478  -0.81933  -0.79848  -0.79044  -0.78489
 Alpha  occ. eigenvalues --   -0.74924  -0.72146  -0.69207  -0.68490  -0.66688
 Alpha  occ. eigenvalues --   -0.65995  -0.65146  -0.64082  -0.63666  -0.63002
 Alpha  occ. eigenvalues --   -0.61778  -0.60519  -0.60266  -0.59490  -0.59169
 Alpha  occ. eigenvalues --   -0.58344  -0.56957  -0.56059  -0.55952  -0.55677
 Alpha  occ. eigenvalues --   -0.54950  -0.54489  -0.53805  -0.53263  -0.53046
 Alpha  occ. eigenvalues --   -0.52560  -0.52068  -0.50470  -0.49782  -0.45114
 Alpha  occ. eigenvalues --   -0.43813  -0.42504  -0.41512  -0.40019  -0.39663
 Alpha  occ. eigenvalues --   -0.38632  -0.37972
 Alpha virt. eigenvalues --    0.17677   0.18580   0.19763   0.21034   0.21444
 Alpha virt. eigenvalues --    0.21707   0.23684   0.25032   0.25613   0.26277
 Alpha virt. eigenvalues --    0.27836   0.28790   0.29683   0.30112   0.30358

 Mulliken atomic charges:
              1
     1  H    0.207213
     2  C   -0.575061
     3  H    0.205178
     4  H    0.173673
     5  C    0.757252
     6  O   -0.622027
     7  N   -0.824205
     8  H    0.419962
     9  C   -0.037555
    10  H    0.222846
    11  C   -0.492287
    12  H    0.179076
    13  H    0.162852
    14  H    0.215799
    15  C    0.795542
    16  O   -0.639479
    17  N   -0.813868
    18  H    0.394833
    19  C   -0.032852
    20  H    0.214667
    21  C   -0.505602
    22  H    0.196246
    23  H    0.190606
    24  H    0.178204
    25  C    0.773527
    26  O   -0.635751
    27  N   -0.815273
    28  H    0.450513
    29  C   -0.045638
    30  H    0.211564
    31  C   -0.491584
    32  H    0.189612
    33  H    0.163043
    34  H    0.198950
    35  C    0.780427
    36  O   -0.620866
    37  N   -0.800371
    38  H    0.387636
    39  C   -0.273031
    40  H    0.204307
    41  H    0.181924
    42  H    0.170002
 Sum of Mulliken atomic charges =   0.00000

 Dipole moment (field-independent basis, Debye):
    X=              3.5706    Y=             -0.0123    Z=              0.3661  Tot=              3.5894
 Quadrupole moment (field-independent basis, Debye-Ang):
   XX=           -117.5012   YY=           -115.0344   ZZ=           -122.5461
   XY=             -1.4572   XZ=             10.4566   YZ=             -8.4606

 Normal termination of Gaussian 09 at Tue Dec 27 10:00:00 2016.
