 Gaussian 09, Revision A.02,
 Gaussian 09:  EM64L-G09RevA.02 11-Jun-2009

 -------------------------------------------------------------------
 # HF/6-31G* Opt=(ModRedundant, maxcycles=1000, calcfc) geom=nocrowd
 -------------------------------------------------------------------

 ------------------
 Phi Psi fixed scan
 ------------------
 Symbolic Z-matrix:
 Charge =  0 Multiplicity = 1

 SCF Done:  E(RHF) =  -984.512880334     A.U. after   15 cycles

  Exact polarizability:   0.000   0.000   0.000   0.000   0.000   0.000
 Approx polarizability: 136.033  -2.000 135.646   2.354   7.904 118.150

 SCF Done:  E(RHF) =  -984.525637031     A.U. after   13 cycles
 SCF Done:  E(RHF) =  -984.542175118     A.U. after   13 cycles
 SCF Done:  E(RHF) =  -984.547242992     A.U. after   13 cycles
 SCF Done:  E(RHF) =  -984.551186215     A.U. after   13 cycles
 SCF Done:  E(RHF) =  -984.554282986     A.U. after   15 cycles
 SCF Done:  E(RHF) =  -984.557385330     A.U. after   15 cycles
 SCF Done:  E(RHF) =  -984.397014643     A.U. after   16 cycles
 SCF Done:  E(RHF) =  -984.558559064     A.U. after   15 cycles
 SCF Done:  E(RHF) =  -984.558290508     A.U. after   13 cycles
 SCF Done:  E(RHF) =  -984.559929749     A.U. after   10 cycles
 SCF Done:  E(RHF) =  -984.559930815     A.U. after   10 cycles
 SCF Done:  E(RHF) =  -984.559931305     A.U. after    8 cycles
 SCF Done:  E(RHF) =  -984.559931787     A.U. after    9 cycles
 SCF Done:  E(RHF) =  -984.559932029     A.U. after    8 cycles
 SCF Done:  E(RHF) =  -984.559932144     A.U. after    8 cycles
 SCF Done:  E(RHF) =  -984.559932208     A.U. after    8 cycles
 SCF Done:  E(RHF) =  -984.559932252     A.U. after    8 cycles
 SCF Done:  E(RHF) =  -984.559932271     A.U. after    8 cycles
 SCF Done:  E(RHF) =  -984.559932277     A.U. after    7 cycles
 Optimization completed.
    -- Stationary point found.

                         Standard orientation:
 ---------------------------------------------------------------------
 Center     Atomic      Atomic             Coordinates (Angstroms)
 Number     Number       Type             X           Y           Z
 ---------------------------------------------------------------------
      1          1           0       -5.663093   -3.117976   -0.001481
      2          6           0       -5.016268   -2.583833   -0.684635
      3          1           0       -5.597621   -2.333289   -1.565334
      4          1           0       -4.193182   -3.222829   -0.980125
      5          6           0       -4.567595   -1.299149   -0.023438
      6          8           0       -5.335499   -0.596235    0.580604
      7          7           0       -3.264466   -0.984303   -0.174361
      8          1           0       -2.647302   -1.568279   -0.692869
      9          6           0       -2.708386    0.237822    0.349411
     10          1           0       -3.435226    1.028607    0.213696
     11          6           0       -2.366142    0.123834    1.842216
     12          1           0       -1.629841   -0.656194    2.002042
     13          1           0       -1.971716    1.056284    2.234185
     14          1           0       -3.264838   -0.123274    2.391095
     15          6           0       -1.450240    0.552310   -0.452974
     16          8           0       -0.855134   -0.313391   -1.043911
     17          7           0       -1.082605    1.849085   -0.464282
     18          1           0       -1.608464    2.456622    0.125008
     19          6           0        0.210392    2.386237   -0.892151
     20          1           0        0.355048    2.063546   -1.918303
     21          6           0        0.134903    3.906059   -0.858276
     22          1           0        0.003455    4.267244    0.155190
     23          1           0        1.049514    4.337167   -1.238377
     24          1           0       -0.694585    4.243611   -1.469940
     25          6           0        1.436763    1.876931   -0.104238
     26          8           0        2.149244    2.665348    0.466852
     27          7           0        1.681825    0.558813   -0.111565
     28          1           0        1.085804   -0.076421   -0.602399
     29          6           0        2.834210    0.017697    0.572857
     30          1           0        3.635370    0.740549    0.498513
     31          6           0        2.548415   -0.254701    2.055601
     32          1           0        1.746347   -0.977557    2.156121
     33          1           0        3.427355   -0.643147    2.559885
     34          1           0        2.255173    0.668098    2.539915
     35          6           0        3.236315   -1.277866   -0.123517
     36          8           0        2.428756   -1.974166   -0.677353
     37          7           0        4.539296   -1.607729   -0.021381
     38          1           0        5.178772   -0.937285    0.336717
     39          6           0        5.064813   -2.815878   -0.621914
     40          1           0        4.440432   -3.657613   -0.359899
     41          1           0        5.104566   -2.742280   -1.702954
     42          1           0        6.063649   -2.985880   -0.242754
 ---------------------------------------------------------------------

 The electronic state is 1-A.
 Alpha  occ. eigenvalues --  -20.54896 -20.52879 -20.52493 -20.51703 -15.60865
 Alpha  occ. eigenvalues --  -15.59227 -15.58195 -15.57548 -11.36831 -11.34880
 Alpha  occ. eigenvalues --  -11.34794 -11.34567 -11.29222 -11.28707 -11.27834
 Alpha  occ. eigenvalues --  -11.26227 -11.22911 -11.22908 -11.22897 -11.22379
 Alpha  occ. eigenvalues --   -1.41894  -1.40017  -1.39150  -1.38629  -1.26068
 Alpha  occ. eigenvalues --   -1.23980  -1.23879  -1.23287  -1.07614  -1.04887
 Alpha  occ. eigenvalues --   -1.03275  -0.98914  -0.96226  -0.91779  -0.89998
 Alpha  occ. eigenvalues --   -0.86531  -0.82031  -0.79806  -0.79072  -0.78467
 Alpha  occ. eigenvalues --   -0.74950  -0.72259  -0.68877  -0.68673  -0.67003
 Alpha  occ. eigenvalues --   -0.65820  -0.65346  -0.63916  -0.63673  -0.63024
 Alpha  occ. eigenvalues --   -0.61691  -0.60898  -0.59972  -0.59337  -0.58708
 Alpha  occ. eigenvalues --   -0.58398  -0.56932  -0.55893  -0.55780  -0.55562
 Alpha  occ. eigenvalues --   -0.54994  -0.54365  -0.54347  -0.53323  -0.53160
 Alpha  occ. eigenvalues --   -0.52525  -0.51963  -0.50149  -0.49834  -0.45387
 Alpha  occ. eigenvalues --   -0.43742  -0.42395  -0.41507  -0.39793  -0.39584
 Alpha  occ. eigenvalues --   -0.38567  -0.38077
 Alpha virt. eigenvalues --    0.17316   0.18616   0.19674   0.21171   0.21480
 Alpha virt. eigenvalues --    0.21911   0.23858   0.25084   0.25300   0.26399
 Alpha virt. eigenvalues --    0.28163   0.28898   0.29440   0.30258   0.30439

 Mulliken atomic charges:
              1
     1  H    0.207756
     2  C   -0.575676
     3  H    0.204222
     4  H    0.175571
     5  C    0.756346
     6  O   -0.622482
     7  N   -0.823205
     8  H    0.422770
     9  C   -0.038276
    10  H    0.222993
    11  C   -0.491290
    12  H    0.181681
    13  H    0.156952
    14  H    0.216669
    15  C    0.804567
    16  O   -0.647507
    17  N   -0.823760
    18  H    0.394290
    19  C   -0.036350
    20  H    0.218678
    21  C   -0.494351
    22  H    0.181202
    23  H    0.204752
    24  H    0.174708
    25  C    0.776273
    26  O   -0.633499
    27  N   -0.860691
    28  H    0.486421
    29  C   -0.032272
    30  H    0.212328
    31  C   -0.485462
    32  H    0.180647
    33  H    0.162494
    34  H    0.198857
    35  C    0.770453
    36  O   -0.616096
    37  N   -0.799846
    38  H    0.387468
    39  C   -0.272449
    40  H    0.203409
    41  H    0.182049
    42  H    0.169653
 Sum of Mulliken atomic charges =   0.00000

 Dipole moment (field-independent basis, Debye):
    X=              3.3781    Y=             -0.1571    Z=             -0.0137  Tot=              3.3817
 Quadrupole moment (field-independent basis, Debye-Ang):
   XX=           -117.8885   YY=           -117.5271   ZZ=           -120.1179
   XY=             -7.1957   XZ=              7.1627   YZ=             -4.4964

 Normal termination of Gaussian 09 at Tue Dec 27 12:19:57 2016.
