 Gaussian 09, Revision A.02,
 Gaussian 09:  EM64L-G09RevA.02 11-Jun-2009

 ----------------------------------------------------------------------
 # b3lyp/6-31G* Opt=(ModRedundant, maxcycles=1000, calcfc) geom=nocrowd
 ----------------------------------------------------------------------

 ------------------
 Phi Psi fixed scan
 ------------------
 Symbolic Z-matrix:
 Charge =  0 Multiplicity = 1

 SCF Done:  E(RB3LYP) =  -495.819679205     A.U. after   15 cycles

  Exact polarizability:   0.000   0.000   0.000   0.000   0.000   0.000
 Approx polarizability: 117.455 -11.759 120.627   0.251   9.694  98.153

 SCF Done:  E(RB3LYP) =  -495.827057502     A.U. after   14 cycles
 SCF Done:  E(RB3LYP) =  -495.836802220     A.U. after   13 cycles
 SCF Done:  E(RB3LYP) =  -495.833910361     A.U. after   15 cycles
 SCF Done:  E(RB3LYP) =  -495.836870258     A.U. after   15 cycles
 SCF Done:  E(RB3LYP) =  -495.837351432     A.U. after   12 cycles
 SCF Done:  E(RB3LYP) =  -495.838016633     A.U. after   12 cycles
 SCF Done:  E(RB3LYP) =  -495.834332929     A.U. after   13 cycles
 SCF Done:  E(RB3LYP) =  -495.838202651     A.U. after   13 cycles
 SCF Done:  E(RB3LYP) =  -495.838197465     A.U. after   11 cycles
 SCF Done:  E(RB3LYP) =  -495.838502732     A.U. after   11 cycles
 SCF Done:  E(RB3LYP) =  -495.838505984     A.U. after    9 cycles
 SCF Done:  E(RB3LYP) =  -495.838506772     A.U. after    8 cycles
 SCF Done:  E(RB3LYP) =  -495.838508321     A.U. after    8 cycles
 SCF Done:  E(RB3LYP) =  -495.838514355     A.U. after   10 cycles
 SCF Done:  E(RB3LYP) =  -495.838526737     A.U. after   10 cycles
 SCF Done:  E(RB3LYP) =  -495.838531668     A.U. after   10 cycles
 SCF Done:  E(RB3LYP) =  -495.838532436     A.U. after    8 cycles
 SCF Done:  E(RB3LYP) =  -495.838532483     A.U. after    7 cycles
 SCF Done:  E(RB3LYP) =  -495.838532503     A.U. after    6 cycles
 Optimization completed.
    -- Stationary point found.

                         Standard orientation:
 ---------------------------------------------------------------------
 Center     Atomic      Atomic             Coordinates (Angstroms)
 Number     Number       Type             X           Y           Z
 ---------------------------------------------------------------------
      1          1           0       -3.773493   -1.824524    0.085868
      2          6           0       -2.806745   -1.629485    0.554980
      3          1           0       -2.176042   -2.520718    0.468861
      4          1           0       -2.984420   -1.435011    1.619115
      5          6           0       -2.198749   -0.384150   -0.083558
      6          8           0       -2.892574    0.559800   -0.433382
      7          7           0       -0.833394   -0.439189   -0.238144
      8          1           0       -0.382283   -1.255297    0.152631
      9          6           0        0.068851    0.698724   -0.516567
     10          1           0        0.204637    0.778257   -1.606101
     11          6           0       -0.412304    2.045859    0.023725
     12          1           0       -0.502376    2.004532    1.111835
     13          1           0        0.332376    2.810043   -0.221356
     14          1           0       -1.373823    2.313596   -0.410090
     15          6           0        1.425865    0.336042    0.133451
     16          8           0        1.800675    0.803730    1.198137
     17          7           0        2.135287   -0.606223   -0.564315
     18          1           0        1.815178   -0.853502   -1.490663
     19          6           0        3.444509   -1.074042   -0.138536
     20          1           0        3.594537   -0.735187    0.887207
     21          1           0        3.494740   -2.167641   -0.172435
     22          1           0        4.244360   -0.662592   -0.766666
 ---------------------------------------------------------------------

 The electronic state is 1-A.
 Alpha  occ. eigenvalues --  -19.12269 -19.10711 -14.37525 -14.36280 -10.29455
 Alpha  occ. eigenvalues --  -10.28733 -10.24089 -10.22776 -10.19157 -10.16619
 Alpha  occ. eigenvalues --   -1.04292  -1.02619  -0.93427  -0.91837  -0.77892
 Alpha  occ. eigenvalues --   -0.72668  -0.71662  -0.64315  -0.59226  -0.56963
 Alpha  occ. eigenvalues --   -0.53762  -0.49141  -0.48098  -0.46703  -0.45593
 Alpha  occ. eigenvalues --   -0.44165  -0.42546  -0.41032  -0.40129  -0.39763
 Alpha  occ. eigenvalues --   -0.38453  -0.38125  -0.36798  -0.36003  -0.34641
 Alpha  occ. eigenvalues --   -0.27194  -0.26272  -0.24866  -0.24175
 Alpha virt. eigenvalues --    0.00923   0.03333   0.06412   0.07843   0.11511
 Alpha virt. eigenvalues --    0.12784   0.13211   0.14760   0.15546   0.15786
 Alpha virt. eigenvalues --    0.16830   0.17361   0.18249   0.19006   0.20876

 Mulliken atomic charges:
              1
     1  H    0.186679
     2  C   -0.541720
     3  H    0.145142
     4  H    0.185272
     5  C    0.600021
     6  O   -0.500464
     7  N   -0.618767
     8  H    0.328060
     9  C    0.004080
    10  H    0.143399
    11  C   -0.448336
    12  H    0.167556
    13  H    0.144165
    14  H    0.192260
    15  C    0.551290
    16  O   -0.496939
    17  N   -0.586772
    18  H    0.330228
    19  C   -0.312727
    20  H    0.206263
    21  H    0.157855
    22  H    0.163458
 Sum of Mulliken atomic charges =   0.00000

 Dipole moment (field-independent basis, Debye):
    X=              2.6869    Y=             -3.8190    Z=             -1.7268  Tot=              4.9785
 Quadrupole moment (field-independent basis, Debye-Ang):
   XX=            -64.1202   YY=            -57.4593   ZZ=            -60.4292
   XY=              0.8305   XZ=             -9.0037   YZ=             -1.5808

 Normal termination of Gaussian 09 at Fri Feb 10 20:53:59 2017.
