 Gaussian 09, Revision A.02,
 Gaussian 09:  EM64L-G09RevA.02 11-Jun-2009

 ----------------------------------------------------------------------
 # b3lyp/6-31G* Opt=(ModRedundant, maxcycles=1000, calcfc) geom=nocrowd
 ----------------------------------------------------------------------

 ------------------
 Phi Psi fixed scan
 ------------------
 Symbolic Z-matrix:
 Charge =  0 Multiplicity = 1

 SCF Done:  E(RB3LYP) =  -495.815647162     A.U. after   15 cycles

  Exact polarizability:   0.000   0.000   0.000   0.000   0.000   0.000
 Approx polarizability: 120.146  -1.897 132.829  -5.057  -0.243  83.873

 SCF Done:  E(RB3LYP) =  -495.824636630     A.U. after   13 cycles
 SCF Done:  E(RB3LYP) =  -495.835006031     A.U. after   14 cycles
 SCF Done:  E(RB3LYP) =  -495.829599146     A.U. after   13 cycles
 SCF Done:  E(RB3LYP) =  -495.836824552     A.U. after   13 cycles
 SCF Done:  E(RB3LYP) =  -495.837644377     A.U. after   12 cycles
 SCF Done:  E(RB3LYP) =  -495.819754474     A.U. after   14 cycles
 SCF Done:  E(RB3LYP) =  -495.837694463     A.U. after   14 cycles
 SCF Done:  E(RB3LYP) =  -495.838204162     A.U. after   11 cycles
 SCF Done:  E(RB3LYP) =  -495.838943487     A.U. after   12 cycles
 SCF Done:  E(RB3LYP) =  -495.839846630     A.U. after   10 cycles
 SCF Done:  E(RB3LYP) =  -495.839855091     A.U. after   11 cycles
 SCF Done:  E(RB3LYP) =  -495.839858792     A.U. after   10 cycles
 SCF Done:  E(RB3LYP) =  -495.839861028     A.U. after   10 cycles
 SCF Done:  E(RB3LYP) =  -495.839862938     A.U. after   10 cycles
 SCF Done:  E(RB3LYP) =  -495.839863276     A.U. after    8 cycles
 SCF Done:  E(RB3LYP) =  -495.839863644     A.U. after    8 cycles
 SCF Done:  E(RB3LYP) =  -495.839864111     A.U. after    8 cycles
 SCF Done:  E(RB3LYP) =  -495.839864473     A.U. after    8 cycles
 SCF Done:  E(RB3LYP) =  -495.839864514     A.U. after    7 cycles
 Optimization completed.
    -- Stationary point found.

                         Standard orientation:
 ---------------------------------------------------------------------
 Center     Atomic      Atomic             Coordinates (Angstroms)
 Number     Number       Type             X           Y           Z
 ---------------------------------------------------------------------
      1          1           0       -3.671415   -1.689366    0.606649
      2          6           0       -2.972808   -1.529848   -0.217479
      3          1           0       -3.563207   -1.402301   -1.132514
      4          1           0       -2.341297   -2.416920   -0.333604
      5          6           0       -2.189744   -0.247216    0.054738
      6          8           0       -2.716811    0.716117    0.584681
      7          7           0       -0.865514   -0.310716   -0.343824
      8          1           0       -0.664257   -1.092966   -0.955849
      9          6           0        0.093452    0.796166   -0.503104
     10          1           0        0.096516    1.118590   -1.554446
     11          6           0       -0.191867    2.026051    0.370845
     12          1           0       -0.244332    1.754471    1.429138
     13          1           0        0.636148    2.724042    0.225309
     14          1           0       -1.133526    2.499821    0.099032
     15          6           0        1.543656    0.331181   -0.228494
     16          8           0        2.475678    1.105751   -0.399735
     17          7           0        1.712865   -0.983940    0.107427
     18          1           0        0.902572   -1.451832    0.492487
     19          6           0        3.028573   -1.492525    0.466064
     20          1           0        3.769555   -0.988560   -0.155854
     21          1           0        3.276405   -1.300329    1.518282
     22          1           0        3.066868   -2.569848    0.281169
 ---------------------------------------------------------------------

 The electronic state is 1-A.
 Alpha  occ. eigenvalues --  -19.11718 -19.11394 -14.37129 -14.36639 -10.29786
 Alpha  occ. eigenvalues --  -10.28728 -10.24208 -10.22220 -10.19947 -10.17264
 Alpha  occ. eigenvalues --   -1.03836  -1.03321  -0.93751  -0.91666  -0.78202
 Alpha  occ. eigenvalues --   -0.73077  -0.71297  -0.64611  -0.58918  -0.56384
 Alpha  occ. eigenvalues --   -0.53940  -0.51097  -0.47452  -0.45928  -0.45376
 Alpha  occ. eigenvalues --   -0.44640  -0.42473  -0.41329  -0.40667  -0.39500
 Alpha  occ. eigenvalues --   -0.39399  -0.37249  -0.37131  -0.36150  -0.35001
 Alpha  occ. eigenvalues --   -0.27771  -0.25998  -0.25549  -0.24073
 Alpha virt. eigenvalues --    0.01663   0.02142   0.05620   0.09936   0.12026
 Alpha virt. eigenvalues --    0.13116   0.13339   0.14001   0.15256   0.15641
 Alpha virt. eigenvalues --    0.17168   0.17617   0.17731   0.18763   0.19509

 Mulliken atomic charges:
              1
     1  H    0.191620
     2  C   -0.543571
     3  H    0.184928
     4  H    0.144791
     5  C    0.591174
     6  O   -0.486148
     7  N   -0.639147
     8  H    0.323357
     9  C   -0.022102
    10  H    0.172791
    11  C   -0.443605
    12  H    0.155068
    13  H    0.173324
    14  H    0.181756
    15  C    0.590454
    16  O   -0.516588
    17  N   -0.597555
    18  H    0.330937
    19  C   -0.305864
    20  H    0.198157
    21  H    0.163542
    22  H    0.152680
 Sum of Mulliken atomic charges =   0.00000

 Dipole moment (field-independent basis, Debye):
    X=             -0.2309    Y=             -4.6066    Z=             -0.8276  Tot=              4.6860
 Quadrupole moment (field-independent basis, Debye-Ang):
   XX=            -69.2403   YY=            -57.7923   ZZ=            -58.6341
   XY=             -1.0333   XZ=              6.6143   YZ=             -0.7362

 Normal termination of Gaussian 09 at Fri Feb 10 20:18:23 2017.
