 Gaussian 09, Revision A.02,
 Gaussian 09:  EM64L-G09RevA.02 11-Jun-2009

 ----------------------------------------------------------------------
 # b3lyp/6-31G* Opt=(ModRedundant, maxcycles=1000, calcfc) geom=nocrowd
 ----------------------------------------------------------------------

 ------------------
 Phi Psi fixed scan
 ------------------
 Symbolic Z-matrix:
 Charge =  0 Multiplicity = 1

 SCF Done:  E(RB3LYP) =  -495.822613064     A.U. after   15 cycles

  Exact polarizability:   0.000   0.000   0.000   0.000   0.000   0.000
 Approx polarizability: 119.654 -13.028 107.988  -5.985   2.791 109.158

 SCF Done:  E(RB3LYP) =  -495.829410397     A.U. after   13 cycles
 SCF Done:  E(RB3LYP) =  -495.838079634     A.U. after   13 cycles
 SCF Done:  E(RB3LYP) =  -495.835690090     A.U. after   15 cycles
 SCF Done:  E(RB3LYP) =  -495.838159138     A.U. after   14 cycles
 SCF Done:  E(RB3LYP) =  -495.838528145     A.U. after   12 cycles
 SCF Done:  E(RB3LYP) =  -495.839070881     A.U. after   12 cycles
 SCF Done:  E(RB3LYP) =  -495.839247557     A.U. after   12 cycles
 SCF Done:  E(RB3LYP) =  -495.821825063     A.U. after   15 cycles
 SCF Done:  E(RB3LYP) =  -495.839264899     A.U. after   13 cycles
 SCF Done:  E(RB3LYP) =  -495.840078147     A.U. after   11 cycles
 SCF Done:  E(RB3LYP) =  -495.840123680     A.U. after   11 cycles
 SCF Done:  E(RB3LYP) =  -495.840149233     A.U. after   11 cycles
 SCF Done:  E(RB3LYP) =  -495.840179420     A.U. after   11 cycles
 SCF Done:  E(RB3LYP) =  -495.840210769     A.U. after   11 cycles
 SCF Done:  E(RB3LYP) =  -495.840219416     A.U. after   11 cycles
 SCF Done:  E(RB3LYP) =  -495.840215847     A.U. after   11 cycles
 SCF Done:  E(RB3LYP) =  -495.840226348     A.U. after   11 cycles
 SCF Done:  E(RB3LYP) =  -495.840226976     A.U. after    9 cycles
 SCF Done:  E(RB3LYP) =  -495.840227033     A.U. after    7 cycles
 Optimization completed.
    -- Stationary point found.

                         Standard orientation:
 ---------------------------------------------------------------------
 Center     Atomic      Atomic             Coordinates (Angstroms)
 Number     Number       Type             X           Y           Z
 ---------------------------------------------------------------------
      1          1           0       -4.006028   -1.507435   -0.088551
      2          6           0       -2.988145   -1.512586    0.305411
      3          1           0       -2.494148   -2.450114    0.028964
      4          1           0       -3.045422   -1.466334    1.399787
      5          6           0       -2.256691   -0.280595   -0.215513
      6          8           0       -2.848524    0.744765   -0.520005
      7          7           0       -0.892527   -0.445054   -0.345046
      8          1           0       -0.538241   -1.271423    0.122124
      9          6           0        0.083310    0.663783   -0.381415
     10          1           0        0.240659    0.949992   -1.430400
     11          6           0       -0.317897    1.909382    0.421169
     12          1           0       -0.413582    1.649477    1.478795
     13          1           0        0.468794    2.666706    0.325202
     14          1           0       -1.259731    2.317198    0.057573
     15          6           0        1.386110    0.099921    0.221602
     16          8           0        1.482867   -0.139397    1.419865
     17          7           0        2.369030   -0.174433   -0.682474
     18          1           0        2.210775    0.066134   -1.650445
     19          6           0        3.667082   -0.703163   -0.298677
     20          1           0        3.631108   -0.908417    0.771960
     21          1           0        3.885277   -1.631741   -0.838092
     22          1           0        4.467665    0.018955   -0.498617
 ---------------------------------------------------------------------

 The electronic state is 1-A.
 Alpha  occ. eigenvalues --  -19.12072 -19.10826 -14.37580 -14.35779 -10.29394
 Alpha  occ. eigenvalues --  -10.28531 -10.23954 -10.22719 -10.18899 -10.17046
 Alpha  occ. eigenvalues --   -1.04189  -1.02597  -0.93158  -0.91812  -0.77825
 Alpha  occ. eigenvalues --   -0.72708  -0.71459  -0.64348  -0.59397  -0.56525
 Alpha  occ. eigenvalues --   -0.53655  -0.48642  -0.47804  -0.46529  -0.45480
 Alpha  occ. eigenvalues --   -0.44200  -0.42492  -0.40937  -0.40117  -0.39917
 Alpha  occ. eigenvalues --   -0.38925  -0.38297  -0.36700  -0.35876  -0.34570
 Alpha  occ. eigenvalues --   -0.26635  -0.26120  -0.25395  -0.24120
 Alpha virt. eigenvalues --    0.01408   0.02874   0.06484   0.08190   0.11470
 Alpha virt. eigenvalues --    0.13269   0.13801   0.15027   0.15537   0.15766
 Alpha virt. eigenvalues --    0.16605   0.17178   0.18269   0.19213   0.20803

 Mulliken atomic charges:
              1
     1  H    0.186260
     2  C   -0.546436
     3  H    0.154817
     4  H    0.182768
     5  C    0.595289
     6  O   -0.498835
     7  N   -0.610613
     8  H    0.334137
     9  C    0.015973
    10  H    0.136316
    11  C   -0.463622
    12  H    0.170758
    13  H    0.138934
    14  H    0.198524
    15  C    0.553814
    16  O   -0.514800
    17  N   -0.580675
    18  H    0.330976
    19  C   -0.314648
    20  H    0.207061
    21  H    0.161027
    22  H    0.162976
 Sum of Mulliken atomic charges =   0.00000

 Dipole moment (field-independent basis, Debye):
    X=              3.1928    Y=             -2.0039    Z=             -1.9794  Tot=              4.2577
 Quadrupole moment (field-independent basis, Debye-Ang):
   XX=            -59.2208   YY=            -57.7761   ZZ=            -61.9525
   XY=              5.8468   XZ=             -9.8340   YZ=              0.0877

 Normal termination of Gaussian 09 at Fri Feb 10 20:34:20 2017.
