 Gaussian 09, Revision A.02,
 Gaussian 09:  EM64L-G09RevA.02 11-Jun-2009

 ----------------------------------------------------------------------
 # b3lyp/6-31G* Opt=(ModRedundant, maxcycles=1000, calcfc) geom=nocrowd
 ----------------------------------------------------------------------

 ------------------
 Phi Psi fixed scan
 ------------------
 Symbolic Z-matrix:
 Charge =  0 Multiplicity = 1

 SCF Done:  E(RB3LYP) =  -495.822041739     A.U. after   15 cycles

  Exact polarizability:   0.000   0.000   0.000   0.000   0.000   0.000
 Approx polarizability: 117.950  -0.771 133.271   1.442   5.246  86.139

 SCF Done:  E(RB3LYP) =  -495.831131067     A.U. after   13 cycles
 SCF Done:  E(RB3LYP) =  -495.841681125     A.U. after   13 cycles
 SCF Done:  E(RB3LYP) =  -495.841528814     A.U. after   15 cycles
 SCF Done:  E(RB3LYP) =  -495.842494530     A.U. after   13 cycles
 SCF Done:  E(RB3LYP) =  -495.842875000     A.U. after   11 cycles
 SCF Done:  E(RB3LYP) =  -495.843291845     A.U. after   12 cycles
 SCF Done:  E(RB3LYP) =  -495.815353080     A.U. after   15 cycles
 SCF Done:  E(RB3LYP) =  -495.843400359     A.U. after   15 cycles
 SCF Done:  E(RB3LYP) =  -495.843474949     A.U. after   11 cycles
 SCF Done:  E(RB3LYP) =  -495.843590453     A.U. after   10 cycles
 SCF Done:  E(RB3LYP) =  -495.843617612     A.U. after   10 cycles
 SCF Done:  E(RB3LYP) =  -495.843647975     A.U. after   11 cycles
 SCF Done:  E(RB3LYP) =  -495.843655703     A.U. after   10 cycles
 SCF Done:  E(RB3LYP) =  -495.843657942     A.U. after    8 cycles
 SCF Done:  E(RB3LYP) =  -495.843659666     A.U. after    8 cycles
 SCF Done:  E(RB3LYP) =  -495.843660200     A.U. after    7 cycles
 SCF Done:  E(RB3LYP) =  -495.843660300     A.U. after    6 cycles
 SCF Done:  E(RB3LYP) =  -495.843660329     A.U. after    6 cycles
 SCF Done:  E(RB3LYP) =  -495.843660348     A.U. after    6 cycles
 Optimization completed.
    -- Stationary point found.

                         Standard orientation:
 ---------------------------------------------------------------------
 Center     Atomic      Atomic             Coordinates (Angstroms)
 Number     Number       Type             X           Y           Z
 ---------------------------------------------------------------------
      1          1           0       -4.036462   -1.287750   -0.078651
      2          6           0       -3.112226   -1.299093    0.506836
      3          1           0       -2.607829   -2.259168    0.361096
      4          1           0       -3.393656   -1.203446    1.560383
      5          6           0       -2.274093   -0.084709    0.116199
      6          8           0       -2.735616    1.048994    0.195147
      7          7           0       -1.017108   -0.392828   -0.319724
      8          1           0       -0.750554   -1.368042   -0.384156
      9          6           0        0.080153    0.501678   -0.696305
     10          1           0        0.094088    0.609524   -1.792777
     11          6           0       -0.004610    1.902305   -0.080896
     12          1           0        0.040738    1.865534    1.013034
     13          1           0        0.818532    2.521169   -0.458906
     14          1           0       -0.947549    2.375796   -0.347570
     15          6           0        1.361085   -0.299613   -0.346769
     16          8           0        1.422081   -1.491483   -0.645277
     17          7           0        2.355263    0.355963    0.302582
     18          1           0        2.224226    1.327266    0.539524
     19          6           0        3.605980   -0.287085    0.671372
     20          1           0        3.540430   -1.331814    0.366195
     21          1           0        4.456723    0.184398    0.165786
     22          1           0        3.764779   -0.236397    1.754448
 ---------------------------------------------------------------------

 The electronic state is 1-A.
 Alpha  occ. eigenvalues --  -19.12102 -19.09826 -14.37609 -14.35347 -10.29583
 Alpha  occ. eigenvalues --  -10.28151 -10.24364 -10.22719 -10.18630 -10.18433
 Alpha  occ. eigenvalues --   -1.04292  -1.01771  -0.93275  -0.91595  -0.78303
 Alpha  occ. eigenvalues --   -0.72605  -0.71043  -0.65841  -0.59906  -0.56014
 Alpha  occ. eigenvalues --   -0.53762  -0.50264  -0.47163  -0.45837  -0.45356
 Alpha  occ. eigenvalues --   -0.44038  -0.42635  -0.41402  -0.40201  -0.39556
 Alpha  occ. eigenvalues --   -0.39142  -0.38505  -0.37414  -0.36799  -0.34476
 Alpha  occ. eigenvalues --   -0.26669  -0.26456  -0.24236  -0.23614
 Alpha virt. eigenvalues --    0.01505   0.04067   0.07182   0.09881   0.11108
 Alpha virt. eigenvalues --    0.13152   0.14114   0.14633   0.14929   0.15734
 Alpha virt. eigenvalues --    0.15977   0.18116   0.18307   0.18679   0.19920

 Mulliken atomic charges:
              1
     1  H    0.182459
     2  C   -0.534246
     3  H    0.148080
     4  H    0.181307
     5  C    0.598177
     6  O   -0.520026
     7  N   -0.619689
     8  H    0.347066
     9  C    0.010760
    10  H    0.170739
    11  C   -0.488527
    12  H    0.156275
    13  H    0.133095
    14  H    0.216028
    15  C    0.588118
    16  O   -0.533039
    17  N   -0.593372
    18  H    0.338291
    19  C   -0.315195
    20  H    0.208276
    21  H    0.162609
    22  H    0.162811
 Sum of Mulliken atomic charges =   0.00000

 Dipole moment (field-independent basis, Debye):
    X=              3.1682    Y=              0.4489    Z=              0.9057  Tot=              3.3256
 Quadrupole moment (field-independent basis, Debye-Ang):
   XX=            -58.3535   YY=            -62.0631   ZZ=            -59.1267
   XY=             12.5345   XZ=              3.6699   YZ=             -2.2973

 Normal termination of Gaussian 09 at Fri Feb 10 20:37:01 2017.
