 Gaussian 09, Revision A.02,
 Gaussian 09:  EM64L-G09RevA.02 11-Jun-2009

 ----------------------------------------------------------------------
 # b3lyp/6-31G* Opt=(ModRedundant, maxcycles=1000, calcfc) geom=nocrowd
 ----------------------------------------------------------------------

 ------------------
 Phi Psi fixed scan
 ------------------
 Symbolic Z-matrix:
 Charge =  0 Multiplicity = 1

 SCF Done:  E(RB3LYP) =  -495.824623757     A.U. after   16 cycles

  Exact polarizability:   0.000   0.000   0.000   0.000   0.000   0.000
 Approx polarizability: 117.602  -2.004 117.025  13.712   4.969 101.739

 SCF Done:  E(RB3LYP) =  -495.831634342     A.U. after   17 cycles
 SCF Done:  E(RB3LYP) =  -495.839896696     A.U. after   16 cycles
 SCF Done:  E(RB3LYP) =  -495.836997056     A.U. after   15 cycles
 SCF Done:  E(RB3LYP) =  -495.839896682     A.U. after   15 cycles
 SCF Done:  E(RB3LYP) =  -495.840385374     A.U. after   12 cycles
 SCF Done:  E(RB3LYP) =  -495.841036400     A.U. after   16 cycles
 SCF Done:  E(RB3LYP) =  -495.838892031     A.U. after   13 cycles
 SCF Done:  E(RB3LYP) =  -495.841271276     A.U. after   13 cycles
 SCF Done:  E(RB3LYP) =  -495.836673382     A.U. after   16 cycles
 SCF Done:  E(RB3LYP) =  -495.841591397     A.U. after   12 cycles
 SCF Done:  E(RB3LYP) =  -495.841596123     A.U. after   10 cycles
 SCF Done:  E(RB3LYP) =  -495.841595794     A.U. after   10 cycles
 SCF Done:  E(RB3LYP) =  -495.841596743     A.U. after   10 cycles
 SCF Done:  E(RB3LYP) =  -495.841610843     A.U. after   15 cycles
 SCF Done:  E(RB3LYP) =  -495.841615897     A.U. after   15 cycles
 SCF Done:  E(RB3LYP) =  -495.841620796     A.U. after    9 cycles
 SCF Done:  E(RB3LYP) =  -495.841633583     A.U. after   10 cycles
 SCF Done:  E(RB3LYP) =  -495.841642784     A.U. after   11 cycles
 SCF Done:  E(RB3LYP) =  -495.841643819     A.U. after    9 cycles
 Optimization completed.
    -- Stationary point found.

                         Standard orientation:
 ---------------------------------------------------------------------
 Center     Atomic      Atomic             Coordinates (Angstroms)
 Number     Number       Type             X           Y           Z
 ---------------------------------------------------------------------
      1          1           0       -3.572813   -1.766699    0.500756
      2          6           0       -2.989434   -1.454878   -0.368832
      3          1           0       -3.697534   -1.187242   -1.161274
      4          1           0       -2.380735   -2.296328   -0.715813
      5          6           0       -2.180310   -0.217015    0.010876
      6          8           0       -2.664806    0.671066    0.695710
      7          7           0       -0.897266   -0.211101   -0.490329
      8          1           0       -0.683665   -0.949058   -1.148626
      9          6           0        0.097537    0.871452   -0.457474
     10          1           0        0.055718    1.437021   -1.396466
     11          6           0       -0.054552    1.854394    0.713989
     12          1           0       -0.030662    1.335332    1.676789
     13          1           0        0.785428    2.555628    0.673012
     14          1           0       -0.992816    2.403027    0.651819
     15          6           0        1.519029    0.271275   -0.419477
     16          8           0        2.424533    0.750026   -1.090741
     17          7           0        1.682640   -0.761539    0.456151
     18          1           0        0.868296   -1.079242    0.963444
     19          6           0        2.967886   -1.389422    0.702099
     20          1           0        3.690888   -0.924215    0.030467
     21          1           0        3.293155   -1.237027    1.738268
     22          1           0        2.928378   -2.466294    0.500027
 ---------------------------------------------------------------------

 The electronic state is 1-A.
 Alpha  occ. eigenvalues --  -19.11394 -19.11315 -14.37074 -14.36630 -10.29577
 Alpha  occ. eigenvalues --  -10.28665 -10.24013 -10.22235 -10.19797 -10.18049
 Alpha  occ. eigenvalues --   -1.03623  -1.03100  -0.93538  -0.91728  -0.78428
 Alpha  occ. eigenvalues --   -0.73188  -0.71181  -0.65128  -0.58797  -0.57098
 Alpha  occ. eigenvalues --   -0.53888  -0.50865  -0.47343  -0.45748  -0.45295
 Alpha  occ. eigenvalues --   -0.44173  -0.42798  -0.41368  -0.40727  -0.39940
 Alpha  occ. eigenvalues --   -0.39077  -0.37976  -0.37678  -0.36177  -0.35390
 Alpha  occ. eigenvalues --   -0.26806  -0.25681  -0.25551  -0.24068
 Alpha virt. eigenvalues --    0.02114   0.02231   0.06298   0.09051   0.11833
 Alpha virt. eigenvalues --    0.12320   0.13563   0.14737   0.15471   0.16179
 Alpha virt. eigenvalues --    0.16224   0.17356   0.17767   0.18338   0.19626

 Mulliken atomic charges:
              1
     1  H    0.188820
     2  C   -0.540786
     3  H    0.187086
     4  H    0.144303
     5  C    0.590397
     6  O   -0.496595
     7  N   -0.631330
     8  H    0.326827
     9  C   -0.010376
    10  H    0.170800
    11  C   -0.445520
    12  H    0.149045
    13  H    0.161084
    14  H    0.195357
    15  C    0.562059
    16  O   -0.516460
    17  N   -0.576677
    18  H    0.330940
    19  C   -0.310117
    20  H    0.204901
    21  H    0.161046
    22  H    0.155197
 Sum of Mulliken atomic charges =   0.00000

 Dipole moment (field-independent basis, Debye):
    X=             -0.1700    Y=             -3.8087    Z=              0.2500  Tot=              3.8207
 Quadrupole moment (field-independent basis, Debye-Ang):
   XX=            -68.8510   YY=            -56.8935   ZZ=            -60.3306
   XY=              0.3279   XZ=             10.6302   YZ=              0.1758

 Normal termination of Gaussian 09 at Fri Feb 10 20:36:26 2017.
