 Gaussian 09, Revision A.02,
 Gaussian 09:  EM64L-G09RevA.02 11-Jun-2009

 ----------------------------------------------------------------------
 # b3lyp/6-31G* Opt=(ModRedundant, maxcycles=1000, calcfc) geom=nocrowd
 ----------------------------------------------------------------------

 ------------------
 Phi Psi fixed scan
 ------------------
 Symbolic Z-matrix:
 Charge =  0 Multiplicity = 1

 SCF Done:  E(RB3LYP) =  -495.826796030     A.U. after   14 cycles

  Exact polarizability:   0.000   0.000   0.000   0.000   0.000   0.000
 Approx polarizability: 120.500  -2.318 133.089  -2.659   1.511  82.204

 SCF Done:  E(RB3LYP) =  -495.834430811     A.U. after   13 cycles
 SCF Done:  E(RB3LYP) =  -495.843243492     A.U. after   14 cycles
 SCF Done:  E(RB3LYP) =  -495.842526073     A.U. after   16 cycles
 SCF Done:  E(RB3LYP) =  -495.843988870     A.U. after   14 cycles
 SCF Done:  E(RB3LYP) =  -495.844665474     A.U. after   12 cycles
 SCF Done:  E(RB3LYP) =  -495.845376008     A.U. after   12 cycles
 SCF Done:  E(RB3LYP) =  -495.843502269     A.U. after   13 cycles
 SCF Done:  E(RB3LYP) =  -495.845479967     A.U. after   12 cycles
 SCF Done:  E(RB3LYP) =  -495.845619766     A.U. after   12 cycles
 SCF Done:  E(RB3LYP) =  -495.845657555     A.U. after   10 cycles
 SCF Done:  E(RB3LYP) =  -495.845674499     A.U. after   10 cycles
 SCF Done:  E(RB3LYP) =  -495.845710177     A.U. after   11 cycles
 SCF Done:  E(RB3LYP) =  -495.845730860     A.U. after   11 cycles
 SCF Done:  E(RB3LYP) =  -495.845745303     A.U. after   10 cycles
 SCF Done:  E(RB3LYP) =  -495.845754366     A.U. after   10 cycles
 SCF Done:  E(RB3LYP) =  -495.845756380     A.U. after   10 cycles
 SCF Done:  E(RB3LYP) =  -495.845756903     A.U. after    9 cycles
 SCF Done:  E(RB3LYP) =  -495.845757027     A.U. after    9 cycles
 SCF Done:  E(RB3LYP) =  -495.845757035     A.U. after    6 cycles
 Optimization completed.
    -- Stationary point found.

                         Standard orientation:
 ---------------------------------------------------------------------
 Center     Atomic      Atomic             Coordinates (Angstroms)
 Number     Number       Type             X           Y           Z
 ---------------------------------------------------------------------
      1          1           0       -4.137593   -1.186977   -0.152228
      2          6           0       -3.178365   -1.265541    0.366298
      3          1           0       -2.715760   -2.227945    0.127029
      4          1           0       -3.383901   -1.233209    1.441981
      5          6           0       -2.323632   -0.057854   -0.006363
      6          8           0       -2.793147    1.075794    0.009151
      7          7           0       -1.043306   -0.370556   -0.367590
      8          1           0       -0.740987   -1.335852   -0.278534
      9          6           0        0.093243    0.526852   -0.547508
     10          1           0        0.186664    0.789884   -1.613770
     11          6           0        0.001205    1.830948    0.263663
     12          1           0        0.072348    1.632712    1.338319
     13          1           0        0.803010    2.522574   -0.021238
     14          1           0       -0.954475    2.315592    0.069592
     15          6           0        1.342745   -0.321501   -0.187172
     16          8           0        1.276332   -1.548235   -0.128974
     17          7           0        2.492722    0.366198    0.028094
     18          1           0        2.469488    1.373807   -0.008745
     19          6           0        3.758287   -0.287387    0.319613
     20          1           0        3.578149   -1.362491    0.334443
     21          1           0        4.505463   -0.057516   -0.448773
     22          1           0        4.145309    0.026353    1.295787
 ---------------------------------------------------------------------

 The electronic state is 1-A.
 Alpha  occ. eigenvalues --  -19.12731 -19.09747 -14.37665 -14.34809 -10.29919
 Alpha  occ. eigenvalues --  -10.27921 -10.24404 -10.22848 -10.18522 -10.18212
 Alpha  occ. eigenvalues --   -1.04775  -1.01624  -0.93479  -0.91364  -0.78185
 Alpha  occ. eigenvalues --   -0.72576  -0.70982  -0.65601  -0.60109  -0.55739
 Alpha  occ. eigenvalues --   -0.53852  -0.49560  -0.47505  -0.46105  -0.45232
 Alpha  occ. eigenvalues --   -0.44142  -0.42864  -0.41286  -0.40308  -0.40039
 Alpha  occ. eigenvalues --   -0.38841  -0.38430  -0.37063  -0.36794  -0.34215
 Alpha  occ. eigenvalues --   -0.26973  -0.26645  -0.24403  -0.23483
 Alpha virt. eigenvalues --    0.01540   0.03910   0.06329   0.10471   0.11088
 Alpha virt. eigenvalues --    0.13548   0.13646   0.14623   0.15129   0.15655
 Alpha virt. eigenvalues --    0.15933   0.17901   0.18526   0.19482   0.20680

 Mulliken atomic charges:
              1
     1  H    0.181822
     2  C   -0.535308
     3  H    0.151129
     4  H    0.179349
     5  C    0.595407
     6  O   -0.518831
     7  N   -0.621881
     8  H    0.352683
     9  C   -0.009027
    10  H    0.171292
    11  C   -0.481142
    12  H    0.157447
    13  H    0.124385
    14  H    0.222693
    15  C    0.601182
    16  O   -0.531080
    17  N   -0.594149
    18  H    0.334140
    19  C   -0.314018
    20  H    0.208303
    21  H    0.162374
    22  H    0.163231
 Sum of Mulliken atomic charges =   0.00000

 Dipole moment (field-independent basis, Debye):
    X=              3.8172    Y=              0.4992    Z=              0.2286  Tot=              3.8565
 Quadrupole moment (field-independent basis, Debye-Ang):
   XX=            -56.8361   YY=            -62.4256   ZZ=            -59.3133
   XY=             12.5579   XZ=             -0.0454   YZ=             -0.9338

 Normal termination of Gaussian 09 at Fri Feb 10 20:26:04 2017.
