 Gaussian 09, Revision A.02,
 Gaussian 09:  EM64L-G09RevA.02 11-Jun-2009

 ----------------------------------------------------------------------
 # b3lyp/6-31G* Opt=(ModRedundant, maxcycles=1000, calcfc) geom=nocrowd
 ----------------------------------------------------------------------

 ------------------
 Phi Psi fixed scan
 ------------------
 Symbolic Z-matrix:
 Charge =  0 Multiplicity = 1

 SCF Done:  E(RB3LYP) =  -495.820887944     A.U. after   15 cycles

  Exact polarizability:   0.000   0.000   0.000   0.000   0.000   0.000
 Approx polarizability: 114.050   8.656 106.078 -11.270  -3.147 116.280

 SCF Done:  E(RB3LYP) =  -495.828696293     A.U. after   13 cycles
 SCF Done:  E(RB3LYP) =  -495.837415894     A.U. after   14 cycles
 SCF Done:  E(RB3LYP) =  -495.834863124     A.U. after   16 cycles
 SCF Done:  E(RB3LYP) =  -495.837473324     A.U. after   16 cycles
 SCF Done:  E(RB3LYP) =  -495.837941225     A.U. after   12 cycles
 SCF Done:  E(RB3LYP) =  -495.838538818     A.U. after   13 cycles
 SCF Done:  E(RB3LYP) =  -495.830283360     A.U. after   14 cycles
 SCF Done:  E(RB3LYP) =  -495.838743518     A.U. after   14 cycles
 SCF Done:  E(RB3LYP) =  -495.838877936     A.U. after   12 cycles
 SCF Done:  E(RB3LYP) =  -495.839181745     A.U. after   11 cycles
 SCF Done:  E(RB3LYP) =  -495.839198753     A.U. after   11 cycles
 SCF Done:  E(RB3LYP) =  -495.839217047     A.U. after   11 cycles
 SCF Done:  E(RB3LYP) =  -495.839223412     A.U. after   10 cycles
 SCF Done:  E(RB3LYP) =  -495.839237375     A.U. after   10 cycles
 SCF Done:  E(RB3LYP) =  -495.839251396     A.U. after   11 cycles
 SCF Done:  E(RB3LYP) =  -495.839253249     A.U. after   10 cycles
 SCF Done:  E(RB3LYP) =  -495.839253488     A.U. after    9 cycles
 SCF Done:  E(RB3LYP) =  -495.839253506     A.U. after    7 cycles
 SCF Done:  E(RB3LYP) =  -495.839253479     A.U. after    7 cycles
 Optimization completed.
    -- Stationary point found.

                         Standard orientation:
 ---------------------------------------------------------------------
 Center     Atomic      Atomic             Coordinates (Angstroms)
 Number     Number       Type             X           Y           Z
 ---------------------------------------------------------------------
      1          1           0        3.778957   -1.345077    0.823339
      2          6           0        2.992557   -1.515163    0.079698
      3          1           0        2.401168   -2.383399    0.387534
      4          1           0        3.484530   -1.735056   -0.871224
      5          6           0        2.181919   -0.231699   -0.082118
      6          8           0        2.652409    0.746728   -0.645700
      7          7           0        0.919353   -0.294674    0.454667
      8          1           0        0.707922   -1.123439    0.994958
      9          6           0       -0.078410    0.778317    0.597273
     10          1           0       -0.029710    1.177531    1.617890
     11          6           0        0.074069    1.940831   -0.391116
     12          1           0        0.094997    1.606089   -1.432598
     13          1           0       -0.777077    2.618164   -0.260352
     14          1           0        1.000385    2.485361   -0.214368
     15          6           0       -1.472497    0.111778    0.518000
     16          8           0       -2.151609   -0.055453    1.524739
     17          7           0       -1.864931   -0.272503   -0.729342
     18          1           0       -1.210668   -0.161209   -1.490536
     19          6           0       -3.116300   -0.964423   -0.981748
     20          1           0       -3.693899   -0.942873   -0.056768
     21          1           0       -3.683204   -0.464620   -1.774972
     22          1           0       -2.948783   -2.009286   -1.272423
 ---------------------------------------------------------------------

 The electronic state is 1-A.
 Alpha  occ. eigenvalues --  -19.11605 -19.10929 -14.36729 -14.36729 -10.29180
 Alpha  occ. eigenvalues --  -10.28802 -10.24025 -10.22273 -10.19433 -10.18443
 Alpha  occ. eigenvalues --   -1.03625  -1.02853  -0.93084  -0.91946  -0.78408
 Alpha  occ. eigenvalues --   -0.73024  -0.71002  -0.65547  -0.58936  -0.56929
 Alpha  occ. eigenvalues --   -0.53619  -0.50842  -0.47059  -0.45448  -0.45294
 Alpha  occ. eigenvalues --   -0.44306  -0.42607  -0.41360  -0.40442  -0.39961
 Alpha  occ. eigenvalues --   -0.39051  -0.38086  -0.37927  -0.36487  -0.35441
 Alpha  occ. eigenvalues --   -0.26780  -0.25537  -0.25148  -0.23996
 Alpha virt. eigenvalues --    0.01749   0.02816   0.06692   0.07972   0.11458
 Alpha virt. eigenvalues --    0.12587   0.13493   0.15246   0.15660   0.15892
 Alpha virt. eigenvalues --    0.16374   0.17581   0.17839   0.18445   0.19614

 Mulliken atomic charges:
              1
     1  H    0.186085
     2  C   -0.538384
     3  H    0.145344
     4  H    0.186484
     5  C    0.590724
     6  O   -0.505663
     7  N   -0.617778
     8  H    0.332341
     9  C   -0.011343
    10  H    0.170906
    11  C   -0.449987
    12  H    0.146415
    13  H    0.152788
    14  H    0.194739
    15  C    0.560922
    16  O   -0.512411
    17  N   -0.573656
    18  H    0.332149
    19  C   -0.311532
    20  H    0.204521
    21  H    0.160074
    22  H    0.157262
 Sum of Mulliken atomic charges =   0.00000

 Dipole moment (field-independent basis, Debye):
    X=             -0.5888    Y=             -2.2983    Z=             -1.5243  Tot=              2.8200
 Quadrupole moment (field-independent basis, Debye-Ang):
   XX=            -66.0638   YY=            -57.0309   ZZ=            -61.4883
   XY=             -5.0382   XZ=             11.7704   YZ=              1.4598

 Normal termination of Gaussian 09 at Fri Feb 10 20:35:20 2017.
