 Gaussian 09, Revision A.02,
 Gaussian 09:  EM64L-G09RevA.02 11-Jun-2009

 ----------------------------------------------------------------------
 # b3lyp/6-31G* Opt=(ModRedundant, maxcycles=1000, calcfc) geom=nocrowd
 ----------------------------------------------------------------------

 ------------------
 Phi Psi fixed scan
 ------------------
 Symbolic Z-matrix:
 Charge =  0 Multiplicity = 1

 SCF Done:  E(RB3LYP) =  -495.827366413     A.U. after   14 cycles

  Exact polarizability:   0.000   0.000   0.000   0.000   0.000   0.000
 Approx polarizability: 120.954  -1.383 120.239  -9.683  -9.365  94.187

 SCF Done:  E(RB3LYP) =  -495.834225580     A.U. after   13 cycles
 SCF Done:  E(RB3LYP) =  -495.842457100     A.U. after   13 cycles
 SCF Done:  E(RB3LYP) =  -495.840861819     A.U. after   15 cycles
 SCF Done:  E(RB3LYP) =  -495.842860549     A.U. after   13 cycles
 SCF Done:  E(RB3LYP) =  -495.843626199     A.U. after   12 cycles
 SCF Done:  E(RB3LYP) =  -495.844863188     A.U. after   12 cycles
 SCF Done:  E(RB3LYP) =  -495.845376920     A.U. after   14 cycles
 SCF Done:  E(RB3LYP) =  -495.844075174     A.U. after   12 cycles
 SCF Done:  E(RB3LYP) =  -495.845573833     A.U. after   12 cycles
 SCF Done:  E(RB3LYP) =  -495.845952991     A.U. after   12 cycles
 SCF Done:  E(RB3LYP) =  -495.845925209     A.U. after   12 cycles
 SCF Done:  E(RB3LYP) =  -495.845886910     A.U. after   12 cycles
 SCF Done:  E(RB3LYP) =  -495.845983587     A.U. after   11 cycles
 SCF Done:  E(RB3LYP) =  -495.845997375     A.U. after   11 cycles
 SCF Done:  E(RB3LYP) =  -495.845999913     A.U. after   10 cycles
 SCF Done:  E(RB3LYP) =  -495.846000059     A.U. after    7 cycles
 SCF Done:  E(RB3LYP) =  -495.846000087     A.U. after    7 cycles
 Optimization completed.
    -- Stationary point found.

                         Standard orientation:
 ---------------------------------------------------------------------
 Center     Atomic      Atomic             Coordinates (Angstroms)
 Number     Number       Type             X           Y           Z
 ---------------------------------------------------------------------
      1          1           0       -4.207032   -1.089960   -0.235872
      2          6           0       -3.187941   -1.292653    0.099121
      3          1           0       -2.816096   -2.201020   -0.385651
      4          1           0       -3.215384   -1.469312    1.181324
      5          6           0       -2.325028   -0.070092   -0.190356
      6          8           0       -2.792414    1.061524   -0.209230
      7          7           0       -1.007199   -0.360802   -0.459602
      8          1           0       -0.709426   -1.293436   -0.185084
      9          6           0        0.096810    0.591266   -0.341000
     10          1           0        0.252982    1.091990   -1.306517
     11          6           0       -0.087688    1.665428    0.752274
     12          1           0       -0.193420    1.187970    1.732110
     13          1           0        0.790517    2.320266    0.780803
     14          1           0       -0.978985    2.258745    0.552086
     15          6           0        1.342610   -0.240750    0.021453
     16          8           0        1.251650   -1.286172    0.659841
     17          7           0        2.522212    0.267075   -0.424704
     18          1           0        2.504730    1.131737   -0.946948
     19          6           0        3.810130   -0.324042   -0.101097
     20          1           0        3.616880   -1.263295    0.418213
     21          1           0        4.382969   -0.526707   -1.012549
     22          1           0        4.399926    0.331357    0.550970
 ---------------------------------------------------------------------

 The electronic state is 1-A.
 Alpha  occ. eigenvalues --  -19.12653 -19.10313 -14.37735 -14.34830 -10.29777
 Alpha  occ. eigenvalues --  -10.28031 -10.24042 -10.22871 -10.18376 -10.18051
 Alpha  occ. eigenvalues --   -1.04677  -1.02072  -0.93458  -0.91422  -0.78009
 Alpha  occ. eigenvalues --   -0.72668  -0.71195  -0.64813  -0.59875  -0.55902
 Alpha  occ. eigenvalues --   -0.53709  -0.48826  -0.47581  -0.46297  -0.45159
 Alpha  occ. eigenvalues --   -0.44175  -0.43032  -0.40940  -0.40423  -0.40131
 Alpha  occ. eigenvalues --   -0.38673  -0.38568  -0.36732  -0.36502  -0.34310
 Alpha  occ. eigenvalues --   -0.26739  -0.26663  -0.25134  -0.23694
 Alpha virt. eigenvalues --    0.01604   0.03161   0.06248   0.09907   0.11356
 Alpha virt. eigenvalues --    0.13738   0.14088   0.14459   0.15384   0.15976
 Alpha virt. eigenvalues --    0.16099   0.17384   0.18169   0.19057   0.20106

 Mulliken atomic charges:
              1
     1  H    0.183160
     2  C   -0.543005
     3  H    0.157758
     4  H    0.179347
     5  C    0.588245
     6  O   -0.507731
     7  N   -0.612281
     8  H    0.344384
     9  C    0.000355
    10  H    0.147256
    11  C   -0.460645
    12  H    0.160443
    13  H    0.131730
    14  H    0.210594
    15  C    0.582287
    16  O   -0.526894
    17  N   -0.585456
    18  H    0.330711
    19  C   -0.313602
    20  H    0.207613
    21  H    0.162558
    22  H    0.163173
 Sum of Mulliken atomic charges =   0.00000

 Dipole moment (field-independent basis, Debye):
    X=              3.7843    Y=              0.0830    Z=             -0.9258  Tot=              3.8967
 Quadrupole moment (field-independent basis, Debye-Ang):
   XX=            -55.7661   YY=            -61.3600   ZZ=            -60.2980
   XY=             11.6695   XZ=             -4.6538   YZ=              0.6714

 Normal termination of Gaussian 09 at Fri Feb 10 20:24:12 2017.
