 Gaussian 09, Revision A.02,
 Gaussian 09:  EM64L-G09RevA.02 11-Jun-2009

 ----------------------------------------------------------------------
 # b3lyp/6-31G* Opt=(ModRedundant, maxcycles=1000, calcfc) geom=nocrowd
 ----------------------------------------------------------------------

 ------------------
 Phi Psi fixed scan
 ------------------
 Symbolic Z-matrix:
 Charge =  0 Multiplicity = 1

 SCF Done:  E(RB3LYP) =  -495.828360340     A.U. after   14 cycles

  Exact polarizability:   0.000   0.000   0.000   0.000   0.000   0.000
 Approx polarizability: 120.639   1.063 126.249  -7.533  -7.481  88.083

 SCF Done:  E(RB3LYP) =  -495.835052151     A.U. after   13 cycles
 SCF Done:  E(RB3LYP) =  -495.843740569     A.U. after   13 cycles
 SCF Done:  E(RB3LYP) =  -495.841927694     A.U. after   15 cycles
 SCF Done:  E(RB3LYP) =  -495.844106282     A.U. after   13 cycles
 SCF Done:  E(RB3LYP) =  -495.844832087     A.U. after   12 cycles
 SCF Done:  E(RB3LYP) =  -495.845913396     A.U. after   12 cycles
 SCF Done:  E(RB3LYP) =  -495.845443050     A.U. after   13 cycles
 SCF Done:  E(RB3LYP) =  -495.846510206     A.U. after   12 cycles
 SCF Done:  E(RB3LYP) =  -495.846450116     A.U. after   12 cycles
 SCF Done:  E(RB3LYP) =  -495.846648994     A.U. after   12 cycles
 SCF Done:  E(RB3LYP) =  -495.846592450     A.U. after   12 cycles
 SCF Done:  E(RB3LYP) =  -495.846687274     A.U. after   12 cycles
 SCF Done:  E(RB3LYP) =  -495.846721315     A.U. after   11 cycles
 SCF Done:  E(RB3LYP) =  -495.846730028     A.U. after   10 cycles
 SCF Done:  E(RB3LYP) =  -495.846736749     A.U. after   10 cycles
 SCF Done:  E(RB3LYP) =  -495.846739800     A.U. after   10 cycles
 SCF Done:  E(RB3LYP) =  -495.846742177     A.U. after    9 cycles
 SCF Done:  E(RB3LYP) =  -495.846742493     A.U. after    9 cycles
 SCF Done:  E(RB3LYP) =  -495.846742590     A.U. after    7 cycles
 Optimization completed.
    -- Stationary point found.

                         Standard orientation:
 ---------------------------------------------------------------------
 Center     Atomic      Atomic             Coordinates (Angstroms)
 Number     Number       Type             X           Y           Z
 ---------------------------------------------------------------------
      1          1           0       -4.216043   -1.070367   -0.174663
      2          6           0       -3.203011   -1.262152    0.185079
      3          1           0       -2.827672   -2.191230   -0.255445
      4          1           0       -3.251474   -1.392672    1.272892
      5          6           0       -2.332954   -0.052186   -0.136512
      6          8           0       -2.790416    1.084639   -0.144453
      7          7           0       -1.030514   -0.361685   -0.439868
      8          1           0       -0.728360   -1.305999   -0.212537
      9          6           0        0.096233    0.564556   -0.406129
     10          1           0        0.239199    1.012399   -1.400183
     11          6           0       -0.038664    1.698362    0.632913
     12          1           0       -0.109878    1.279419    1.642519
     13          1           0        0.837582    2.354965    0.595447
     14          1           0       -0.937150    2.281294    0.434839
     15          6           0        1.338012   -0.287190   -0.057254
     16          8           0        1.235171   -1.426174    0.392042
     17          7           0        2.531821    0.320022   -0.286965
     18          1           0        2.529447    1.258615   -0.660452
     19          6           0        3.808652   -0.296070    0.033624
     20          1           0        3.604136   -1.305509    0.391603
     21          1           0        4.448599   -0.351384   -0.854043
     22          1           0        4.334813    0.262464    0.816806
 ---------------------------------------------------------------------

 The electronic state is 1-A.
 Alpha  occ. eigenvalues --  -19.12868 -19.10072 -14.37716 -14.34678 -10.29911
 Alpha  occ. eigenvalues --  -10.27923 -10.24150 -10.22905 -10.18262 -10.18252
 Alpha  occ. eigenvalues --   -1.04842  -1.01867  -0.93526  -0.91351  -0.78067
 Alpha  occ. eigenvalues --   -0.72642  -0.71078  -0.65052  -0.60000  -0.55802
 Alpha  occ. eigenvalues --   -0.53763  -0.48975  -0.47610  -0.46259  -0.45106
 Alpha  occ. eigenvalues --   -0.44212  -0.43075  -0.41020  -0.40405  -0.40239
 Alpha  occ. eigenvalues --   -0.38664  -0.38533  -0.36776  -0.36643  -0.34231
 Alpha  occ. eigenvalues --   -0.26840  -0.26829  -0.24857  -0.23556
 Alpha virt. eigenvalues --    0.01556   0.03438   0.06117   0.10246   0.11243
 Alpha virt. eigenvalues --    0.13641   0.14236   0.14422   0.15204   0.15907
 Alpha virt. eigenvalues --    0.16090   0.17489   0.18360   0.19010   0.20288

 Mulliken atomic charges:
              1
     1  H    0.182424
     2  C   -0.540761
     3  H    0.156275
     4  H    0.178522
     5  C    0.588956
     6  O   -0.511741
     7  N   -0.616346
     8  H    0.348766
     9  C   -0.008456
    10  H    0.155801
    11  C   -0.461039
    12  H    0.157538
    13  H    0.126906
    14  H    0.214236
    15  C    0.592638
    16  O   -0.527240
    17  N   -0.587932
    18  H    0.331118
    19  C   -0.313120
    20  H    0.207757
    21  H    0.162543
    22  H    0.163157
 Sum of Mulliken atomic charges =   0.00000

 Dipole moment (field-independent basis, Debye):
    X=              3.8944    Y=              0.2896    Z=             -0.4915  Tot=              3.9360
 Quadrupole moment (field-independent basis, Debye-Ang):
   XX=            -55.8717   YY=            -61.9899   ZZ=            -59.8943
   XY=             12.1528   XZ=             -3.2649   YZ=              0.1388

 Normal termination of Gaussian 09 at Fri Feb 10 20:22:05 2017.
