 Gaussian 09, Revision A.02,
 Gaussian 09:  EM64L-G09RevA.02 11-Jun-2009

 ----------------------------------------------------------------------
 # b3lyp/6-31G* Opt=(ModRedundant, maxcycles=1000, calcfc) geom=nocrowd
 ----------------------------------------------------------------------

 ------------------
 Phi Psi fixed scan
 ------------------
 Symbolic Z-matrix:
 Charge =  0 Multiplicity = 1

 SCF Done:  E(RB3LYP) =  -495.816722036     A.U. after   15 cycles

  Exact polarizability:   0.000   0.000   0.000   0.000   0.000   0.000
 Approx polarizability: 117.538   7.005 131.304   1.595  -8.002  87.076

 SCF Done:  E(RB3LYP) =  -495.824090306     A.U. after   16 cycles
 SCF Done:  E(RB3LYP) =  -495.831518024     A.U. after   13 cycles
 SCF Done:  E(RB3LYP) =  -495.827753171     A.U. after   14 cycles
 SCF Done:  E(RB3LYP) =  -495.834062671     A.U. after   13 cycles
 SCF Done:  E(RB3LYP) =  -495.835236923     A.U. after   12 cycles
 SCF Done:  E(RB3LYP) =  -495.836872290     A.U. after   12 cycles
 SCF Done:  E(RB3LYP) =  -495.837567945     A.U. after   12 cycles
 SCF Done:  E(RB3LYP) =  -495.837849234     A.U. after   12 cycles
 SCF Done:  E(RB3LYP) =  -495.838115703     A.U. after   12 cycles
 SCF Done:  E(RB3LYP) =  -495.838228189     A.U. after   10 cycles
 SCF Done:  E(RB3LYP) =  -495.838231739     A.U. after    8 cycles
 SCF Done:  E(RB3LYP) =  -495.838236898     A.U. after   10 cycles
 SCF Done:  E(RB3LYP) =  -495.838239459     A.U. after   11 cycles
 SCF Done:  E(RB3LYP) =  -495.838241930     A.U. after   10 cycles
 SCF Done:  E(RB3LYP) =  -495.838242102     A.U. after    7 cycles
 SCF Done:  E(RB3LYP) =  -495.838242104     A.U. after    8 cycles
 SCF Done:  E(RB3LYP) =  -495.838242128     A.U. after    6 cycles
 SCF Done:  E(RB3LYP) =  -495.838242156     A.U. after    6 cycles
 SCF Done:  E(RB3LYP) =  -495.838242162     A.U. after    6 cycles
 Optimization completed.
    -- Stationary point found.

                         Standard orientation:
 ---------------------------------------------------------------------
 Center     Atomic      Atomic             Coordinates (Angstroms)
 Number     Number       Type             X           Y           Z
 ---------------------------------------------------------------------
      1          1           0       -3.773765   -1.762805    0.274729
      2          6           0       -2.741338   -1.625492    0.601322
      3          1           0       -2.165892   -2.530856    0.380035
      4          1           0       -2.746360   -1.479987    1.688467
      5          6           0       -2.178208   -0.379192   -0.074662
      6          8           0       -2.893231    0.553452   -0.406890
      7          7           0       -0.816068   -0.428224   -0.300808
      8          1           0       -0.350690   -1.185893    0.184563
      9          6           0        0.054224    0.755421   -0.504196
     10          1           0        0.140322    0.933662   -1.587013
     11          6           0       -0.435233    2.041577    0.164936
     12          1           0       -0.532564    1.900720    1.245755
     13          1           0        0.304483    2.828345   -0.001260
     14          1           0       -1.399862    2.339559   -0.242338
     15          6           0        1.465871    0.403223    0.023705
     16          8           0        2.111667    1.150469    0.740777
     17          7           0        1.924744   -0.835878   -0.357910
     18          1           0        1.456866   -1.288504   -1.133057
     19          6           0        3.280912   -1.265118   -0.045596
     20          1           0        3.551138   -0.859271    0.929969
     21          1           0        3.320881   -2.357393   -0.010729
     22          1           0        4.009851   -0.902736   -0.782236
 ---------------------------------------------------------------------

 The electronic state is 1-A.
 Alpha  occ. eigenvalues --  -19.12545 -19.11203 -14.37469 -14.36275 -10.29632
 Alpha  occ. eigenvalues --  -10.28992 -10.24107 -10.22846 -10.19411 -10.16642
 Alpha  occ. eigenvalues --   -1.04539  -1.03025  -0.93768  -0.91661  -0.77860
 Alpha  occ. eigenvalues --   -0.72697  -0.71808  -0.64233  -0.59174  -0.56956
 Alpha  occ. eigenvalues --   -0.53895  -0.48654  -0.48180  -0.46979  -0.45483
 Alpha  occ. eigenvalues --   -0.44403  -0.42750  -0.41294  -0.40365  -0.39929
 Alpha  occ. eigenvalues --   -0.38951  -0.38093  -0.36626  -0.36182  -0.34659
 Alpha  occ. eigenvalues --   -0.27451  -0.26627  -0.25202  -0.24473
 Alpha virt. eigenvalues --    0.00726   0.02687   0.06619   0.08746   0.11628
 Alpha virt. eigenvalues --    0.12334   0.13003   0.14485   0.15073   0.15417
 Alpha virt. eigenvalues --    0.16827   0.17132   0.17893   0.18807   0.20719

 Mulliken atomic charges:
              1
     1  H    0.188923
     2  C   -0.546041
     3  H    0.150988
     4  H    0.181247
     5  C    0.596554
     6  O   -0.492966
     7  N   -0.630944
     8  H    0.326673
     9  C   -0.016986
    10  H    0.166534
    11  C   -0.444902
    12  H    0.149760
    13  H    0.160719
    14  H    0.190000
    15  C    0.567581
    16  O   -0.497005
    17  N   -0.597797
    18  H    0.332437
    19  C   -0.304893
    20  H    0.199865
    21  H    0.155479
    22  H    0.164775
 Sum of Mulliken atomic charges =   0.00000

 Dipole moment (field-independent basis, Debye):
    X=              1.9954    Y=             -4.3486    Z=             -0.8013  Tot=              4.8511
 Quadrupole moment (field-independent basis, Debye-Ang):
   XX=            -67.2612   YY=            -57.9537   ZZ=            -59.1715
   XY=             -1.3736   XZ=             -7.3815   YZ=             -1.4726

 Normal termination of Gaussian 09 at Fri Feb 10 20:39:01 2017.
