 Gaussian 09, Revision A.02,
 Gaussian 09:  EM64L-G09RevA.02 11-Jun-2009

 ----------------------------------------------------------------------
 # b3lyp/6-31G* Opt=(ModRedundant, maxcycles=1000, calcfc) geom=nocrowd
 ----------------------------------------------------------------------

 ------------------
 Phi Psi fixed scan
 ------------------
 Symbolic Z-matrix:
 Charge =  0 Multiplicity = 1

 SCF Done:  E(RB3LYP) =  -495.818565505     A.U. after   15 cycles

  Exact polarizability:   0.000   0.000   0.000   0.000   0.000   0.000
 Approx polarizability: 117.167  -9.359 126.716   1.564   9.536  92.093

 SCF Done:  E(RB3LYP) =  -495.826086727     A.U. after   13 cycles
 SCF Done:  E(RB3LYP) =  -495.833437305     A.U. after   13 cycles
 SCF Done:  E(RB3LYP) =  -495.831463415     A.U. after   14 cycles
 SCF Done:  E(RB3LYP) =  -495.836173792     A.U. after   13 cycles
 SCF Done:  E(RB3LYP) =  -495.836880747     A.U. after   12 cycles
 SCF Done:  E(RB3LYP) =  -495.837818739     A.U. after   12 cycles
 SCF Done:  E(RB3LYP) =  -495.838071574     A.U. after   12 cycles
 SCF Done:  E(RB3LYP) =  -495.838303788     A.U. after   12 cycles
 SCF Done:  E(RB3LYP) =  -495.837377340     A.U. after   12 cycles
 SCF Done:  E(RB3LYP) =  -495.838428593     A.U. after   11 cycles
 SCF Done:  E(RB3LYP) =  -495.838523290     A.U. after   12 cycles
 SCF Done:  E(RB3LYP) =  -495.838530198     A.U. after   10 cycles
 SCF Done:  E(RB3LYP) =  -495.838533877     A.U. after   10 cycles
 SCF Done:  E(RB3LYP) =  -495.838535666     A.U. after   10 cycles
 SCF Done:  E(RB3LYP) =  -495.838536229     A.U. after    7 cycles
 SCF Done:  E(RB3LYP) =  -495.838536591     A.U. after    8 cycles
 SCF Done:  E(RB3LYP) =  -495.838537150     A.U. after    9 cycles
 SCF Done:  E(RB3LYP) =  -495.838537436     A.U. after    9 cycles
 SCF Done:  E(RB3LYP) =  -495.838537456     A.U. after    7 cycles
 Optimization completed.
    -- Stationary point found.

                         Standard orientation:
 ---------------------------------------------------------------------
 Center     Atomic      Atomic             Coordinates (Angstroms)
 Number     Number       Type             X           Y           Z
 ---------------------------------------------------------------------
      1          1           0       -3.749638   -1.825538    0.184838
      2          6           0       -2.757539   -1.635707    0.599508
      3          1           0       -2.134486   -2.527465    0.472309
      4          1           0       -2.873033   -1.447162    1.673460
      5          6           0       -2.181221   -0.390919   -0.068727
      6          8           0       -2.893736    0.538738   -0.417399
      7          7           0       -0.817466   -0.432994   -0.257717
      8          1           0       -0.349370   -1.217412    0.177317
      9          6           0        0.060841    0.730403   -0.520656
     10          1           0        0.173193    0.840432   -1.610213
     11          6           0       -0.434656    2.054590    0.061052
     12          1           0       -0.533333    1.982008    1.147399
     13          1           0        0.304018    2.832060   -0.153640
     14          1           0       -1.397179    2.324885   -0.369407
     15          6           0        1.446371    0.385022    0.077314
     16          8           0        1.964546    1.026572    0.977543
     17          7           0        2.020038   -0.736351   -0.469300
     18          1           0        1.610746   -1.112880   -1.314163
     19          6           0        3.349258   -1.190624   -0.090701
     20          1           0        3.593189   -0.731715    0.868006
     21          1           0        3.366035   -2.280545    0.010821
     22          1           0        4.107052   -0.890313   -0.825500
 ---------------------------------------------------------------------

 The electronic state is 1-A.
 Alpha  occ. eigenvalues --  -19.12443 -19.10908 -14.37498 -14.36307 -10.29570
 Alpha  occ. eigenvalues --  -10.28851 -10.24095 -10.22809 -10.19285 -10.16590
 Alpha  occ. eigenvalues --   -1.04430  -1.02790  -0.93623  -0.91737  -0.77880
 Alpha  occ. eigenvalues --   -0.72674  -0.71762  -0.64258  -0.59193  -0.57015
 Alpha  occ. eigenvalues --   -0.53817  -0.48972  -0.48158  -0.46848  -0.45578
 Alpha  occ. eigenvalues --   -0.44280  -0.42653  -0.41161  -0.40204  -0.39823
 Alpha  occ. eigenvalues --   -0.38620  -0.38085  -0.36765  -0.36106  -0.34652
 Alpha  occ. eigenvalues --   -0.27362  -0.26395  -0.25020  -0.24302
 Alpha virt. eigenvalues --    0.00792   0.03118   0.06519   0.08242   0.11573
 Alpha virt. eigenvalues --    0.12439   0.13038   0.14682   0.15385   0.15645
 Alpha virt. eigenvalues --    0.16783   0.17156   0.18076   0.18888   0.20803

 Mulliken atomic charges:
              1
     1  H    0.187735
     2  C   -0.543396
     3  H    0.146907
     4  H    0.183738
     5  C    0.598836
     6  O   -0.497606
     7  N   -0.625750
     8  H    0.327188
     9  C   -0.005711
    10  H    0.154678
    11  C   -0.443676
    12  H    0.158703
    13  H    0.151492
    14  H    0.190214
    15  C    0.558188
    16  O   -0.495780
    17  N   -0.591828
    18  H    0.331028
    19  C   -0.310849
    20  H    0.205258
    21  H    0.157203
    22  H    0.163430
 Sum of Mulliken atomic charges =   0.00000

 Dipole moment (field-independent basis, Debye):
    X=              2.3413    Y=             -4.1657    Z=             -1.2617  Tot=              4.9424
 Quadrupole moment (field-independent basis, Debye-Ang):
   XX=            -65.9214   YY=            -57.7509   ZZ=            -59.6929
   XY=             -0.5224   XZ=             -8.2389   YZ=             -1.6823

 Normal termination of Gaussian 09 at Fri Feb 10 20:42:01 2017.
