 Gaussian 09, Revision A.02,
 Gaussian 09:  EM64L-G09RevA.02 11-Jun-2009

 ----------------------------------------------------------------------
 # b3lyp/6-31G* Opt=(ModRedundant, maxcycles=1000, calcfc) geom=nocrowd
 ----------------------------------------------------------------------

 ------------------
 Phi Psi fixed scan
 ------------------
 Symbolic Z-matrix:
 Charge =  0 Multiplicity = 1

 SCF Done:  E(RB3LYP) =  -495.820965259     A.U. after   15 cycles

  Exact polarizability:   0.000   0.000   0.000   0.000   0.000   0.000
 Approx polarizability: 118.404 -13.384 113.745  -2.327   7.739 104.453

 SCF Done:  E(RB3LYP) =  -495.828216999     A.U. after   13 cycles
 SCF Done:  E(RB3LYP) =  -495.837249408     A.U. after   13 cycles
 SCF Done:  E(RB3LYP) =  -495.834464538     A.U. after   15 cycles
 SCF Done:  E(RB3LYP) =  -495.837312836     A.U. after   15 cycles
 SCF Done:  E(RB3LYP) =  -495.837755716     A.U. after   11 cycles
 SCF Done:  E(RB3LYP) =  -495.838355958     A.U. after   12 cycles
 SCF Done:  E(RB3LYP) =  -495.821445733     A.U. after   15 cycles
 SCF Done:  E(RB3LYP) =  -495.838456478     A.U. after   14 cycles
 SCF Done:  E(RB3LYP) =  -495.838566826     A.U. after   11 cycles
 SCF Done:  E(RB3LYP) =  -495.838759480     A.U. after   11 cycles
 SCF Done:  E(RB3LYP) =  -495.838869247     A.U. after   12 cycles
 SCF Done:  E(RB3LYP) =  -495.838876834     A.U. after    9 cycles
 SCF Done:  E(RB3LYP) =  -495.838878044     A.U. after   10 cycles
 SCF Done:  E(RB3LYP) =  -495.838878397     A.U. after    8 cycles
 SCF Done:  E(RB3LYP) =  -495.838878662     A.U. after    7 cycles
 SCF Done:  E(RB3LYP) =  -495.838879534     A.U. after    9 cycles
 SCF Done:  E(RB3LYP) =  -495.838880509     A.U. after   10 cycles
 SCF Done:  E(RB3LYP) =  -495.838880856     A.U. after    9 cycles
 SCF Done:  E(RB3LYP) =  -495.838880905     A.U. after    7 cycles
 Optimization completed.
    -- Stationary point found.

                         Standard orientation:
 ---------------------------------------------------------------------
 Center     Atomic      Atomic             Coordinates (Angstroms)
 Number     Number       Type             X           Y           Z
 ---------------------------------------------------------------------
      1          1           0       -3.887582   -1.690281    0.048606
      2          6           0       -2.891913   -1.576319    0.481677
      3          1           0       -2.323435   -2.500772    0.334107
      4          1           0       -3.008608   -1.413983    1.559865
      5          6           0       -2.227128   -0.352979   -0.141225
      6          8           0       -2.876190    0.614424   -0.512006
      7          7           0       -0.859639   -0.455680   -0.266292
      8          1           0       -0.452475   -1.264450    0.184947
      9          6           0        0.076030    0.670661   -0.469619
     10          1           0        0.226473    0.804347   -1.550821
     11          6           0       -0.374670    2.002284    0.138081
     12          1           0       -0.459512    1.904976    1.223210
     13          1           0        0.383801    2.763846   -0.074607
     14          1           0       -1.331336    2.313305   -0.277632
     15          6           0        1.405951    0.241901    0.191544
     16          8           0        1.633146    0.423487    1.380134
     17          7           0        2.261337   -0.417771   -0.645454
     18          1           0        2.020175   -0.479594   -1.624474
     19          6           0        3.560673   -0.908041   -0.217287
     20          1           0        3.626136   -0.757629    0.861052
     21          1           0        3.669543   -1.975026   -0.442012
     22          1           0        4.375637   -0.358908   -0.704059
 ---------------------------------------------------------------------

 The electronic state is 1-A.
 Alpha  occ. eigenvalues --  -19.12095 -19.10763 -14.37522 -14.36112 -10.29372
 Alpha  occ. eigenvalues --  -10.28652 -10.24025 -10.22725 -10.19049 -10.16755
 Alpha  occ. eigenvalues --   -1.04176  -1.02612  -0.93225  -0.91881  -0.77857
 Alpha  occ. eigenvalues --   -0.72697  -0.71548  -0.64315  -0.59280  -0.56810
 Alpha  occ. eigenvalues --   -0.53708  -0.48884  -0.48003  -0.46609  -0.45545
 Alpha  occ. eigenvalues --   -0.44173  -0.42460  -0.40979  -0.40084  -0.39793
 Alpha  occ. eigenvalues --   -0.38738  -0.38178  -0.36752  -0.35876  -0.34596
 Alpha  occ. eigenvalues --   -0.26858  -0.26191  -0.25026  -0.24165
 Alpha virt. eigenvalues --    0.01132   0.03177   0.06516   0.07753   0.11476
 Alpha virt. eigenvalues --    0.13036   0.13532   0.14918   0.15613   0.15697
 Alpha virt. eigenvalues --    0.16743   0.17341   0.18286   0.19181   0.20917

 Mulliken atomic charges:
              1
     1  H    0.186683
     2  C   -0.544250
     3  H    0.149367
     4  H    0.184261
     5  C    0.598828
     6  O   -0.499635
     7  N   -0.613988
     8  H    0.331316
     9  C    0.011497
    10  H    0.138020
    11  C   -0.457184
    12  H    0.171231
    13  H    0.140547
    14  H    0.195377
    15  C    0.548021
    16  O   -0.503487
    17  N   -0.582390
    18  H    0.330657
    19  C   -0.314167
    20  H    0.206852
    21  H    0.159310
    22  H    0.163134
 Sum of Mulliken atomic charges =   0.00000

 Dipole moment (field-independent basis, Debye):
    X=              2.9471    Y=             -3.1002    Z=             -1.9001  Tot=              4.6805
 Quadrupole moment (field-independent basis, Debye-Ang):
   XX=            -61.7568   YY=            -57.3175   ZZ=            -61.4327
   XY=              2.8082   XZ=             -9.9249   YZ=             -1.0539

 Normal termination of Gaussian 09 at Fri Feb 10 20:43:12 2017.
