 Gaussian 09, Revision A.02,
 Gaussian 09:  EM64L-G09RevA.02 11-Jun-2009

 ----------------------------------------------------------------------
 # b3lyp/6-31G* Opt=(ModRedundant, maxcycles=1000, calcfc) geom=nocrowd
 ----------------------------------------------------------------------

 ------------------
 Phi Psi fixed scan
 ------------------
 Symbolic Z-matrix:
 Charge =  0 Multiplicity = 1

 SCF Done:  E(RB3LYP) =  -495.828434653     A.U. after   14 cycles

  Exact polarizability:   0.000   0.000   0.000   0.000   0.000   0.000
 Approx polarizability: 120.503  -2.252 130.535  -5.131   4.678  84.072

 SCF Done:  E(RB3LYP) =  -495.835245219     A.U. after   16 cycles
 SCF Done:  E(RB3LYP) =  -495.841256159     A.U. after   13 cycles
 SCF Done:  E(RB3LYP) =  -495.840131505     A.U. after   13 cycles
 SCF Done:  E(RB3LYP) =  -495.844047874     A.U. after   12 cycles
 SCF Done:  E(RB3LYP) =  -495.844782627     A.U. after   12 cycles
 SCF Done:  E(RB3LYP) =  -495.845786903     A.U. after   12 cycles
 SCF Done:  E(RB3LYP) =  -495.846162013     A.U. after   12 cycles
 SCF Done:  E(RB3LYP) =  -495.846148402     A.U. after   11 cycles
 SCF Done:  E(RB3LYP) =  -495.846172883     A.U. after   10 cycles
 SCF Done:  E(RB3LYP) =  -495.846421336     A.U. after   11 cycles
 SCF Done:  E(RB3LYP) =  -495.846457966     A.U. after   11 cycles
 SCF Done:  E(RB3LYP) =  -495.846485743     A.U. after   11 cycles
 SCF Done:  E(RB3LYP) =  -495.846493788     A.U. after   10 cycles
 SCF Done:  E(RB3LYP) =  -495.846497780     A.U. after   10 cycles
 SCF Done:  E(RB3LYP) =  -495.846498660     A.U. after   10 cycles
 SCF Done:  E(RB3LYP) =  -495.846498896     A.U. after    8 cycles
 SCF Done:  E(RB3LYP) =  -495.846498948     A.U. after    7 cycles
 SCF Done:  E(RB3LYP) =  -495.846498946     A.U. after    7 cycles
 SCF Done:  E(RB3LYP) =  -495.846498933     A.U. after    6 cycles
 Optimization completed.
    -- Stationary point found.

                         Standard orientation:
 ---------------------------------------------------------------------
 Center     Atomic      Atomic             Coordinates (Angstroms)
 Number     Number       Type             X           Y           Z
 ---------------------------------------------------------------------
      1          1           0       -4.189648   -1.115329   -0.148097
      2          6           0       -3.194629   -1.258779    0.279548
      3          1           0       -2.780957   -2.209514   -0.070829
      4          1           0       -3.305750   -1.309651    1.369006
      5          6           0       -2.332661   -0.051697   -0.075795
      6          8           0       -2.796629    1.083509   -0.078811
      7          7           0       -1.041320   -0.364554   -0.406513
      8          1           0       -0.734020   -1.319291   -0.240164
      9          6           0        0.095147    0.545945   -0.476301
     10          1           0        0.217518    0.910132   -1.507953
     11          6           0       -0.014495    1.763094    0.464132
     12          1           0       -0.023677    1.440682    1.510828
     13          1           0        0.831944    2.444082    0.321589
     14          1           0       -0.938640    2.302878    0.262523
     15          6           0        1.339086   -0.309686   -0.122729
     16          8           0        1.243231   -1.508041    0.134221
     17          7           0        2.524115    0.353625   -0.129089
     18          1           0        2.525309    1.338643   -0.349355
     19          6           0        3.792761   -0.290753    0.168176
     20          1           0        3.589792   -1.345557    0.354841
     21          1           0        4.485384   -0.201249   -0.676463
     22          1           0        4.259117    0.148197    1.057815
 ---------------------------------------------------------------------

 The electronic state is 1-A.
 Alpha  occ. eigenvalues --  -19.12912 -19.09856 -14.37694 -14.34658 -10.29979
 Alpha  occ. eigenvalues --  -10.27875 -10.24294 -10.22899 -10.18406 -10.18198
 Alpha  occ. eigenvalues --   -1.04893  -1.01696  -0.93534  -0.91322  -0.78109
 Alpha  occ. eigenvalues --   -0.72602  -0.70995  -0.65331  -0.60100  -0.55737
 Alpha  occ. eigenvalues --   -0.53818  -0.49203  -0.47609  -0.46203  -0.45162
 Alpha  occ. eigenvalues --   -0.44188  -0.42982  -0.41157  -0.40376  -0.40197
 Alpha  occ. eigenvalues --   -0.38735  -0.38442  -0.36935  -0.36674  -0.34191
 Alpha  occ. eigenvalues --   -0.26985  -0.26769  -0.24600  -0.23470
 Alpha virt. eigenvalues --    0.01536   0.03698   0.06055   0.10461   0.11122
 Alpha virt. eigenvalues --    0.13608   0.13980   0.14591   0.15187   0.15718
 Alpha virt. eigenvalues --    0.16008   0.17551   0.18687   0.19309   0.20709

 Mulliken atomic charges:
              1
     1  H    0.181918
     2  C   -0.537919
     3  H    0.153757
     4  H    0.178530
     5  C    0.591685
     6  O   -0.515717
     7  N   -0.619724
     8  H    0.351992
     9  C   -0.013766
    10  H    0.164884
    11  C   -0.466742
    12  H    0.157001
    13  H    0.122716
    14  H    0.218320
    15  C    0.600222
    16  O   -0.528761
    17  N   -0.591222
    18  H    0.332382
    19  C   -0.313262
    20  H    0.208049
    21  H    0.162230
    22  H    0.163427
 Sum of Mulliken atomic charges =   0.00000

 Dipole moment (field-independent basis, Debye):
    X=              3.9368    Y=              0.4151    Z=             -0.1276  Tot=              3.9607
 Quadrupole moment (field-independent basis, Debye-Ang):
   XX=            -56.2857   YY=            -62.2964   ZZ=            -59.5682
   XY=             12.3950   XZ=             -1.8709   YZ=             -0.3918

 Normal termination of Gaussian 09 at Fri Feb 10 20:23:49 2017.
