 Gaussian 09, Revision A.02,
 Gaussian 09:  EM64L-G09RevA.02 11-Jun-2009

 ----------------------------------------------------------------------
 # b3lyp/6-31G* Opt=(ModRedundant, maxcycles=1000, calcfc) geom=nocrowd
 ----------------------------------------------------------------------

 ------------------
 Phi Psi fixed scan
 ------------------
 Symbolic Z-matrix:
 Charge =  0 Multiplicity = 1

 SCF Done:  E(RB3LYP) =  -495.819029455     A.U. after   15 cycles

  Exact polarizability:   0.000   0.000   0.000   0.000   0.000   0.000
 Approx polarizability: 114.264  -8.071 124.605   0.242  11.256  98.406

 SCF Done:  E(RB3LYP) =  -495.828311811     A.U. after   13 cycles
 SCF Done:  E(RB3LYP) =  -495.838648628     A.U. after   16 cycles
 SCF Done:  E(RB3LYP) =  -495.837118072     A.U. after   15 cycles
 SCF Done:  E(RB3LYP) =  -495.839000070     A.U. after   13 cycles
 SCF Done:  E(RB3LYP) =  -495.839524674     A.U. after   12 cycles
 SCF Done:  E(RB3LYP) =  -495.840141164     A.U. after   12 cycles
 SCF Done:  E(RB3LYP) =  -495.820868251     A.U. after   15 cycles
 SCF Done:  E(RB3LYP) =  -495.840273115     A.U. after   15 cycles
 SCF Done:  E(RB3LYP) =  -495.840493554     A.U. after   12 cycles
 SCF Done:  E(RB3LYP) =  -495.840622890     A.U. after   12 cycles
 SCF Done:  E(RB3LYP) =  -495.840606414     A.U. after   10 cycles
 SCF Done:  E(RB3LYP) =  -495.840625338     A.U. after   10 cycles
 SCF Done:  E(RB3LYP) =  -495.840659136     A.U. after   11 cycles
 SCF Done:  E(RB3LYP) =  -495.840670583     A.U. after   11 cycles
 SCF Done:  E(RB3LYP) =  -495.840671108     A.U. after   10 cycles
 SCF Done:  E(RB3LYP) =  -495.840671308     A.U. after    7 cycles
 SCF Done:  E(RB3LYP) =  -495.840671592     A.U. after    8 cycles
 SCF Done:  E(RB3LYP) =  -495.840671545     A.U. after    7 cycles
 SCF Done:  E(RB3LYP) =  -495.840671482     A.U. after    6 cycles
 Optimization completed.
    -- Stationary point found.

                         Standard orientation:
 ---------------------------------------------------------------------
 Center     Atomic      Atomic             Coordinates (Angstroms)
 Number     Number       Type             X           Y           Z
 ---------------------------------------------------------------------
      1          1           0        3.914664   -1.404686    0.136520
      2          6           0        3.022896   -1.395911   -0.498495
      3          1           0        2.480578   -2.336632   -0.362026
      4          1           0        3.363359   -1.328430   -1.535910
      5          6           0        2.206429   -0.147259   -0.175688
      6          8           0        2.665032    0.972673   -0.364660
      7          7           0        0.958644   -0.408758    0.323397
      8          1           0        0.733096   -1.372207    0.535784
      9          6           0       -0.069719    0.533897    0.788021
     10          1           0       -0.025477    0.597400    1.883982
     11          6           0        0.054809    1.947315    0.212121
     12          1           0        0.108744    1.945335   -0.881657
     13          1           0       -0.811244    2.538796    0.531471
     14          1           0        0.965278    2.430288    0.562831
     15          6           0       -1.405778   -0.188445    0.490305
     16          8           0       -1.713873   -1.172952    1.157802
     17          7           0       -2.128721    0.255123   -0.570856
     18          1           0       -1.798061    1.061801   -1.078376
     19          6           0       -3.362056   -0.382064   -1.000122
     20          1           0       -3.575620   -1.188250   -0.297390
     21          1           0       -4.194116    0.331148   -0.997231
     22          1           0       -3.259410   -0.802091   -2.007775
 ---------------------------------------------------------------------

 The electronic state is 1-A.
 Alpha  occ. eigenvalues --  -19.11666 -19.10314 -14.37186 -14.36082 -10.29108
 Alpha  occ. eigenvalues --  -10.28635 -10.24166 -10.22468 -10.18899 -10.18676
 Alpha  occ. eigenvalues --   -1.03824  -1.02281  -0.92894  -0.92002  -0.78357
 Alpha  occ. eigenvalues --   -0.72767  -0.71035  -0.65844  -0.59384  -0.56493
 Alpha  occ. eigenvalues --   -0.53575  -0.50737  -0.46949  -0.45605  -0.45279
 Alpha  occ. eigenvalues --   -0.44197  -0.42536  -0.41357  -0.40335  -0.39694
 Alpha  occ. eigenvalues --   -0.38761  -0.38609  -0.37821  -0.36632  -0.34981
 Alpha  occ. eigenvalues --   -0.26636  -0.25931  -0.24589  -0.23796
 Alpha virt. eigenvalues --    0.01536   0.03658   0.07299   0.08649   0.11216
 Alpha virt. eigenvalues --    0.12843   0.13921   0.14812   0.15540   0.15862
 Alpha virt. eigenvalues --    0.16730   0.17463   0.18146   0.18454   0.19291

 Mulliken atomic charges:
              1
     1  H    0.184282
     2  C   -0.535344
     3  H    0.146442
     4  H    0.183952
     5  C    0.594341
     6  O   -0.514666
     7  N   -0.614854
     8  H    0.339346
     9  C    0.015689
    10  H    0.168263
    11  C   -0.475651
    12  H    0.154981
    13  H    0.143712
    14  H    0.201357
    15  C    0.568656
    16  O   -0.527041
    17  N   -0.584659
    18  H    0.336473
    19  C   -0.313958
    20  H    0.206433
    21  H    0.160680
    22  H    0.161567
 Sum of Mulliken atomic charges =   0.00000

 Dipole moment (field-independent basis, Debye):
    X=             -1.9628    Y=             -0.1283    Z=             -1.6471  Tot=              2.5656
 Quadrupole moment (field-independent basis, Debye-Ang):
   XX=            -61.3818   YY=            -60.2711   ZZ=            -59.8147
   XY=            -11.3658   XZ=              7.4228   YZ=              3.0991

 Normal termination of Gaussian 09 at Fri Feb 10 20:31:34 2017.
