 Gaussian 09, Revision A.02,
 Gaussian 09:  EM64L-G09RevA.02 11-Jun-2009

 ----------------------------------------------------------------------
 # b3lyp/6-31G* Opt=(ModRedundant, maxcycles=1000, calcfc) geom=nocrowd
 ----------------------------------------------------------------------

 ------------------
 Phi Psi fixed scan
 ------------------
 Symbolic Z-matrix:
 Charge =  0 Multiplicity = 1

 SCF Done:  E(RB3LYP) =  -495.813640916     A.U. after   15 cycles

  Exact polarizability:   0.000   0.000   0.000   0.000   0.000   0.000
 Approx polarizability: 118.307   4.972 133.993   0.351  -5.592  83.583

 SCF Done:  E(RB3LYP) =  -495.821347587     A.U. after   13 cycles
 SCF Done:  E(RB3LYP) =  -495.830661179     A.U. after   16 cycles
 SCF Done:  E(RB3LYP) =  -495.824394311     A.U. after   14 cycles
 SCF Done:  E(RB3LYP) =  -495.832992797     A.U. after   13 cycles
 SCF Done:  E(RB3LYP) =  -495.833837392     A.U. after   12 cycles
 SCF Done:  E(RB3LYP) =  -495.834612293     A.U. after   12 cycles
 SCF Done:  E(RB3LYP) =  -495.835411189     A.U. after   12 cycles
 SCF Done:  E(RB3LYP) =  -495.758306332     A.U. after   16 cycles
 SCF Done:  E(RB3LYP) =  -495.835762329     A.U. after   15 cycles
 SCF Done:  E(RB3LYP) =  -495.836999826     A.U. after   13 cycles
 SCF Done:  E(RB3LYP) =  -495.837036044     A.U. after   11 cycles
 SCF Done:  E(RB3LYP) =  -495.837044800     A.U. after   10 cycles
 SCF Done:  E(RB3LYP) =  -495.837045584     A.U. after    8 cycles
 SCF Done:  E(RB3LYP) =  -495.837045868     A.U. after    7 cycles
 SCF Done:  E(RB3LYP) =  -495.837045914     A.U. after    7 cycles
 SCF Done:  E(RB3LYP) =  -495.837045994     A.U. after    7 cycles
 SCF Done:  E(RB3LYP) =  -495.837046099     A.U. after    7 cycles
 SCF Done:  E(RB3LYP) =  -495.837046156     A.U. after    7 cycles
 SCF Done:  E(RB3LYP) =  -495.837046164     A.U. after    6 cycles
 Optimization completed.
    -- Stationary point found.

                         Standard orientation:
 ---------------------------------------------------------------------
 Center     Atomic      Atomic             Coordinates (Angstroms)
 Number     Number       Type             X           Y           Z
 ---------------------------------------------------------------------
      1          1           0       -3.798388   -1.707201    0.297663
      2          6           0       -2.742261   -1.619607    0.558258
      3          1           0       -2.212770   -2.526284    0.246245
      4          1           0       -2.666314   -1.537925    1.649678
      5          6           0       -2.182909   -0.356751   -0.088763
      6          8           0       -2.893371    0.594276   -0.371734
      7          7           0       -0.824700   -0.416517   -0.360370
      8          1           0       -0.370920   -1.168722    0.146463
      9          6           0        0.048308    0.777233   -0.482257
     10          1           0        0.102567    1.047646   -1.547367
     11          6           0       -0.417809    2.007616    0.304392
     12          1           0       -0.502337    1.773646    1.371067
     13          1           0        0.328434    2.796830    0.194016
     14          1           0       -1.386094    2.348134   -0.058699
     15          6           0        1.483640    0.407884   -0.037183
     16          8           0        2.228769    1.215946    0.493639
     17          7           0        1.856325   -0.901802   -0.246390
     18          1           0        1.355626   -1.412902   -0.963295
     19          6           0        3.229041   -1.316197    0.019113
     20          1           0        3.531791   -0.922056    0.990284
     21          1           0        3.274852   -2.408004    0.039755
     22          1           0        3.930943   -0.937783   -0.735094
 ---------------------------------------------------------------------

 The electronic state is 1-A.
 Alpha  occ. eigenvalues --  -19.12583 -19.11495 -14.37496 -14.36259 -10.29702
 Alpha  occ. eigenvalues --  -10.29142 -10.24137 -10.22830 -10.19537 -10.16767
 Alpha  occ. eigenvalues --   -1.04623  -1.03266  -0.93872  -0.91656  -0.77852
 Alpha  occ. eigenvalues --   -0.72757  -0.71785  -0.64267  -0.59224  -0.56833
 Alpha  occ. eigenvalues --   -0.54006  -0.48328  -0.48184  -0.47113  -0.45380
 Alpha  occ. eigenvalues --   -0.44490  -0.42820  -0.41415  -0.40468  -0.40065
 Alpha  occ. eigenvalues --   -0.39284  -0.38221  -0.36470  -0.36201  -0.34683
 Alpha  occ. eigenvalues --   -0.27482  -0.26987  -0.25336  -0.24648
 Alpha virt. eigenvalues --    0.00747   0.02232   0.06498   0.09180   0.11683
 Alpha virt. eigenvalues --    0.12424   0.13056   0.14191   0.14866   0.15285
 Alpha virt. eigenvalues --    0.16812   0.17203   0.17808   0.18755   0.20642

 Mulliken atomic charges:
              1
     1  H    0.189900
     2  C   -0.547671
     3  H    0.154176
     4  H    0.179514
     5  C    0.593890
     6  O   -0.488399
     7  N   -0.632823
     8  H    0.324664
     9  C   -0.026638
    10  H    0.176350
    11  C   -0.450316
    12  H    0.143290
    13  H    0.169919
    14  H    0.191130
    15  C    0.577859
    16  O   -0.497915
    17  N   -0.604415
    18  H    0.333001
    19  C   -0.301323
    20  H    0.195467
    21  H    0.153835
    22  H    0.166504
 Sum of Mulliken atomic charges =   0.00000

 Dipole moment (field-independent basis, Debye):
    X=              1.6818    Y=             -4.4781    Z=             -0.4136  Tot=              4.8013
 Quadrupole moment (field-independent basis, Debye-Ang):
   XX=            -68.2218   YY=            -58.0039   ZZ=            -58.9177
   XY=             -1.7881   XZ=             -6.1664   YZ=             -1.0275

 Normal termination of Gaussian 09 at Fri Feb 10 20:43:27 2017.
