 Gaussian 09, Revision A.02,
 Gaussian 09:  EM64L-G09RevA.02 11-Jun-2009

 ----------------------------------------------------------------------
 # b3lyp/6-31G* Opt=(ModRedundant, maxcycles=1000, calcfc) geom=nocrowd
 ----------------------------------------------------------------------

 ------------------
 Phi Psi fixed scan
 ------------------
 Symbolic Z-matrix:
 Charge =  0 Multiplicity = 1

 SCF Done:  E(RB3LYP) =  -495.826007734     A.U. after   15 cycles

  Exact polarizability:   0.000   0.000   0.000   0.000   0.000   0.000
 Approx polarizability: 121.077  -5.233 113.003 -10.793  -8.970 101.953

 SCF Done:  E(RB3LYP) =  -495.832626654     A.U. after   12 cycles
 SCF Done:  E(RB3LYP) =  -495.840891518     A.U. after   13 cycles
 SCF Done:  E(RB3LYP) =  -495.840004877     A.U. after   14 cycles
 SCF Done:  E(RB3LYP) =  -495.841273491     A.U. after   13 cycles
 SCF Done:  E(RB3LYP) =  -495.841824745     A.U. after   11 cycles
 SCF Done:  E(RB3LYP) =  -495.842725938     A.U. after   12 cycles
 SCF Done:  E(RB3LYP) =  -495.843331967     A.U. after   14 cycles
 SCF Done:  E(RB3LYP) =  -495.842793863     A.U. after   12 cycles
 SCF Done:  E(RB3LYP) =  -495.843612443     A.U. after   12 cycles
 SCF Done:  E(RB3LYP) =  -495.844316183     A.U. after   12 cycles
 SCF Done:  E(RB3LYP) =  -495.844329030     A.U. after   11 cycles
 SCF Done:  E(RB3LYP) =  -495.844336948     A.U. after   12 cycles
 SCF Done:  E(RB3LYP) =  -495.844342562     A.U. after   10 cycles
 SCF Done:  E(RB3LYP) =  -495.844344947     A.U. after   10 cycles
 SCF Done:  E(RB3LYP) =  -495.844346240     A.U. after    9 cycles
 SCF Done:  E(RB3LYP) =  -495.844347894     A.U. after    9 cycles
 SCF Done:  E(RB3LYP) =  -495.844349147     A.U. after    9 cycles
 SCF Done:  E(RB3LYP) =  -495.844349270     A.U. after    7 cycles
 SCF Done:  E(RB3LYP) =  -495.844349267     A.U. after    6 cycles
 Optimization completed.
    -- Stationary point found.

                         Standard orientation:
 ---------------------------------------------------------------------
 Center     Atomic      Atomic             Coordinates (Angstroms)
 Number     Number       Type             X           Y           Z
 ---------------------------------------------------------------------
      1          1           0       -4.173921   -1.163942   -0.259003
      2          6           0       -3.146237   -1.352671    0.056466
      3          1           0       -2.765036   -2.245780   -0.449432
      4          1           0       -3.149796   -1.548077    1.135888
      5          6           0       -2.309631   -0.111912   -0.232087
      6          8           0       -2.804057    1.005698   -0.292061
      7          7           0       -0.974093   -0.371251   -0.456457
      8          1           0       -0.673392   -1.286944   -0.135925
      9          6           0        0.095008    0.622011   -0.299523
     10          1           0        0.256361    1.127719   -1.261107
     11          6           0       -0.157421    1.686154    0.787731
     12          1           0       -0.277987    1.200201    1.761059
     13          1           0        0.703497    2.362485    0.843515
     14          1           0       -1.055675    2.258957    0.560699
     15          6           0        1.353048   -0.164631    0.109361
     16          8           0        1.296351   -1.056732    0.951084
     17          7           0        2.494274    0.183334   -0.544077
     18          1           0        2.448538    0.927032   -1.226076
     19          6           0        3.791397   -0.390261   -0.225867
     20          1           0        3.624331   -1.201239    0.483971
     21          1           0        4.267991   -0.791067   -1.127022
     22          1           0        4.458481    0.352205    0.228499
 ---------------------------------------------------------------------

 The electronic state is 1-A.
 Alpha  occ. eigenvalues --  -19.12376 -19.10551 -14.37723 -14.35086 -10.29619
 Alpha  occ. eigenvalues --  -10.28184 -10.23969 -10.22817 -10.18528 -10.17767
 Alpha  occ. eigenvalues --   -1.04465  -1.02285  -0.93344  -0.91535  -0.77932
 Alpha  occ. eigenvalues --   -0.72685  -0.71298  -0.64612  -0.59729  -0.56057
 Alpha  occ. eigenvalues --   -0.53671  -0.48710  -0.47573  -0.46353  -0.45280
 Alpha  occ. eigenvalues --   -0.44153  -0.42846  -0.40902  -0.40335  -0.40063
 Alpha  occ. eigenvalues --   -0.38778  -0.38495  -0.36716  -0.36272  -0.34427
 Alpha  occ. eigenvalues --   -0.26593  -0.26430  -0.25384  -0.23851
 Alpha virt. eigenvalues --    0.01668   0.02896   0.06348   0.09445   0.11418
 Alpha virt. eigenvalues --    0.13748   0.13934   0.14695   0.15576   0.15977
 Alpha virt. eigenvalues --    0.16138   0.17119   0.18239   0.19015   0.20300

 Mulliken atomic charges:
              1
     1  H    0.184149
     2  C   -0.545371
     3  H    0.158802
     4  H    0.180219
     5  C    0.589282
     6  O   -0.503730
     7  N   -0.608836
     8  H    0.339727
     9  C    0.009631
    10  H    0.140893
    11  C   -0.462901
    12  H    0.164507
    13  H    0.135336
    14  H    0.206418
    15  C    0.571962
    16  O   -0.526446
    17  N   -0.583335
    18  H    0.330787
    19  C   -0.314160
    20  H    0.207498
    21  H    0.162366
    22  H    0.163201
 Sum of Mulliken atomic charges =   0.00000

 Dipole moment (field-independent basis, Debye):
    X=              3.6269    Y=             -0.3118    Z=             -1.4265  Tot=              3.9098
 Quadrupole moment (field-independent basis, Debye-Ang):
   XX=            -56.2038   YY=            -60.3430   ZZ=            -60.8359
   XY=             10.6959   XZ=             -6.2805   YZ=              1.0791

 Normal termination of Gaussian 09 at Fri Feb 10 20:18:41 2017.
