 Gaussian 09, Revision A.02,
 Gaussian 09:  EM64L-G09RevA.02 11-Jun-2009

 ----------------------------------------------------------------------
 # b3lyp/6-31G* Opt=(ModRedundant, maxcycles=1000, calcfc) geom=nocrowd
 ----------------------------------------------------------------------

 ------------------
 Phi Psi fixed scan
 ------------------
 Symbolic Z-matrix:
 Charge =  0 Multiplicity = 1

 SCF Done:  E(RB3LYP) =  -495.819021047     A.U. after   15 cycles

  Exact polarizability:   0.000   0.000   0.000   0.000   0.000   0.000
 Approx polarizability: 113.601  11.092 114.713  -3.873 -11.551 108.547

 SCF Done:  E(RB3LYP) =  -495.827540503     A.U. after   13 cycles
 SCF Done:  E(RB3LYP) =  -495.837298755     A.U. after   14 cycles
 SCF Done:  E(RB3LYP) =  -495.834706090     A.U. after   14 cycles
 SCF Done:  E(RB3LYP) =  -495.837442257     A.U. after   15 cycles
 SCF Done:  E(RB3LYP) =  -495.837998508     A.U. after   12 cycles
 SCF Done:  E(RB3LYP) =  -495.838726899     A.U. after   13 cycles
 SCF Done:  E(RB3LYP) =  -495.834720365     A.U. after   13 cycles
 SCF Done:  E(RB3LYP) =  -495.838964224     A.U. after   13 cycles
 SCF Done:  E(RB3LYP) =  -495.839100420     A.U. after   12 cycles
 SCF Done:  E(RB3LYP) =  -495.839323153     A.U. after   10 cycles
 SCF Done:  E(RB3LYP) =  -495.839334462     A.U. after   10 cycles
 SCF Done:  E(RB3LYP) =  -495.839356113     A.U. after   12 cycles
 SCF Done:  E(RB3LYP) =  -495.839395353     A.U. after   12 cycles
 SCF Done:  E(RB3LYP) =  -495.839413384     A.U. after   11 cycles
 SCF Done:  E(RB3LYP) =  -495.839415666     A.U. after   11 cycles
 SCF Done:  E(RB3LYP) =  -495.839420804     A.U. after   10 cycles
 SCF Done:  E(RB3LYP) =  -495.839421764     A.U. after    9 cycles
 SCF Done:  E(RB3LYP) =  -495.839421874     A.U. after    7 cycles
 SCF Done:  E(RB3LYP) =  -495.839421867     A.U. after    6 cycles
 Optimization completed.
    -- Stationary point found.

                         Standard orientation:
 ---------------------------------------------------------------------
 Center     Atomic      Atomic             Coordinates (Angstroms)
 Number     Number       Type             X           Y           Z
 ---------------------------------------------------------------------
      1          1           0        3.826957   -1.460656    0.401183
      2          6           0        2.996360   -1.478427   -0.312628
      3          1           0        2.418541   -2.395086   -0.158031
      4          1           0        3.429373   -1.493073   -1.316427
      5          6           0        2.186352   -0.194170   -0.155413
      6          8           0        2.650870    0.890282   -0.481685
      7          7           0        0.933717   -0.383346    0.369434
      8          1           0        0.718456   -1.312697    0.706846
      9          6           0       -0.070917    0.622541    0.750360
     10          1           0       -0.018871    0.784950    1.834555
     11          6           0        0.075122    1.974895    0.044524
     12          1           0        0.134015    1.876422   -1.044269
     13          1           0       -0.788732    2.598888    0.299598
     14          1           0        0.988399    2.479556    0.355989
     15          6           0       -1.438452   -0.067614    0.531603
     16          8           0       -1.925690   -0.759679    1.420465
     17          7           0       -1.995200    0.074417   -0.701611
     18          1           0       -1.512848    0.637562   -1.386194
     19          6           0       -3.233482   -0.580492   -1.085414
     20          1           0       -3.612467   -1.103831   -0.206766
     21          1           0       -3.977676    0.151584   -1.419221
     22          1           0       -3.066109   -1.306333   -1.890454
 ---------------------------------------------------------------------

 The electronic state is 1-A.
 Alpha  occ. eigenvalues --  -19.11604 -19.10632 -14.36904 -14.36431 -10.28916
 Alpha  occ. eigenvalues --  -10.28915 -10.24089 -10.22334 -10.19167 -10.18631
 Alpha  occ. eigenvalues --   -1.03681  -1.02581  -0.92873  -0.92055  -0.78387
 Alpha  occ. eigenvalues --   -0.72892  -0.71000  -0.65750  -0.59118  -0.56735
 Alpha  occ. eigenvalues --   -0.53556  -0.50831  -0.46948  -0.45552  -0.45190
 Alpha  occ. eigenvalues --   -0.44305  -0.42551  -0.41361  -0.40313  -0.39925
 Alpha  occ. eigenvalues --   -0.38946  -0.38271  -0.37923  -0.36589  -0.35247
 Alpha  occ. eigenvalues --   -0.26678  -0.25678  -0.24872  -0.23894
 Alpha virt. eigenvalues --    0.01651   0.03276   0.07020   0.08058   0.11331
 Alpha virt. eigenvalues --    0.12721   0.13577   0.14958   0.15814   0.15986
 Alpha virt. eigenvalues --    0.16425   0.17585   0.17998   0.18812   0.19318

 Mulliken atomic charges:
              1
     1  H    0.185080
     2  C   -0.536960
     3  H    0.146151
     4  H    0.185373
     5  C    0.592623
     6  O   -0.510373
     7  N   -0.614862
     8  H    0.336099
     9  C    0.004338
    10  H    0.169351
    11  C   -0.464008
    12  H    0.150858
    13  H    0.149219
    14  H    0.196794
    15  C    0.563783
    16  O   -0.519520
    17  N   -0.579669
    18  H    0.333626
    19  C   -0.312943
    20  H    0.205319
    21  H    0.160342
    22  H    0.159381
 Sum of Mulliken atomic charges =   0.00000

 Dipole moment (field-independent basis, Debye):
    X=             -1.2490    Y=             -0.9561    Z=             -1.8872  Tot=              2.4567
 Quadrupole moment (field-independent basis, Debye-Ang):
   XX=            -63.6883   YY=            -58.6310   ZZ=            -60.6711
   XY=             -9.2566   XZ=              9.7824   YZ=              2.7775

 Normal termination of Gaussian 09 at Fri Feb 10 20:33:27 2017.
