 Gaussian 09, Revision A.02,
 Gaussian 09:  EM64L-G09RevA.02 11-Jun-2009

 ----------------------------------------------------------------------
 # b3lyp/6-31G* Opt=(ModRedundant, maxcycles=1000, calcfc) geom=nocrowd
 ----------------------------------------------------------------------

 ------------------
 Phi Psi fixed scan
 ------------------
 Symbolic Z-matrix:
 Charge =  0 Multiplicity = 1

 SCF Done:  E(RB3LYP) =  -495.824046376     A.U. after   14 cycles

  Exact polarizability:   0.000   0.000   0.000   0.000   0.000   0.000
 Approx polarizability: 119.858   1.310 134.026  -0.219   1.801  82.860

 SCF Done:  E(RB3LYP) =  -495.832630759     A.U. after   13 cycles
 SCF Done:  E(RB3LYP) =  -495.842655070     A.U. after   13 cycles
 SCF Done:  E(RB3LYP) =  -495.842620777     A.U. after   15 cycles
 SCF Done:  E(RB3LYP) =  -495.843539599     A.U. after   13 cycles
 SCF Done:  E(RB3LYP) =  -495.844028744     A.U. after   11 cycles
 SCF Done:  E(RB3LYP) =  -495.844442560     A.U. after   12 cycles
 SCF Done:  E(RB3LYP) =  -495.839616307     A.U. after   13 cycles
 SCF Done:  E(RB3LYP) =  -495.844543197     A.U. after   12 cycles
 SCF Done:  E(RB3LYP) =  -495.844655991     A.U. after   11 cycles
 SCF Done:  E(RB3LYP) =  -495.844794246     A.U. after    9 cycles
 SCF Done:  E(RB3LYP) =  -495.844803767     A.U. after   10 cycles
 SCF Done:  E(RB3LYP) =  -495.844812455     A.U. after   10 cycles
 SCF Done:  E(RB3LYP) =  -495.844824398     A.U. after   11 cycles
 SCF Done:  E(RB3LYP) =  -495.844833492     A.U. after   10 cycles
 SCF Done:  E(RB3LYP) =  -495.844836626     A.U. after   10 cycles
 SCF Done:  E(RB3LYP) =  -495.844837318     A.U. after    9 cycles
 SCF Done:  E(RB3LYP) =  -495.844837464     A.U. after    6 cycles
 SCF Done:  E(RB3LYP) =  -495.844837746     A.U. after    8 cycles
 SCF Done:  E(RB3LYP) =  -495.844837788     A.U. after    6 cycles
 Optimization completed.
    -- Stationary point found.

                         Standard orientation:
 ---------------------------------------------------------------------
 Center     Atomic      Atomic             Coordinates (Angstroms)
 Number     Number       Type             X           Y           Z
 ---------------------------------------------------------------------
      1          1           0       -4.093125   -1.234873   -0.103582
      2          6           0       -3.149981   -1.276937    0.448539
      3          1           0       -2.666315   -2.240624    0.262046
      4          1           0       -3.392662   -1.204949    1.514059
      5          6           0       -2.303932   -0.068078    0.058768
      6          8           0       -2.771439    1.065752    0.101025
      7          7           0       -1.035820   -0.380852   -0.339274
      8          1           0       -0.748615   -1.353397   -0.329239
      9          6           0        0.087619    0.510467   -0.622943
     10          1           0        0.143193    0.686752   -1.709931
     11          6           0        0.005378    1.874103    0.076787
     12          1           0        0.090192    1.770794    1.163937
     13          1           0        0.802998    2.534072   -0.285917
     14          1           0       -0.953339    2.343124   -0.137698
     15          6           0        1.349261   -0.319562   -0.264841
     16          8           0        1.335718   -1.542937   -0.393604
     17          7           0        2.435444    0.366702    0.170347
     18          1           0        2.363463    1.365191    0.290642
     19          6           0        3.695745   -0.282468    0.493335
     20          1           0        3.570084   -1.351118    0.317680
     21          1           0        4.506050    0.095538   -0.140612
     22          1           0        3.961945   -0.119124    1.543873
 ---------------------------------------------------------------------

 The electronic state is 1-A.
 Alpha  occ. eigenvalues --  -19.12422 -19.09745 -14.37657 -14.35050 -10.29775
 Alpha  occ. eigenvalues --  -10.28015 -10.24420 -10.22792 -10.18581 -10.18295
 Alpha  occ. eigenvalues --   -1.04550  -1.01656  -0.93397  -0.91457  -0.78259
 Alpha  occ. eigenvalues --   -0.72580  -0.71007  -0.65768  -0.60043  -0.55838
 Alpha  occ. eigenvalues --   -0.53835  -0.49939  -0.47330  -0.45991  -0.45294
 Alpha  occ. eigenvalues --   -0.44067  -0.42750  -0.41377  -0.40160  -0.39907
 Alpha  occ. eigenvalues --   -0.38970  -0.38449  -0.37206  -0.36873  -0.34312
 Alpha  occ. eigenvalues --   -0.26820  -0.26564  -0.24268  -0.23547
 Alpha virt. eigenvalues --    0.01529   0.04046   0.06839   0.10265   0.11107
 Alpha virt. eigenvalues --    0.13319   0.13769   0.14620   0.15029   0.15680
 Alpha virt. eigenvalues --    0.15918   0.18093   0.18408   0.19005   0.20346

 Mulliken atomic charges:
              1
     1  H    0.182009
     2  C   -0.534360
     3  H    0.149432
     4  H    0.180204
     5  C    0.597929
     6  O   -0.520182
     7  N   -0.621701
     8  H    0.350576
     9  C    0.001526
    10  H    0.172528
    11  C   -0.490167
    12  H    0.156588
    13  H    0.129116
    14  H    0.221927
    15  C    0.596559
    16  O   -0.532714
    17  N   -0.595302
    18  H    0.336718
    19  C   -0.314792
    20  H    0.208422
    21  H    0.162385
    22  H    0.163300
 Sum of Mulliken atomic charges =   0.00000

 Dipole moment (field-independent basis, Debye):
    X=              3.5575    Y=              0.5128    Z=              0.5852  Tot=              3.6416
 Quadrupole moment (field-independent basis, Debye-Ang):
   XX=            -57.5159   YY=            -62.3847   ZZ=            -59.1357
   XY=             12.6121   XZ=              1.8336   YZ=             -1.5966

 Normal termination of Gaussian 09 at Fri Feb 10 20:29:10 2017.
