 Gaussian 09, Revision A.02,
 Gaussian 09:  EM64L-G09RevA.02 11-Jun-2009

 ----------------------------------------------------------------------
 # b3lyp/6-31G* Opt=(ModRedundant, maxcycles=1000, calcfc) geom=nocrowd
 ----------------------------------------------------------------------

 ------------------
 Phi Psi fixed scan
 ------------------
 Symbolic Z-matrix:
 Charge =  0 Multiplicity = 1

 SCF Done:  E(RB3LYP) =  -495.820536406     A.U. after   15 cycles

  Exact polarizability:   0.000   0.000   0.000   0.000   0.000   0.000
 Approx polarizability: 115.746  -4.031 130.367   1.623   8.608  91.331

 SCF Done:  E(RB3LYP) =  -495.829664423     A.U. after   13 cycles
 SCF Done:  E(RB3LYP) =  -495.840320161     A.U. after   13 cycles
 SCF Done:  E(RB3LYP) =  -495.839613259     A.U. after   15 cycles
 SCF Done:  E(RB3LYP) =  -495.840931396     A.U. after   13 cycles
 SCF Done:  E(RB3LYP) =  -495.841322159     A.U. after   11 cycles
 SCF Done:  E(RB3LYP) =  -495.841779104     A.U. after   11 cycles
 SCF Done:  E(RB3LYP) =  -495.818199293     A.U. after   15 cycles
 SCF Done:  E(RB3LYP) =  -495.841911936     A.U. after   16 cycles
 SCF Done:  E(RB3LYP) =  -495.841997179     A.U. after   11 cycles
 SCF Done:  E(RB3LYP) =  -495.842191646     A.U. after   10 cycles
 SCF Done:  E(RB3LYP) =  -495.842208322     A.U. after   10 cycles
 SCF Done:  E(RB3LYP) =  -495.842219574     A.U. after   11 cycles
 SCF Done:  E(RB3LYP) =  -495.842219486     A.U. after   10 cycles
 SCF Done:  E(RB3LYP) =  -495.842222068     A.U. after    8 cycles
 SCF Done:  E(RB3LYP) =  -495.842229969     A.U. after   10 cycles
 SCF Done:  E(RB3LYP) =  -495.842235085     A.U. after   10 cycles
 SCF Done:  E(RB3LYP) =  -495.842235364     A.U. after    7 cycles
 SCF Done:  E(RB3LYP) =  -495.842236107     A.U. after    9 cycles
 SCF Done:  E(RB3LYP) =  -495.842236312     A.U. after    7 cycles
 Optimization completed.
    -- Stationary point found.

                         Standard orientation:
 ---------------------------------------------------------------------
 Center     Atomic      Atomic             Coordinates (Angstroms)
 Number     Number       Type             X           Y           Z
 ---------------------------------------------------------------------
      1          1           0       -3.974377   -1.345701   -0.080242
      2          6           0       -3.068888   -1.334806    0.534552
      3          1           0       -2.544862   -2.287864    0.413895
      4          1           0       -3.385256   -1.232749    1.577070
      5          6           0       -2.239569   -0.109787    0.158369
      6          8           0       -2.696086    1.021246    0.280152
      7          7           0       -0.990113   -0.405108   -0.311137
      8          1           0       -0.746328   -1.378634   -0.444192
      9          6           0        0.073345    0.503442   -0.756538
     10          1           0        0.052294    0.565491   -1.854912
     11          6           0       -0.026066    1.923093   -0.192249
     12          1           0       -0.032779    1.927338    0.903096
     13          1           0        0.823412    2.514989   -0.554229
     14          1           0       -0.950306    2.400221   -0.512606
     15          6           0        1.379239   -0.260099   -0.423153
     16          8           0        1.544876   -1.383612   -0.894683
     17          7           0        2.251809    0.326513    0.434985
     18          1           0        2.039666    1.245962    0.791097
     19          6           0        3.494070   -0.308354    0.843193
     20          1           0        3.531151   -1.290168    0.370100
     21          1           0        4.362372    0.279485    0.523450
     22          1           0        3.530027   -0.430201    1.931735
 ---------------------------------------------------------------------

 The electronic state is 1-A.
 Alpha  occ. eigenvalues --  -19.11837 -19.10024 -14.37450 -14.35701 -10.29351
 Alpha  occ. eigenvalues --  -10.28362 -10.24264 -10.22608 -10.18666 -10.18639
 Alpha  occ. eigenvalues --   -1.04040  -1.01989  -0.93086  -0.91792  -0.78333
 Alpha  occ. eigenvalues --   -0.72665  -0.71057  -0.65863  -0.59674  -0.56241
 Alpha  occ. eigenvalues --   -0.53661  -0.50536  -0.47030  -0.45664  -0.45383
 Alpha  occ. eigenvalues --   -0.44093  -0.42558  -0.41375  -0.40298  -0.39405
 Alpha  occ. eigenvalues --   -0.39082  -0.38602  -0.37641  -0.36692  -0.34708
 Alpha  occ. eigenvalues --   -0.26596  -0.26250  -0.24348  -0.23697
 Alpha virt. eigenvalues --    0.01492   0.03929   0.07345   0.09330   0.11132
 Alpha virt. eigenvalues --    0.13007   0.14159   0.14762   0.15189   0.15758
 Alpha virt. eigenvalues --    0.16221   0.17923   0.18150   0.18427   0.19544

 Mulliken atomic charges:
              1
     1  H    0.183228
     2  C   -0.534681
     3  H    0.147182
     4  H    0.182625
     5  C    0.596424
     6  O   -0.518028
     7  N   -0.616711
     8  H    0.343049
     9  C    0.016839
    10  H    0.168828
    11  C   -0.483085
    12  H    0.156110
    13  H    0.137856
    14  H    0.208432
    15  C    0.577238
    16  O   -0.531325
    17  N   -0.589178
    18  H    0.338253
    19  C   -0.314903
    20  H    0.207561
    21  H    0.162055
    22  H    0.162230
 Sum of Mulliken atomic charges =   0.00000

 Dipole moment (field-independent basis, Debye):
    X=              2.6290    Y=              0.2714    Z=              1.2588  Tot=              2.9274
 Quadrupole moment (field-independent basis, Debye-Ang):
   XX=            -59.5623   YY=            -61.3931   ZZ=            -59.3402
   XY=             12.2271   XZ=              5.4680   YZ=             -2.8455

 Normal termination of Gaussian 09 at Fri Feb 10 20:41:53 2017.
