 Gaussian 09, Revision A.02,
 Gaussian 09:  EM64L-G09RevA.02 11-Jun-2009

 ----------------------------------------------------------------------
 # b3lyp/6-31G* Opt=(ModRedundant, maxcycles=1000, calcfc) geom=nocrowd
 ----------------------------------------------------------------------

 ------------------
 Phi Psi fixed scan
 ------------------
 Symbolic Z-matrix:
 Charge =  0 Multiplicity = 1

 SCF Done:  E(RB3LYP) =  -495.812038378     A.U. after   15 cycles

  Exact polarizability:   0.000   0.000   0.000   0.000   0.000   0.000
 Approx polarizability: 119.247  -3.251 134.528  -2.019   2.693  82.297

 SCF Done:  E(RB3LYP) =  -495.820986681     A.U. after   16 cycles
 SCF Done:  E(RB3LYP) =  -495.831934587     A.U. after   14 cycles
 SCF Done:  E(RB3LYP) =  -495.794556900     A.U. after   15 cycles
 SCF Done:  E(RB3LYP) =  -495.814617633     A.U. after   13 cycles
 SCF Done:  E(RB3LYP) =  -495.826591851     A.U. after   12 cycles
 SCF Done:  E(RB3LYP) =  -495.832021645     A.U. after   12 cycles
 SCF Done:  E(RB3LYP) =  -495.832645353     A.U. after   13 cycles
 SCF Done:  E(RB3LYP) =  -495.833993254     A.U. after   13 cycles
 SCF Done:  E(RB3LYP) =  -495.820284208     A.U. after   14 cycles
 SCF Done:  E(RB3LYP) =  -495.836059178     A.U. after   13 cycles
 SCF Done:  E(RB3LYP) =  -495.837093018     A.U. after   13 cycles
 SCF Done:  E(RB3LYP) =  -495.837117997     A.U. after   12 cycles
 SCF Done:  E(RB3LYP) =  -495.836800713     A.U. after   16 cycles
 SCF Done:  E(RB3LYP) =  -495.837119392     A.U. after   16 cycles
 SCF Done:  E(RB3LYP) =  -495.837167979     A.U. after   11 cycles
 SCF Done:  E(RB3LYP) =  -495.837172583     A.U. after   10 cycles
 SCF Done:  E(RB3LYP) =  -495.837174208     A.U. after   10 cycles
 SCF Done:  E(RB3LYP) =  -495.837174516     A.U. after    8 cycles
 SCF Done:  E(RB3LYP) =  -495.837174579     A.U. after    7 cycles
 Optimization completed.
    -- Stationary point found.

                         Standard orientation:
 ---------------------------------------------------------------------
 Center     Atomic      Atomic             Coordinates (Angstroms)
 Number     Number       Type             X           Y           Z
 ---------------------------------------------------------------------
      1          1           0        3.714797   -1.661710   -0.653921
      2          6           0        2.969871   -1.566573    0.138716
      3          1           0        3.505376   -1.515100    1.094314
      4          1           0        2.333179   -2.457536    0.146381
      5          6           0        2.199748   -0.265087   -0.075906
      6          8           0        2.744309    0.726001   -0.530351
      7          7           0        0.861643   -0.350610    0.276606
      8          1           0        0.662884   -1.158465    0.855978
      9          6           0       -0.086204    0.754360    0.516124
     10          1           0       -0.117316    0.962268    1.596765
     11          6           0        0.252953    2.060977   -0.210742
     12          1           0        0.351756    1.899826   -1.287549
     13          1           0       -0.573409    2.752628   -0.033419
     14          1           0        1.186047    2.488977    0.151852
     15          6           0       -1.536266    0.342595    0.154535
     16          8           0       -2.434117    1.173359    0.163888
     17          7           0       -1.771780   -0.998931   -0.006282
     18          1           0       -0.990745   -1.543418   -0.348945
     19          6           0       -3.104941   -1.458471   -0.374210
     20          1           0       -3.835726   -0.918395    0.229351
     21          1           0       -3.334544   -1.274171   -1.431866
     22          1           0       -3.183843   -2.529796   -0.170602
 ---------------------------------------------------------------------

 The electronic state is 1-A.
 Alpha  occ. eigenvalues --  -19.11740 -19.11673 -14.37090 -14.36645 -10.29764
 Alpha  occ. eigenvalues --  -10.28820 -10.24277 -10.22215 -10.19934 -10.16965
 Alpha  occ. eigenvalues --   -1.03912  -1.03459  -0.93723  -0.91681  -0.78127
 Alpha  occ. eigenvalues --   -0.73009  -0.71251  -0.64465  -0.58995  -0.56082
 Alpha  occ. eigenvalues --   -0.53848  -0.51150  -0.47430  -0.46114  -0.45251
 Alpha  occ. eigenvalues --   -0.44715  -0.42452  -0.41335  -0.40629  -0.39681
 Alpha  occ. eigenvalues --   -0.38914  -0.37104  -0.36929  -0.36099  -0.35155
 Alpha  occ. eigenvalues --   -0.28115  -0.26097  -0.25469  -0.24116
 Alpha virt. eigenvalues --    0.01569   0.01794   0.05290   0.10035   0.11961
 Alpha virt. eigenvalues --    0.13089   0.13642   0.13859   0.15011   0.15757
 Alpha virt. eigenvalues --    0.17198   0.17651   0.17805   0.18887   0.19445

 Mulliken atomic charges:
              1
     1  H    0.192273
     2  C   -0.544518
     3  H    0.183464
     4  H    0.145564
     5  C    0.590858
     6  O   -0.483606
     7  N   -0.632917
     8  H    0.321001
     9  C   -0.034875
    10  H    0.173015
    11  C   -0.441053
    12  H    0.158797
    13  H    0.174320
    14  H    0.175561
    15  C    0.598975
    16  O   -0.510303
    17  N   -0.601148
    18  H    0.328044
    19  C   -0.304254
    20  H    0.194872
    21  H    0.164524
    22  H    0.151405
 Sum of Mulliken atomic charges =   0.00000

 Dipole moment (field-independent basis, Debye):
    X=              0.0366    Y=             -4.8002    Z=              1.1501  Tot=              4.9362
 Quadrupole moment (field-independent basis, Debye-Ang):
   XX=            -68.6933   YY=            -57.9320   ZZ=            -58.5962
   XY=              0.9856   XZ=              5.0419   YZ=              1.1809

 Normal termination of Gaussian 09 at Fri Feb 10 20:37:26 2017.
