 Gaussian 09, Revision A.02,
 Gaussian 09:  EM64L-G09RevA.02 11-Jun-2009

 ----------------------------------------------------------------------
 # b3lyp/6-31G* Opt=(ModRedundant, maxcycles=1000, calcfc) geom=nocrowd
 ----------------------------------------------------------------------

 ------------------
 Phi Psi fixed scan
 ------------------
 Symbolic Z-matrix:
 Charge =  0 Multiplicity = 1

 SCF Done:  E(RB3LYP) =  -495.821300889     A.U. after   15 cycles

  Exact polarizability:   0.000   0.000   0.000   0.000   0.000   0.000
 Approx polarizability: 120.261  -1.115 128.956   8.297   2.750  87.963

 SCF Done:  E(RB3LYP) =  -495.828864035     A.U. after   16 cycles
 SCF Done:  E(RB3LYP) =  -495.836176981     A.U. after   13 cycles
 SCF Done:  E(RB3LYP) =  -495.832593389     A.U. after   14 cycles
 SCF Done:  E(RB3LYP) =  -495.838185620     A.U. after   13 cycles
 SCF Done:  E(RB3LYP) =  -495.839176885     A.U. after   11 cycles
 SCF Done:  E(RB3LYP) =  -495.840526659     A.U. after   12 cycles
 SCF Done:  E(RB3LYP) =  -495.840922573     A.U. after   12 cycles
 SCF Done:  E(RB3LYP) =  -495.841199778     A.U. after   12 cycles
 SCF Done:  E(RB3LYP) =  -495.840003432     A.U. after   13 cycles
 SCF Done:  E(RB3LYP) =  -495.841487581     A.U. after   11 cycles
 SCF Done:  E(RB3LYP) =  -495.841532690     A.U. after   11 cycles
 SCF Done:  E(RB3LYP) =  -495.841504815     A.U. after   12 cycles
 SCF Done:  E(RB3LYP) =  -495.841567640     A.U. after   11 cycles
 SCF Done:  E(RB3LYP) =  -495.841570762     A.U. after   11 cycles
 SCF Done:  E(RB3LYP) =  -495.841578778     A.U. after   10 cycles
 SCF Done:  E(RB3LYP) =  -495.841580924     A.U. after   10 cycles
 SCF Done:  E(RB3LYP) =  -495.841581762     A.U. after   10 cycles
 SCF Done:  E(RB3LYP) =  -495.841581825     A.U. after    9 cycles
 SCF Done:  E(RB3LYP) =  -495.841581808     A.U. after    6 cycles
 Optimization completed.
    -- Stationary point found.

                         Standard orientation:
 ---------------------------------------------------------------------
 Center     Atomic      Atomic             Coordinates (Angstroms)
 Number     Number       Type             X           Y           Z
 ---------------------------------------------------------------------
      1          1           0       -3.638651   -1.707501    0.559249
      2          6           0       -2.978762   -1.493163   -0.284326
      3          1           0       -3.611506   -1.306530   -1.159855
      4          1           0       -2.355142   -2.369992   -0.487830
      5          6           0       -2.183567   -0.228940    0.034068
      6          8           0       -2.693293    0.707035    0.627798
      7          7           0       -0.874156   -0.269278   -0.406339
      8          1           0       -0.669615   -1.032061   -1.040507
      9          6           0        0.099099    0.831171   -0.488460
     10          1           0        0.079190    1.261393   -1.498901
     11          6           0       -0.128081    1.967666    0.521284
     12          1           0       -0.136571    1.587049    1.547212
     13          1           0        0.701658    2.671194    0.411351
     14          1           0       -1.073938    2.476670    0.344414
     15          6           0        1.542882    0.314124   -0.302261
     16          8           0        2.490683    1.016910   -0.629015
     17          7           0        1.672823   -0.945042    0.209235
     18          1           0        0.844376   -1.355475    0.619363
     19          6           0        2.973714   -1.494915    0.553040
     20          1           0        3.720684   -0.997399   -0.066941
     21          1           0        3.227454   -1.323266    1.607254
     22          1           0        2.990563   -2.571061    0.354595
 ---------------------------------------------------------------------

 The electronic state is 1-A.
 Alpha  occ. eigenvalues --  -19.11663 -19.11215 -14.37154 -14.36636 -10.29772
 Alpha  occ. eigenvalues --  -10.28668 -10.24133 -10.22218 -10.19937 -10.17573
 Alpha  occ. eigenvalues --   -1.03778  -1.03190  -0.93738  -0.91664  -0.78297
 Alpha  occ. eigenvalues --   -0.73145  -0.71306  -0.64777  -0.58852  -0.56709
 Alpha  occ. eigenvalues --   -0.53999  -0.51015  -0.47457  -0.45807  -0.45449
 Alpha  occ. eigenvalues --   -0.44508  -0.42561  -0.41323  -0.40713  -0.39739
 Alpha  occ. eigenvalues --   -0.39321  -0.37515  -0.37310  -0.36170  -0.35018
 Alpha  occ. eigenvalues --   -0.27348  -0.25906  -0.25631  -0.24037
 Alpha virt. eigenvalues --    0.01766   0.02427   0.05841   0.09805   0.12099
 Alpha virt. eigenvalues --    0.12617   0.13363   0.14273   0.15396   0.15717
 Alpha virt. eigenvalues --    0.16926   0.17666   0.17701   0.18589   0.19582

 Mulliken atomic charges:
              1
     1  H    0.190879
     2  C   -0.542780
     3  H    0.185989
     4  H    0.144509
     5  C    0.591484
     6  O   -0.489294
     7  N   -0.641144
     8  H    0.324820
     9  C   -0.012034
    10  H    0.171798
    11  C   -0.445096
    12  H    0.151844
    13  H    0.170354
    14  H    0.188393
    15  C    0.579397
    16  O   -0.520230
    17  N   -0.591078
    18  H    0.331815
    19  C   -0.307628
    20  H    0.201651
    21  H    0.162448
    22  H    0.153905
 Sum of Mulliken atomic charges =   0.00000

 Dipole moment (field-independent basis, Debye):
    X=             -0.3369    Y=             -4.3910    Z=             -0.4899  Tot=              4.4311
 Quadrupole moment (field-independent basis, Debye-Ang):
   XX=            -69.4895   YY=            -57.5375   ZZ=            -58.9726
   XY=             -0.8373   XZ=              8.0809   YZ=             -0.2870

 Normal termination of Gaussian 09 at Fri Feb 10 20:45:11 2017.
