 Gaussian 09, Revision A.02,
 Gaussian 09:  EM64L-G09RevA.02 11-Jun-2009

 ----------------------------------------------------------------------
 # b3lyp/6-31G* Opt=(ModRedundant, maxcycles=1000, calcfc) geom=nocrowd
 ----------------------------------------------------------------------

 ------------------
 Phi Psi fixed scan
 ------------------
 Symbolic Z-matrix:
 Charge =  0 Multiplicity = 1

 SCF Done:  E(RB3LYP) =  -495.823161139     A.U. after   15 cycles

  Exact polarizability:   0.000   0.000   0.000   0.000   0.000   0.000
 Approx polarizability: 115.618   4.295 110.390  14.289  -3.522 110.186

 SCF Done:  E(RB3LYP) =  -495.830355555     A.U. after   16 cycles
 SCF Done:  E(RB3LYP) =  -495.838593390     A.U. after   13 cycles
 SCF Done:  E(RB3LYP) =  -495.836300670     A.U. after   17 cycles
 SCF Done:  E(RB3LYP) =  -495.838620589     A.U. after   16 cycles
 SCF Done:  E(RB3LYP) =  -495.839078355     A.U. after   12 cycles
 SCF Done:  E(RB3LYP) =  -495.839711078     A.U. after   12 cycles
 SCF Done:  E(RB3LYP) =  -495.835327277     A.U. after   13 cycles
 SCF Done:  E(RB3LYP) =  -495.839966567     A.U. after   13 cycles
 SCF Done:  E(RB3LYP) =  -495.840085190     A.U. after   11 cycles
 SCF Done:  E(RB3LYP) =  -495.840338547     A.U. after    8 cycles
 SCF Done:  E(RB3LYP) =  -495.840338768     A.U. after    7 cycles
 SCF Done:  E(RB3LYP) =  -495.840338859     A.U. after    7 cycles
 SCF Done:  E(RB3LYP) =  -495.840339002     A.U. after    7 cycles
 SCF Done:  E(RB3LYP) =  -495.840339252     A.U. after    7 cycles
 SCF Done:  E(RB3LYP) =  -495.840339853     A.U. after    9 cycles
 SCF Done:  E(RB3LYP) =  -495.840341520     A.U. after    9 cycles
 SCF Done:  E(RB3LYP) =  -495.840347051     A.U. after   10 cycles
 SCF Done:  E(RB3LYP) =  -495.840348480     A.U. after    9 cycles
 SCF Done:  E(RB3LYP) =  -495.840348573     A.U. after    7 cycles
 Optimization completed.
    -- Stationary point found.

                         Standard orientation:
 ---------------------------------------------------------------------
 Center     Atomic      Atomic             Coordinates (Angstroms)
 Number     Number       Type             X           Y           Z
 ---------------------------------------------------------------------
      1          1           0        3.542021   -1.789167   -0.565513
      2          6           0        2.991713   -1.474095    0.324388
      3          1           0        3.729400   -1.213598    1.091668
      4          1           0        2.388557   -2.311340    0.690439
      5          6           0        2.181230   -0.228331   -0.025244
      6          8           0        2.658472    0.667002   -0.707149
      7          7           0        0.908539   -0.222905    0.496295
      8          1           0        0.694516   -0.973671    1.139529
      9          6           0       -0.089057    0.858880    0.479530
     10          1           0       -0.043821    1.407230    1.428386
     11          6           0        0.058907    1.860809   -0.674207
     12          1           0        0.048872    1.365813   -1.649547
     13          1           0       -0.786148    2.556487   -0.629089
     14          1           0        0.991754    2.416766   -0.595845
     15          6           0       -1.499044    0.226441    0.466085
     16          8           0       -2.321645    0.482280    1.336849
     17          7           0       -1.753226   -0.577266   -0.606306
     18          1           0       -0.988577   -0.779088   -1.235319
     19          6           0       -3.024808   -1.248815   -0.804667
     20          1           0       -3.704230   -0.895265   -0.027862
     21          1           0       -3.444461   -1.008393   -1.788085
     22          1           0       -2.923333   -2.338162   -0.721599
 ---------------------------------------------------------------------

 The electronic state is 1-A.
 Alpha  occ. eigenvalues --  -19.11505 -19.11187 -14.36940 -14.36653 -10.29400
 Alpha  occ. eigenvalues --  -10.28722 -10.23994 -10.22255 -10.19646 -10.18226
 Alpha  occ. eigenvalues --   -1.03597  -1.03039  -0.93334  -0.91822  -0.78427
 Alpha  occ. eigenvalues --   -0.73130  -0.71074  -0.65319  -0.58825  -0.57068
 Alpha  occ. eigenvalues --   -0.53743  -0.50833  -0.47211  -0.45630  -0.45243
 Alpha  occ. eigenvalues --   -0.44211  -0.42724  -0.41371  -0.40621  -0.39947
 Alpha  occ. eigenvalues --   -0.39037  -0.38052  -0.37838  -0.36298  -0.35510
 Alpha  occ. eigenvalues --   -0.26798  -0.25602  -0.25335  -0.24068
 Alpha virt. eigenvalues --    0.01920   0.02409   0.06497   0.08462   0.11609
 Alpha virt. eigenvalues --    0.12442   0.13582   0.15142   0.15507   0.15890
 Alpha virt. eigenvalues --    0.16319   0.17336   0.17810   0.18221   0.19647

 Mulliken atomic charges:
              1
     1  H    0.187680
     2  C   -0.539784
     3  H    0.186725
     4  H    0.144766
     5  C    0.589517
     6  O   -0.500716
     7  N   -0.623291
     8  H    0.328829
     9  C   -0.015132
    10  H    0.171148
    11  C   -0.445085
    12  H    0.147540
    13  H    0.156195
    14  H    0.194995
    15  C    0.559252
    16  O   -0.512236
    17  N   -0.571562
    18  H    0.331077
    19  C   -0.310963
    20  H    0.204689
    21  H    0.160599
    22  H    0.155756
 Sum of Mulliken atomic charges =   0.00000

 Dipole moment (field-independent basis, Debye):
    X=             -0.1256    Y=             -3.2836    Z=             -0.7818  Tot=              3.3778
 Quadrupole moment (field-independent basis, Debye-Ang):
   XX=            -67.8014   YY=            -56.6609   ZZ=            -61.1571
   XY=             -1.7800   XZ=             11.6265   YZ=              0.2110

 Normal termination of Gaussian 09 at Fri Feb 10 20:35:07 2017.
