 Gaussian 09, Revision A.02,
 Gaussian 09:  EM64L-G09RevA.02 11-Jun-2009

 ----------------------------------------------------------------------
 # b3lyp/6-31G* Opt=(ModRedundant, maxcycles=1000, calcfc) geom=nocrowd
 ----------------------------------------------------------------------

 ------------------
 Phi Psi fixed scan
 ------------------
 Symbolic Z-matrix:
 Charge =  0 Multiplicity = 1

 SCF Done:  E(RB3LYP) =  -495.824456395     A.U. after   15 cycles

  Exact polarizability:   0.000   0.000   0.000   0.000   0.000   0.000
 Approx polarizability: 119.315  -1.080 123.435  11.392   4.449  94.092

 SCF Done:  E(RB3LYP) =  -495.831465031     A.U. after   15 cycles
 SCF Done:  E(RB3LYP) =  -495.840019051     A.U. after   13 cycles
 SCF Done:  E(RB3LYP) =  -495.836806827     A.U. after   15 cycles
 SCF Done:  E(RB3LYP) =  -495.837693670     A.U. after   12 cycles
 SCF Done:  E(RB3LYP) =  -495.840305261     A.U. after   13 cycles
 SCF Done:  E(RB3LYP) =  -495.840847034     A.U. after   12 cycles
 SCF Done:  E(RB3LYP) =  -495.841523900     A.U. after   13 cycles
 SCF Done:  E(RB3LYP) =  -495.841095303     A.U. after   15 cycles
 SCF Done:  E(RB3LYP) =  -495.841642338     A.U. after   12 cycles
 SCF Done:  E(RB3LYP) =  -495.842147941     A.U. after   13 cycles
 SCF Done:  E(RB3LYP) =  -495.842174333     A.U. after   11 cycles
 SCF Done:  E(RB3LYP) =  -495.842171928     A.U. after   10 cycles
 SCF Done:  E(RB3LYP) =  -495.842153132     A.U. after   11 cycles
 SCF Done:  E(RB3LYP) =  -495.842167607     A.U. after   10 cycles
 SCF Done:  E(RB3LYP) =  -495.842174022     A.U. after   10 cycles
 SCF Done:  E(RB3LYP) =  -495.842174426     A.U. after    8 cycles
 SCF Done:  E(RB3LYP) =  -495.842174755     A.U. after    9 cycles
 SCF Done:  E(RB3LYP) =  -495.842174885     A.U. after    8 cycles
 SCF Done:  E(RB3LYP) =  -495.842174928     A.U. after    8 cycles
 Optimization completed.
    -- Stationary point found.

                         Standard orientation:
 ---------------------------------------------------------------------
 Center     Atomic      Atomic             Coordinates (Angstroms)
 Number     Number       Type             X           Y           Z
 ---------------------------------------------------------------------
      1          1           0       -3.666998   -1.231267   -1.159243
      2          6           0       -2.983031   -1.467069   -0.335968
      3          1           0       -2.367455   -2.323676   -0.629732
      4          1           0       -3.592270   -1.740708    0.528619
      5          6           0       -2.180419   -0.216658    0.015912
      6          8           0       -2.676767    0.693605    0.660520
      7          7           0       -0.885118   -0.231676   -0.458803
      8          1           0       -0.674698   -0.979179   -1.108006
      9          6           0        0.101197    0.858880   -0.469718
     10          1           0        0.066920    1.377044   -1.436543
     11          6           0       -0.078306    1.901243    0.646167
     12          1           0       -0.061932    1.429810    1.633629
     13          1           0        0.756465    2.605230    0.576938
     14          1           0       -1.021487    2.435095    0.544157
     15          6           0        1.534161    0.295263   -0.366830
     16          8           0        2.476846    0.906095   -0.854404
     17          7           0        1.658070   -0.876123    0.321019
     18          1           0        0.826027   -1.243658    0.762256
     19          6           0        2.949983   -1.463482    0.628533
     20          1           0        3.692819   -0.968308    0.001540
     21          1           0        3.222255   -1.315238    1.681213
     22          1           0        2.947546   -2.537227    0.412148
 ---------------------------------------------------------------------

 The electronic state is 1-A.
 Alpha  occ. eigenvalues --  -19.11549 -19.11194 -14.37145 -14.36634 -10.29703
 Alpha  occ. eigenvalues --  -10.28649 -10.24065 -10.22222 -10.19892 -10.17844
 Alpha  occ. eigenvalues --   -1.03703  -1.03121  -0.93675  -0.91679  -0.78382
 Alpha  occ. eigenvalues --   -0.73190  -0.71270  -0.64953  -0.58811  -0.56977
 Alpha  occ. eigenvalues --   -0.53988  -0.50930  -0.47427  -0.45779  -0.45397
 Alpha  occ. eigenvalues --   -0.44322  -0.42707  -0.41340  -0.40753  -0.39894
 Alpha  occ. eigenvalues --   -0.39184  -0.37795  -0.37487  -0.36161  -0.35174
 Alpha  occ. eigenvalues --   -0.26973  -0.25792  -0.25675  -0.24039
 Alpha virt. eigenvalues --    0.01916   0.02456   0.06059   0.09524   0.12121
 Alpha virt. eigenvalues --    0.12242   0.13446   0.14492   0.15418   0.15985
 Alpha virt. eigenvalues --    0.16582   0.17553   0.17716   0.18485   0.19628

 Mulliken atomic charges:
              1
     1  H    0.186944
     2  C   -0.541605
     3  H    0.144045
     4  H    0.189891
     5  C    0.591456
     6  O   -0.492985
     7  N   -0.638550
     8  H    0.325840
     9  C   -0.007712
    10  H    0.171005
    11  C   -0.445755
    12  H    0.149886
    13  H    0.166137
    14  H    0.193439
    15  C    0.569070
    16  O   -0.519962
    17  N   -0.583963
    18  H    0.331472
    19  C   -0.309052
    20  H    0.204061
    21  H    0.161584
    22  H    0.154752
 Sum of Mulliken atomic charges =   0.00000

 Dipole moment (field-independent basis, Debye):
    X=             -0.3196    Y=             -4.1431    Z=             -0.1338  Tot=              4.1575
 Quadrupole moment (field-independent basis, Debye-Ang):
   XX=            -69.4053   YY=            -57.2273   ZZ=            -59.5426
   XY=             -0.3953   XZ=              9.3850   YZ=              0.0620

 Normal termination of Gaussian 09 at Fri Feb 10 20:42:42 2017.
