 Gaussian 09, Revision A.02,
 Gaussian 09:  EM64L-G09RevA.02 11-Jun-2009

 ----------------------------------------------------------------------
 # b3lyp/6-31G* Opt=(ModRedundant, maxcycles=1000, calcfc) geom=nocrowd
 ----------------------------------------------------------------------

 ------------------
 Phi Psi fixed scan
 ------------------
 Symbolic Z-matrix:
 Charge =  0 Multiplicity = 1

 SCF Done:  E(RB3LYP) =  -495.824381559     A.U. after   15 cycles

  Exact polarizability:   0.000   0.000   0.000   0.000   0.000   0.000
 Approx polarizability: 120.656  -9.867 107.350  -9.531  -4.346 108.582

 SCF Done:  E(RB3LYP) =  -495.831186021     A.U. after   13 cycles
 SCF Done:  E(RB3LYP) =  -495.839353870     A.U. after   13 cycles
 SCF Done:  E(RB3LYP) =  -495.838033069     A.U. after   13 cycles
 SCF Done:  E(RB3LYP) =  -495.839650120     A.U. after   13 cycles
 SCF Done:  E(RB3LYP) =  -495.840143332     A.U. after   12 cycles
 SCF Done:  E(RB3LYP) =  -495.840891667     A.U. after   12 cycles
 SCF Done:  E(RB3LYP) =  -495.839049280     A.U. after   13 cycles
 SCF Done:  E(RB3LYP) =  -495.841252535     A.U. after   12 cycles
 SCF Done:  E(RB3LYP) =  -495.841587358     A.U. after   12 cycles
 SCF Done:  E(RB3LYP) =  -495.829113276     A.U. after   13 cycles
 SCF Done:  E(RB3LYP) =  -495.842143843     A.U. after   13 cycles
 SCF Done:  E(RB3LYP) =  -495.842177623     A.U. after   11 cycles
 SCF Done:  E(RB3LYP) =  -495.842188377     A.U. after   10 cycles
 SCF Done:  E(RB3LYP) =  -495.842204246     A.U. after   10 cycles
 SCF Done:  E(RB3LYP) =  -495.842220936     A.U. after   11 cycles
 SCF Done:  E(RB3LYP) =  -495.842232489     A.U. after   11 cycles
 SCF Done:  E(RB3LYP) =  -495.842233186     A.U. after    8 cycles
 SCF Done:  E(RB3LYP) =  -495.842233229     A.U. after    7 cycles
 SCF Done:  E(RB3LYP) =  -495.842233253     A.U. after    6 cycles
 Optimization completed.
    -- Stationary point found.

                         Standard orientation:
 ---------------------------------------------------------------------
 Center     Atomic      Atomic             Coordinates (Angstroms)
 Number     Number       Type             X           Y           Z
 ---------------------------------------------------------------------
      1          1           0       -4.105306   -1.313508   -0.226604
      2          6           0       -3.076927   -1.436296    0.117604
      3          1           0       -2.651148   -2.346828   -0.317001
      4          1           0       -3.091891   -1.554014    1.208113
      5          6           0       -2.286063   -0.185675   -0.247710
      6          8           0       -2.824267    0.900573   -0.407976
      7          7           0       -0.933603   -0.402578   -0.419633
      8          1           0       -0.614865   -1.283556   -0.030482
      9          6           0        0.090375    0.650584   -0.308470
     10          1           0        0.251629    1.086996   -1.303355
     11          6           0       -0.239501    1.779624    0.684229
     12          1           0       -0.353274    1.364101    1.689740
     13          1           0        0.586891    2.499910    0.700604
     14          1           0       -1.158149    2.288836    0.396390
     15          6           0        1.368225   -0.049859    0.188420
     16          8           0        1.371898   -0.684029    1.238920
     17          7           0        2.445147    0.042728   -0.639494
     18          1           0        2.354010    0.585852   -1.486000
     19          6           0        3.744863   -0.515850   -0.306069
     20          1           0        3.628247   -1.082012    0.618831
     21          1           0        4.094067   -1.186310   -1.099064
     22          1           0        4.492098    0.271958   -0.152850
 ---------------------------------------------------------------------

 The electronic state is 1-A.
 Alpha  occ. eigenvalues --  -19.12168 -19.10736 -14.37667 -14.35417 -10.29485
 Alpha  occ. eigenvalues --  -10.28361 -10.23938 -10.22758 -10.18709 -10.17412
 Alpha  occ. eigenvalues --   -1.04291  -1.02472  -0.93225  -0.91678  -0.77858
 Alpha  occ. eigenvalues --   -0.72698  -0.71382  -0.64456  -0.59563  -0.56267
 Alpha  occ. eigenvalues --   -0.53651  -0.48632  -0.47636  -0.46434  -0.45398
 Alpha  occ. eigenvalues --   -0.44175  -0.42632  -0.40898  -0.40202  -0.40020
 Alpha  occ. eigenvalues --   -0.38885  -0.38408  -0.36695  -0.36033  -0.34527
 Alpha  occ. eigenvalues --   -0.26567  -0.26151  -0.25548  -0.24000
 Alpha virt. eigenvalues --    0.01633   0.02752   0.06412   0.08844   0.11451
 Alpha virt. eigenvalues --    0.13570   0.13872   0.14928   0.15639   0.15823
 Alpha virt. eigenvalues --    0.16386   0.17070   0.18229   0.19120   0.20586

 Mulliken atomic charges:
              1
     1  H    0.185263
     2  C   -0.546620
     3  H    0.157938
     4  H    0.181389
     5  C    0.591877
     6  O   -0.500513
     7  N   -0.608416
     8  H    0.336309
     9  C    0.015812
    10  H    0.137157
    11  C   -0.464901
    12  H    0.168223
    13  H    0.137487
    14  H    0.202303
    15  C    0.562556
    16  O   -0.523071
    17  N   -0.581574
    18  H    0.330909
    19  C   -0.314573
    20  H    0.207397
    21  H    0.162055
    22  H    0.162995
 Sum of Mulliken atomic charges =   0.00000

 Dipole moment (field-independent basis, Debye):
    X=              3.4298    Y=             -0.9935    Z=             -1.8441  Tot=              4.0188
 Quadrupole moment (field-independent basis, Debye-Ang):
   XX=            -57.3376   YY=            -58.9930   ZZ=            -61.5301
   XY=              8.8353   XZ=             -8.1974   YZ=              0.9978

 Normal termination of Gaussian 09 at Fri Feb 10 20:18:27 2017.
