 Gaussian 09, Revision A.02,
 Gaussian 09:  EM64L-G09RevA.02 11-Jun-2009

 ----------------------------------------------------------------------
 # b3lyp/6-31G* Opt=(ModRedundant, maxcycles=1000, calcfc) geom=nocrowd
 ----------------------------------------------------------------------

 ------------------
 Phi Psi fixed scan
 ------------------
 Symbolic Z-matrix:
 Charge =  0 Multiplicity = 1

 SCF Done:  E(RB3LYP) =  -495.810530450     A.U. after   15 cycles

  Exact polarizability:   0.000   0.000   0.000   0.000   0.000   0.000
 Approx polarizability: 107.038  10.228 121.980   1.721  -9.322 110.983

 SCF Done:  E(RB3LYP) =  -495.819623988     A.U. after   13 cycles
 SCF Done:  E(RB3LYP) =  -495.829286117     A.U. after   13 cycles
 SCF Done:  E(RB3LYP) =  -495.832946199     A.U. after   13 cycles
 SCF Done:  E(RB3LYP) =  -495.824080573     A.U. after   15 cycles
 SCF Done:  E(RB3LYP) =  -495.833166377     A.U. after   14 cycles
 SCF Done:  E(RB3LYP) =  -495.833891701     A.U. after   12 cycles
 SCF Done:  E(RB3LYP) =  -495.834713300     A.U. after   13 cycles
 SCF Done:  E(RB3LYP) =  -495.825473420     A.U. after   13 cycles
 SCF Done:  E(RB3LYP) =  -495.834964599     A.U. after   13 cycles
 SCF Done:  E(RB3LYP) =  -495.835248784     A.U. after   11 cycles
 SCF Done:  E(RB3LYP) =  -495.835626466     A.U. after   12 cycles
 SCF Done:  E(RB3LYP) =  -495.835581249     A.U. after   12 cycles
 SCF Done:  E(RB3LYP) =  -495.835846557     A.U. after   12 cycles
 SCF Done:  E(RB3LYP) =  -495.835898655     A.U. after   11 cycles
 SCF Done:  E(RB3LYP) =  -495.835917092     A.U. after   10 cycles
 SCF Done:  E(RB3LYP) =  -495.835921030     A.U. after   10 cycles
 SCF Done:  E(RB3LYP) =  -495.835921432     A.U. after    7 cycles
 SCF Done:  E(RB3LYP) =  -495.835921537     A.U. after    7 cycles
 SCF Done:  E(RB3LYP) =  -495.835921545     A.U. after    7 cycles
 Optimization completed.
    -- Stationary point found.

                         Standard orientation:
 ---------------------------------------------------------------------
 Center     Atomic      Atomic             Coordinates (Angstroms)
 Number     Number       Type             X           Y           Z
 ---------------------------------------------------------------------
      1          1           0        3.481459   -1.581290   -0.795460
      2          6           0        3.261958   -0.695170   -0.196561
      3          1           0        3.758114    0.175058   -0.639238
      4          1           0        3.676936   -0.855607    0.805572
      5          6           0        1.749985   -0.539713   -0.090993
      6          8           0        0.999884   -1.505209   -0.073540
      7          7           0        1.310106    0.761628   -0.046658
      8          1           0        2.029078    1.472535    0.003765
      9          6           0       -0.012933    1.223273    0.404190
     10          1           0        0.078392    1.552946    1.446430
     11          6           0       -0.464476    2.413660   -0.450764
     12          1           0       -0.544174    2.147585   -1.509904
     13          1           0       -1.436051    2.784453   -0.110470
     14          1           0        0.257464    3.236008   -0.371104
     15          6           0       -1.058341    0.082500    0.503992
     16          8           0       -1.322254   -0.408822    1.590017
     17          7           0       -1.795605   -0.164302   -0.625361
     18          1           0       -1.343333    0.053656   -1.504417
     19          6           0       -2.682188   -1.321651   -0.642007
     20          1           0       -3.301544   -1.299506    0.255869
     21          1           0       -3.323059   -1.268247   -1.526220
     22          1           0       -2.119861   -2.264023   -0.649646
 ---------------------------------------------------------------------

 The electronic state is 1-A.
 Alpha  occ. eigenvalues --  -19.11193 -19.10066 -14.36589 -14.34925 -10.29108
 Alpha  occ. eigenvalues --  -10.27754 -10.23857 -10.20499 -10.19555 -10.19507
 Alpha  occ. eigenvalues --   -1.03417  -1.01902  -0.92625  -0.90740  -0.78356
 Alpha  occ. eigenvalues --   -0.73148  -0.69573  -0.64722  -0.59479  -0.56481
 Alpha  occ. eigenvalues --   -0.51761  -0.49810  -0.47409  -0.45145  -0.44013
 Alpha  occ. eigenvalues --   -0.43549  -0.42273  -0.41519  -0.40202  -0.39863
 Alpha  occ. eigenvalues --   -0.38814  -0.37613  -0.37501  -0.35763  -0.34889
 Alpha  occ. eigenvalues --   -0.25834  -0.24970  -0.24747  -0.23404
 Alpha virt. eigenvalues --    0.02275   0.02950   0.06322   0.08663   0.11499
 Alpha virt. eigenvalues --    0.13219   0.13567   0.14739   0.15243   0.16115
 Alpha virt. eigenvalues --    0.16777   0.17683   0.18408   0.18956   0.19939

 Mulliken atomic charges:
              1
     1  H    0.188257
     2  C   -0.543001
     3  H    0.148060
     4  H    0.186469
     5  C    0.596032
     6  O   -0.494964
     7  N   -0.605773
     8  H    0.318518
     9  C   -0.031542
    10  H    0.171879
    11  C   -0.452018
    12  H    0.147875
    13  H    0.171729
    14  H    0.142296
    15  C    0.618277
    16  O   -0.510648
    17  N   -0.576827
    18  H    0.323508
    19  C   -0.305835
    20  H    0.187913
    21  H    0.143628
    22  H    0.176165
 Sum of Mulliken atomic charges =   0.00000

 Dipole moment (field-independent basis, Debye):
    X=              2.1460    Y=              3.4377    Z=             -2.8999  Tot=              4.9832
 Quadrupole moment (field-independent basis, Debye-Ang):
   XX=            -51.1606   YY=            -59.5228   ZZ=            -62.3543
   XY=              3.5754   XZ=              5.3155   YZ=              2.7709

 Normal termination of Gaussian 09 at Sat Feb 11 01:47:12 2017.
