 Gaussian 09, Revision A.02,
 Gaussian 09:  EM64L-G09RevA.02 11-Jun-2009

 ----------------------------------------------------------------------
 # b3lyp/6-31G* Opt=(ModRedundant, maxcycles=1000, calcfc) geom=nocrowd
 ----------------------------------------------------------------------

 ------------------
 Phi Psi fixed scan
 ------------------
 Symbolic Z-matrix:
 Charge =  0 Multiplicity = 1

 SCF Done:  E(RB3LYP) =  -495.617822754     A.U. after   20 cycles

  Exact polarizability:   0.000   0.000   0.000   0.000   0.000   0.000
 Approx polarizability: 192.820  10.591 144.259  -1.599  -8.998  84.764

 SCF Done:  E(RB3LYP) =  -495.678930481     A.U. after   15 cycles
 SCF Done:  E(RB3LYP) =  -495.755277220     A.U. after   14 cycles
 SCF Done:  E(RB3LYP) =  -495.798156389     A.U. after   15 cycles
 SCF Done:  E(RB3LYP) =  -495.790861253     A.U. after   16 cycles
 SCF Done:  E(RB3LYP) =  -495.810662332     A.U. after   14 cycles
 SCF Done:  E(RB3LYP) =  -495.814506340     A.U. after   13 cycles
 SCF Done:  E(RB3LYP) =  -495.780852752     A.U. after   15 cycles
 SCF Done:  E(RB3LYP) =  -495.817247036     A.U. after   14 cycles
 SCF Done:  E(RB3LYP) =  -495.818254890     A.U. after   12 cycles
 SCF Done:  E(RB3LYP) =  -495.823184538     A.U. after   11 cycles
 SCF Done:  E(RB3LYP) =  -495.823192233     A.U. after    9 cycles
 SCF Done:  E(RB3LYP) =  -495.823195757     A.U. after    9 cycles
 SCF Done:  E(RB3LYP) =  -495.823197274     A.U. after    8 cycles
 SCF Done:  E(RB3LYP) =  -495.823198398     A.U. after    8 cycles
 SCF Done:  E(RB3LYP) =  -495.823200103     A.U. after    9 cycles
 SCF Done:  E(RB3LYP) =  -495.823201992     A.U. after    9 cycles
 SCF Done:  E(RB3LYP) =  -495.823203926     A.U. after   10 cycles
 SCF Done:  E(RB3LYP) =  -495.823204180     A.U. after    7 cycles
 SCF Done:  E(RB3LYP) =  -495.823204181     A.U. after    6 cycles
 Optimization completed.
    -- Stationary point found.

                         Standard orientation:
 ---------------------------------------------------------------------
 Center     Atomic      Atomic             Coordinates (Angstroms)
 Number     Number       Type             X           Y           Z
 ---------------------------------------------------------------------
      1          1           0       -3.806536   -1.182505    0.590441
      2          6           0       -3.138473   -0.338135    0.765862
      3          1           0       -2.740149   -0.410044    1.785385
      4          1           0       -3.706511    0.596884    0.688832
      5          6           0       -1.989061   -0.404389   -0.231619
      6          8           0       -1.741909   -1.399858   -0.881165
      7          7           0       -1.320323    0.817394   -0.411677
      8          1           0       -1.710752    1.524625    0.201909
      9          6           0        0.134679    1.007450   -0.505448
     10          1           0        0.397496    1.188194   -1.560107
     11          6           0        0.501043    2.269914    0.295047
     12          1           0        0.334887    2.104762    1.365669
     13          1           0        1.548306    2.547318    0.156016
     14          1           0       -0.117546    3.113631   -0.032303
     15          6           0        0.993508   -0.195512   -0.036342
     16          8           0        0.553998   -1.151370    0.579172
     17          7           0        2.346992    0.037285   -0.145910
     18          1           0        2.650821    0.713457   -0.834959
     19          6           0        3.303343   -1.001035    0.213113
     20          1           0        2.931372   -1.512571    1.101629
     21          1           0        3.435170   -1.746692   -0.582211
     22          1           0        4.269806   -0.539746    0.435088
 ---------------------------------------------------------------------

 The electronic state is 1-A.
 Alpha  occ. eigenvalues --  -19.11423 -19.09766 -14.36294 -14.34735 -10.28708
 Alpha  occ. eigenvalues --  -10.27591 -10.24487 -10.21858 -10.20350 -10.18203
 Alpha  occ. eigenvalues --   -1.03675  -1.01414  -0.92108  -0.91337  -0.78200
 Alpha  occ. eigenvalues --   -0.72260  -0.70763  -0.64805  -0.58683  -0.56855
 Alpha  occ. eigenvalues --   -0.50954  -0.49277  -0.47335  -0.45553  -0.44457
 Alpha  occ. eigenvalues --   -0.43477  -0.42743  -0.41539  -0.40281  -0.39475
 Alpha  occ. eigenvalues --   -0.38822  -0.38311  -0.38040  -0.36132  -0.33257
 Alpha  occ. eigenvalues --   -0.27049  -0.25183  -0.24115  -0.22642
 Alpha virt. eigenvalues --    0.01969   0.03157   0.06005   0.08324   0.11921
 Alpha virt. eigenvalues --    0.12708   0.13449   0.14094   0.14896   0.15699
 Alpha virt. eigenvalues --    0.16195   0.16638   0.17192   0.18743   0.19291

 Mulliken atomic charges:
              1
     1  H    0.184974
     2  C   -0.552954
     3  H    0.178893
     4  H    0.151344
     5  C    0.606090
     6  O   -0.470965
     7  N   -0.610170
     8  H    0.314731
     9  C   -0.014338
    10  H    0.152735
    11  C   -0.480310
    12  H    0.168311
    13  H    0.158277
    14  H    0.160558
    15  C    0.603236
    16  O   -0.489953
    17  N   -0.588991
    18  H    0.319948
    19  C   -0.304010
    20  H    0.197827
    21  H    0.163413
    22  H    0.151353
 Sum of Mulliken atomic charges =   0.00000

 Dipole moment (field-independent basis, Debye):
    X=              2.5036    Y=              4.7018    Z=              0.7337  Tot=              5.3771
 Quadrupole moment (field-independent basis, Debye-Ang):
   XX=            -48.5313   YY=            -62.1649   ZZ=            -61.0175
   XY=             -3.6255   XZ=             -7.0913   YZ=             -1.4606

 Normal termination of Gaussian 09 at Sat Feb 11 01:52:06 2017.
