 Gaussian 09, Revision A.02,
 Gaussian 09:  EM64L-G09RevA.02 11-Jun-2009

 ----------------------------------------------------------------------
 # b3lyp/6-31G* Opt=(ModRedundant, maxcycles=1000, calcfc) geom=nocrowd
 ----------------------------------------------------------------------

 ------------------
 Phi Psi fixed scan
 ------------------
 Symbolic Z-matrix:
 Charge =  0 Multiplicity = 1

 SCF Done:  E(RB3LYP) =  -495.818513271     A.U. after   15 cycles

  Exact polarizability:   0.000   0.000   0.000   0.000   0.000   0.000
 Approx polarizability: 108.749  10.056 119.981 -12.298  -0.019 111.219

 SCF Done:  E(RB3LYP) =  -495.825022212     A.U. after   12 cycles
 SCF Done:  E(RB3LYP) =  -495.833666832     A.U. after   12 cycles
 SCF Done:  E(RB3LYP) =  -495.837085975     A.U. after   13 cycles
 SCF Done:  E(RB3LYP) =  -495.838068811     A.U. after   12 cycles
 SCF Done:  E(RB3LYP) =  -495.838113662     A.U. after   13 cycles
 SCF Done:  E(RB3LYP) =  -495.839046964     A.U. after   12 cycles
 SCF Done:  E(RB3LYP) =  -495.838956145     A.U. after   12 cycles
 SCF Done:  E(RB3LYP) =  -495.839060632     A.U. after   12 cycles
 SCF Done:  E(RB3LYP) =  -495.839238307     A.U. after   12 cycles
 SCF Done:  E(RB3LYP) =  -495.839286361     A.U. after   12 cycles
 SCF Done:  E(RB3LYP) =  -495.839304522     A.U. after   11 cycles
 SCF Done:  E(RB3LYP) =  -495.839323911     A.U. after   10 cycles
 SCF Done:  E(RB3LYP) =  -495.839338841     A.U. after   11 cycles
 SCF Done:  E(RB3LYP) =  -495.839344590     A.U. after   10 cycles
 SCF Done:  E(RB3LYP) =  -495.839350332     A.U. after   10 cycles
 SCF Done:  E(RB3LYP) =  -495.839352703     A.U. after    9 cycles
 SCF Done:  E(RB3LYP) =  -495.839353843     A.U. after   10 cycles
 SCF Done:  E(RB3LYP) =  -495.839353782     A.U. after    7 cycles
 SCF Done:  E(RB3LYP) =  -495.839353824     A.U. after    7 cycles
 Optimization completed.
    -- Stationary point found.

                         Standard orientation:
 ---------------------------------------------------------------------
 Center     Atomic      Atomic             Coordinates (Angstroms)
 Number     Number       Type             X           Y           Z
 ---------------------------------------------------------------------
      1          1           0        3.361959   -1.509145   -0.839869
      2          6           0        3.231431   -0.644672   -0.183760
      3          1           0        3.679696    0.235885   -0.655061
      4          1           0        3.770211   -0.855937    0.746209
      5          6           0        1.747815   -0.495575    0.134421
      6          8           0        1.064765   -1.460373    0.456652
      7          7           0        1.270714    0.784748    0.053076
      8          1           0        1.927285    1.498828   -0.232091
      9          6           0       -0.088669    1.275090    0.321487
     10          1           0       -0.106074    1.723576    1.321435
     11          6           0       -0.455886    2.352754   -0.709693
     12          1           0       -0.480081    1.939980   -1.722936
     13          1           0       -1.442518    2.765914   -0.479530
     14          1           0        0.267111    3.178171   -0.684951
     15          6           0       -1.203611    0.205808    0.400527
     16          8           0       -1.957662    0.198585    1.362076
     17          7           0       -1.401968   -0.556494   -0.719777
     18          1           0       -0.574731   -0.720177   -1.278248
     19          6           0       -2.332780   -1.676065   -0.653808
     20          1           0       -3.248362   -1.339878   -0.165711
     21          1           0       -2.564432   -2.010951   -1.668667
     22          1           0       -1.917906   -2.513777   -0.078545
 ---------------------------------------------------------------------

 The electronic state is 1-A.
 Alpha  occ. eigenvalues --  -19.11470 -19.10565 -14.37203 -14.34687 -10.29623
 Alpha  occ. eigenvalues --  -10.27926 -10.23987 -10.20424 -10.19937 -10.19716
 Alpha  occ. eigenvalues --   -1.03709  -1.02311  -0.93136  -0.90711  -0.78658
 Alpha  occ. eigenvalues --   -0.73459  -0.69726  -0.64782  -0.60048  -0.56502
 Alpha  occ. eigenvalues --   -0.51832  -0.50110  -0.47950  -0.45203  -0.44737
 Alpha  occ. eigenvalues --   -0.43431  -0.42405  -0.41738  -0.40494  -0.40065
 Alpha  occ. eigenvalues --   -0.38977  -0.37983  -0.37595  -0.35772  -0.35171
 Alpha  occ. eigenvalues --   -0.26286  -0.25736  -0.24725  -0.23557
 Alpha virt. eigenvalues --    0.02166   0.02719   0.05914   0.09891   0.11236
 Alpha virt. eigenvalues --    0.12628   0.13867   0.14365   0.15496   0.15703
 Alpha virt. eigenvalues --    0.16856   0.17629   0.17847   0.18657   0.19156

 Mulliken atomic charges:
              1
     1  H    0.186097
     2  C   -0.536478
     3  H    0.143260
     4  H    0.191068
     5  C    0.586405
     6  O   -0.509167
     7  N   -0.612272
     8  H    0.321137
     9  C   -0.017682
    10  H    0.176491
    11  C   -0.466912
    12  H    0.160488
    13  H    0.178940
    14  H    0.143062
    15  C    0.609150
    16  O   -0.513374
    17  N   -0.565246
    18  H    0.327097
    19  C   -0.308435
    20  H    0.187450
    21  H    0.144986
    22  H    0.173935
 Sum of Mulliken atomic charges =   0.00000

 Dipole moment (field-independent basis, Debye):
    X=              3.2914    Y=              2.2230    Z=             -3.5154  Tot=              5.3041
 Quadrupole moment (field-independent basis, Debye-Ang):
   XX=            -56.0716   YY=            -57.4576   ZZ=            -62.7910
   XY=              4.9402   XZ=              3.8029   YZ=              2.2395

 Normal termination of Gaussian 09 at Sat Feb 11 01:50:57 2017.
