 Gaussian 09, Revision A.02,
 Gaussian 09:  EM64L-G09RevA.02 11-Jun-2009

 ----------------------------------------------------------------------
 # b3lyp/6-31G* Opt=(ModRedundant, maxcycles=1000, calcfc) geom=nocrowd
 ----------------------------------------------------------------------

 ------------------
 Phi Psi fixed scan
 ------------------
 Symbolic Z-matrix:
 Charge =  0 Multiplicity = 1

 SCF Done:  E(RB3LYP) =  -492.926617696     A.U. after   21 cycles

  Exact polarizability:   0.000   0.000   0.000   0.000   0.000   0.000
 Approx polarizability: 268.443 -77.873 187.119  -5.672   6.991  84.251

 SCF Done:  E(RB3LYP) =  -493.571260507     A.U. after   21 cycles
 SCF Done:  E(RB3LYP) =  -494.752585761     A.U. after   20 cycles
 SCF Done:  E(RB3LYP) =  -495.308083618     A.U. after   17 cycles
 SCF Done:  E(RB3LYP) =  -495.392219944     A.U. after   14 cycles
 SCF Done:  E(RB3LYP) =  -495.470305953     A.U. after   16 cycles
 SCF Done:  E(RB3LYP) =  -495.541717576     A.U. after   19 cycles
 SCF Done:  E(RB3LYP) =  -495.587497989     A.U. after   16 cycles
 SCF Done:  E(RB3LYP) =  -495.671426395     A.U. after   15 cycles
 SCF Done:  E(RB3LYP) =  -495.711439367     A.U. after   13 cycles
 SCF Done:  E(RB3LYP) =  -495.841284805     A.U. after   10 cycles
 SCF Done:  E(RB3LYP) =  -495.841295744     A.U. after   10 cycles
 SCF Done:  E(RB3LYP) =  -495.841321066     A.U. after   11 cycles
 SCF Done:  E(RB3LYP) =  -495.841385340     A.U. after   12 cycles
 SCF Done:  E(RB3LYP) =  -495.841437870     A.U. after   12 cycles
 SCF Done:  E(RB3LYP) =  -495.841458580     A.U. after   10 cycles
 SCF Done:  E(RB3LYP) =  -495.841466592     A.U. after   10 cycles
 SCF Done:  E(RB3LYP) =  -495.841469662     A.U. after   10 cycles
 SCF Done:  E(RB3LYP) =  -495.841470787     A.U. after    9 cycles
 SCF Done:  E(RB3LYP) =  -495.841470984     A.U. after    7 cycles
 Optimization completed.
    -- Stationary point found.

                         Standard orientation:
 ---------------------------------------------------------------------
 Center     Atomic      Atomic             Coordinates (Angstroms)
 Number     Number       Type             X           Y           Z
 ---------------------------------------------------------------------
      1          1           0       -3.679285   -0.857159    1.077908
      2          6           0       -3.399591   -0.384135    0.131854
      3          1           0       -3.781433    0.641154    0.120673
      4          1           0       -3.881702   -0.951384   -0.670009
      5          6           0       -1.888742   -0.501971   -0.036734
      6          8           0       -1.374888   -1.622612   -0.027986
      7          7           0       -1.247290    0.687097   -0.197043
      8          1           0       -1.872867    1.480637   -0.166429
      9          6           0        0.152773    1.155474   -0.389001
     10          1           0        0.250489    1.405295   -1.455937
     11          6           0        0.301843    2.457784    0.412610
     12          1           0        0.176616    2.266327    1.483821
     13          1           0        1.296761    2.869100    0.243909
     14          1           0       -0.446644    3.197008    0.100417
     15          6           0        1.403631    0.266067   -0.124748
     16          8           0        2.489478    0.847405   -0.116864
     17          7           0        1.278910   -1.063484    0.005945
     18          1           0        0.344546   -1.480057   -0.012898
     19          6           0        2.457906   -1.893127    0.186094
     20          1           0        2.157936   -2.941541    0.120548
     21          1           0        3.202385   -1.677792   -0.586740
     22          1           0        2.928219   -1.715770    1.160765
 ---------------------------------------------------------------------

 The electronic state is 1-A.
 Alpha  occ. eigenvalues --  -19.12884 -19.09648 -14.38056 -14.33737 -10.30857
 Alpha  occ. eigenvalues --  -10.27657 -10.24797 -10.20473 -10.20443 -10.18724
 Alpha  occ. eigenvalues --   -1.04634  -1.01787  -0.93897  -0.90167  -0.78809
 Alpha  occ. eigenvalues --   -0.73603  -0.70126  -0.64445  -0.60515  -0.56415
 Alpha  occ. eigenvalues --   -0.52026  -0.50874  -0.48387  -0.45766  -0.45142
 Alpha  occ. eigenvalues --   -0.43342  -0.42171  -0.41826  -0.41133  -0.40111
 Alpha  occ. eigenvalues --   -0.38609  -0.37508  -0.37403  -0.36408  -0.34451
 Alpha  occ. eigenvalues --   -0.27047  -0.26776  -0.23872  -0.23712
 Alpha virt. eigenvalues --    0.01353   0.03593   0.05677   0.10956   0.12486
 Alpha virt. eigenvalues --    0.12863   0.13701   0.15034   0.15378   0.16009
 Alpha virt. eigenvalues --    0.16601   0.17047   0.18744   0.19364   0.20124

 Mulliken atomic charges:
              1
     1  H    0.191972
     2  C   -0.531959
     3  H    0.146598
     4  H    0.192081
     5  C    0.606004
     6  O   -0.527728
     7  N   -0.614784
     8  H    0.330393
     9  C   -0.031189
    10  H    0.180446
    11  C   -0.464808
    12  H    0.160300
    13  H    0.202998
    14  H    0.130304
    15  C    0.610314
    16  O   -0.541286
    17  N   -0.628660
    18  H    0.393829
    19  C   -0.294724
    20  H    0.151641
    21  H    0.173641
    22  H    0.164617
 Sum of Mulliken atomic charges =   0.00000

 Dipole moment (field-independent basis, Debye):
    X=             -3.9696    Y=              1.1866    Z=             -0.0187  Tot=              4.1432
 Quadrupole moment (field-independent basis, Debye-Ang):
   XX=            -60.4030   YY=            -59.0846   ZZ=            -59.3578
   XY=             -9.7550   XZ=              0.4432   YZ=             -0.7303

 Normal termination of Gaussian 09 at Sat Feb 11 01:47:18 2017.
