 Gaussian 09, Revision A.02,
 Gaussian 09:  EM64L-G09RevA.02 11-Jun-2009

 ----------------------------------------------------------------------
 # b3lyp/6-31G* Opt=(ModRedundant, maxcycles=1000, calcfc) geom=nocrowd
 ----------------------------------------------------------------------

 ------------------
 Phi Psi fixed scan
 ------------------
 Symbolic Z-matrix:
 Charge =  0 Multiplicity = 1

 SCF Done:  E(RB3LYP) =  -495.594182786     A.U. after   21 cycles

  Exact polarizability:   0.000   0.000   0.000   0.000   0.000   0.000
 Approx polarizability: 143.221  -8.198 149.507   7.407  -1.926  90.409

 SCF Done:  E(RB3LYP) =  -495.643388601     A.U. after   16 cycles
 SCF Done:  E(RB3LYP) =  -495.716775587     A.U. after   15 cycles
 SCF Done:  E(RB3LYP) =  -495.763642011     A.U. after   16 cycles
 SCF Done:  E(RB3LYP) =  -495.798764640     A.U. after   16 cycles
 SCF Done:  E(RB3LYP) =  -495.820102528     A.U. after   14 cycles
 SCF Done:  E(RB3LYP) =  -495.815305853     A.U. after   14 cycles
 SCF Done:  E(RB3LYP) =  -495.826221120     A.U. after   13 cycles
 SCF Done:  E(RB3LYP) =  -495.831163292     A.U. after   13 cycles
 SCF Done:  E(RB3LYP) =  -495.822157085     A.U. after   13 cycles
 SCF Done:  E(RB3LYP) =  -495.840622458     A.U. after   11 cycles
 SCF Done:  E(RB3LYP) =  -495.840626454     A.U. after    9 cycles
 SCF Done:  E(RB3LYP) =  -495.840628621     A.U. after    9 cycles
 SCF Done:  E(RB3LYP) =  -495.840629989     A.U. after    9 cycles
 SCF Done:  E(RB3LYP) =  -495.840632195     A.U. after   10 cycles
 SCF Done:  E(RB3LYP) =  -495.840633740     A.U. after   10 cycles
 SCF Done:  E(RB3LYP) =  -495.840634310     A.U. after    8 cycles
 SCF Done:  E(RB3LYP) =  -495.840634677     A.U. after    8 cycles
 SCF Done:  E(RB3LYP) =  -495.840634917     A.U. after    7 cycles
 SCF Done:  E(RB3LYP) =  -495.840634984     A.U. after    7 cycles
 Optimization completed.
    -- Stationary point found.

                         Standard orientation:
 ---------------------------------------------------------------------
 Center     Atomic      Atomic             Coordinates (Angstroms)
 Number     Number       Type             X           Y           Z
 ---------------------------------------------------------------------
      1          1           0       -3.468966   -0.781055    1.360574
      2          6           0       -3.326818   -0.489153    0.314773
      3          1           0       -3.779033    0.495342    0.160862
      4          1           0       -3.849299   -1.224475   -0.302917
      5          6           0       -1.838274   -0.557484   -0.007089
      6          8           0       -1.270314   -1.650695   -0.006865
      7          7           0       -1.268067    0.644568   -0.299244
      8          1           0       -1.916193    1.418583   -0.251054
      9          6           0        0.123196    1.138158   -0.482282
     10          1           0        0.279838    1.240383   -1.567580
     11          6           0        0.193911    2.535231    0.141793
     12          1           0        0.043547    2.483900    1.224761
     13          1           0        1.175638    2.971144   -0.040928
     14          1           0       -0.571270    3.190330   -0.293721
     15          6           0        1.348559    0.292882   -0.011081
     16          8           0        2.317882    0.891419    0.451281
     17          7           0        1.363688   -1.027226   -0.297054
     18          1           0        0.455998   -1.489141   -0.388072
     19          6           0        2.519049   -1.827176    0.078822
     20          1           0        3.431285   -1.358501   -0.298266
     21          1           0        2.617894   -1.927114    1.167737
     22          1           0        2.412920   -2.821327   -0.362246
 ---------------------------------------------------------------------

 The electronic state is 1-A.
 Alpha  occ. eigenvalues --  -19.12700 -19.10217 -14.37895 -14.33590 -10.30665
 Alpha  occ. eigenvalues --  -10.27778 -10.24740 -10.20350 -10.20334 -10.18686
 Alpha  occ. eigenvalues --   -1.04480  -1.02096  -0.93752  -0.90138  -0.78730
 Alpha  occ. eigenvalues --   -0.73532  -0.70088  -0.64243  -0.60391  -0.55932
 Alpha  occ. eigenvalues --   -0.51738  -0.50824  -0.48641  -0.45673  -0.45079
 Alpha  occ. eigenvalues --   -0.43396  -0.42054  -0.41731  -0.41223  -0.39718
 Alpha  occ. eigenvalues --   -0.38319  -0.37612  -0.37249  -0.36279  -0.34998
 Alpha  occ. eigenvalues --   -0.27421  -0.26689  -0.24272  -0.23364
 Alpha virt. eigenvalues --    0.01432   0.02733   0.05963   0.10670   0.12376
 Alpha virt. eigenvalues --    0.13137   0.13883   0.14744   0.15221   0.16313
 Alpha virt. eigenvalues --    0.16729   0.16927   0.18415   0.19158   0.20736

 Mulliken atomic charges:
              1
     1  H    0.191681
     2  C   -0.533330
     3  H    0.147232
     4  H    0.191467
     5  C    0.606022
     6  O   -0.525639
     7  N   -0.613341
     8  H    0.330528
     9  C   -0.030461
    10  H    0.177379
    11  C   -0.460018
    12  H    0.164781
    13  H    0.194224
    14  H    0.128788
    15  C    0.594368
    16  O   -0.525893
    17  N   -0.608033
    18  H    0.379922
    19  C   -0.297259
    20  H    0.176686
    21  H    0.160443
    22  H    0.150451
 Sum of Mulliken atomic charges =   0.00000

 Dipole moment (field-independent basis, Debye):
    X=             -3.6917    Y=              1.1858    Z=             -0.8065  Tot=              3.9604
 Quadrupole moment (field-independent basis, Debye-Ang):
   XX=            -58.4296   YY=            -59.5800   ZZ=            -59.9864
   XY=             -8.9009   XZ=             -2.6220   YZ=             -1.7269

 Normal termination of Gaussian 09 at Sat Feb 11 01:57:34 2017.
