 Gaussian 09, Revision A.02,
 Gaussian 09:  EM64L-G09RevA.02 11-Jun-2009

 ----------------------------------------------------------------------
 # b3lyp/6-31G* Opt=(ModRedundant, maxcycles=1000, calcfc) geom=nocrowd
 ----------------------------------------------------------------------

 ------------------
 Phi Psi fixed scan
 ------------------
 Symbolic Z-matrix:
 Charge =  0 Multiplicity = 1

 SCF Done:  E(RB3LYP) =  -495.790917165     A.U. after   16 cycles

  Exact polarizability:   0.000   0.000   0.000   0.000   0.000   0.000
 Approx polarizability: 111.375   6.437 126.554   6.834 -10.999 103.531

 SCF Done:  E(RB3LYP) =  -495.805457393     A.U. after   13 cycles
 SCF Done:  E(RB3LYP) =  -495.822698664     A.U. after   14 cycles
 SCF Done:  E(RB3LYP) =  -495.815073044     A.U. after   15 cycles
 SCF Done:  E(RB3LYP) =  -495.827830388     A.U. after   15 cycles
 SCF Done:  E(RB3LYP) =  -495.828891693     A.U. after   11 cycles
 SCF Done:  E(RB3LYP) =  -495.830418913     A.U. after   12 cycles
 SCF Done:  E(RB3LYP) =  -495.830978761     A.U. after   12 cycles
 SCF Done:  E(RB3LYP) =  -495.831315855     A.U. after   12 cycles
 SCF Done:  E(RB3LYP) =  -495.831144513     A.U. after   12 cycles
 SCF Done:  E(RB3LYP) =  -495.832212459     A.U. after   11 cycles
 SCF Done:  E(RB3LYP) =  -495.832270322     A.U. after   11 cycles
 SCF Done:  E(RB3LYP) =  -495.832280326     A.U. after   10 cycles
 SCF Done:  E(RB3LYP) =  -495.832286011     A.U. after    9 cycles
 SCF Done:  E(RB3LYP) =  -495.832290327     A.U. after    9 cycles
 SCF Done:  E(RB3LYP) =  -495.832294108     A.U. after    9 cycles
 SCF Done:  E(RB3LYP) =  -495.832298885     A.U. after   10 cycles
 SCF Done:  E(RB3LYP) =  -495.832300813     A.U. after   10 cycles
 SCF Done:  E(RB3LYP) =  -495.832300906     A.U. after    8 cycles
 SCF Done:  E(RB3LYP) =  -495.832300930     A.U. after    6 cycles
 Optimization completed.
    -- Stationary point found.

                         Standard orientation:
 ---------------------------------------------------------------------
 Center     Atomic      Atomic             Coordinates (Angstroms)
 Number     Number       Type             X           Y           Z
 ---------------------------------------------------------------------
      1          1           0        3.622025   -1.516135   -0.694837
      2          6           0        3.318692   -0.620942   -0.149552
      3          1           0        3.820416    0.254030   -0.577727
      4          1           0        3.646106   -0.725497    0.892114
      5          6           0        1.799519   -0.510861   -0.195888
      6          8           0        1.080958   -1.478856   -0.385093
      7          7           0        1.318003    0.776745   -0.061402
      8          1           0        2.025610    1.468803    0.156288
      9          6           0       -0.011977    1.164528    0.443114
     10          1           0        0.091714    1.419964    1.505405
     11          6           0       -0.497416    2.407316   -0.313157
     12          1           0       -0.563455    2.223564   -1.391439
     13          1           0       -1.476343    2.730687    0.053555
     14          1           0        0.207085    3.235875   -0.171989
     15          6           0       -1.015694   -0.017310    0.489124
     16          8           0       -1.046321   -0.747762    1.467512
     17          7           0       -1.980786   -0.040268   -0.481352
     18          1           0       -1.763660    0.414227   -1.358162
     19          6           0       -2.898669   -1.170086   -0.543949
     20          1           0       -3.285078   -1.359475    0.458675
     21          1           0       -3.726805   -0.921577   -1.213088
     22          1           0       -2.401962   -2.082736   -0.897021
 ---------------------------------------------------------------------

 The electronic state is 1-A.
 Alpha  occ. eigenvalues --  -19.10934 -19.09923 -14.36114 -14.35319 -10.28718
 Alpha  occ. eigenvalues --  -10.27820 -10.23944 -10.20814 -10.19539 -10.19189
 Alpha  occ. eigenvalues --   -1.03174  -1.01811  -0.92272  -0.90977  -0.78230
 Alpha  occ. eigenvalues --   -0.72911  -0.69775  -0.64756  -0.59068  -0.56752
 Alpha  occ. eigenvalues --   -0.51658  -0.49771  -0.47058  -0.45000  -0.43969
 Alpha  occ. eigenvalues --   -0.43661  -0.42309  -0.41501  -0.40157  -0.39623
 Alpha  occ. eigenvalues --   -0.38808  -0.37761  -0.37461  -0.35942  -0.34446
 Alpha  occ. eigenvalues --   -0.25612  -0.25117  -0.24195  -0.23475
 Alpha virt. eigenvalues --    0.02270   0.02864   0.06503   0.08588   0.11568
 Alpha virt. eigenvalues --    0.13255   0.13661   0.14783   0.15277   0.16126
 Alpha virt. eigenvalues --    0.16598   0.17341   0.18421   0.19037   0.19855

 Mulliken atomic charges:
              1
     1  H    0.188310
     2  C   -0.547022
     3  H    0.152262
     4  H    0.182178
     5  C    0.594456
     6  O   -0.484631
     7  N   -0.599513
     8  H    0.316161
     9  C   -0.030925
    10  H    0.170483
    11  C   -0.457974
    12  H    0.149385
    13  H    0.168210
    14  H    0.145138
    15  C    0.622999
    16  O   -0.513456
    17  N   -0.587060
    18  H    0.324583
    19  C   -0.303674
    20  H    0.190329
    21  H    0.144796
    22  H    0.174967
 Sum of Mulliken atomic charges =   0.00000

 Dipole moment (field-independent basis, Debye):
    X=              1.1374    Y=              4.1037    Z=             -2.0157  Tot=              4.7114
 Quadrupole moment (field-independent basis, Debye-Ang):
   XX=            -48.7898   YY=            -60.7557   ZZ=            -61.8816
   XY=              3.1056   XZ=              5.8323   YZ=              2.4282

 Normal termination of Gaussian 09 at Sat Feb 11 01:39:58 2017.
