 Gaussian 09, Revision A.02,
 Gaussian 09:  EM64L-G09RevA.02 11-Jun-2009

 ----------------------------------------------------------------------
 # b3lyp/6-31G* Opt=(ModRedundant, maxcycles=1000, calcfc) geom=nocrowd
 ----------------------------------------------------------------------

 ------------------
 Phi Psi fixed scan
 ------------------
 Symbolic Z-matrix:
 Charge =  0 Multiplicity = 1

 SCF Done:  E(RB3LYP) =  -495.803470259     A.U. after   15 cycles

  Exact polarizability:   0.000   0.000   0.000   0.000   0.000   0.000
 Approx polarizability: 120.362  -9.256 117.820 -10.378 -12.766 103.199

 SCF Done:  E(RB3LYP) =  -495.815061377     A.U. after   13 cycles
 SCF Done:  E(RB3LYP) =  -495.827589663     A.U. after   13 cycles
 SCF Done:  E(RB3LYP) =  -495.825691964     A.U. after   15 cycles
 SCF Done:  E(RB3LYP) =  -495.834382874     A.U. after   14 cycles
 SCF Done:  E(RB3LYP) =  -495.835354944     A.U. after   12 cycles
 SCF Done:  E(RB3LYP) =  -495.836766535     A.U. after   12 cycles
 SCF Done:  E(RB3LYP) =  -495.837344512     A.U. after   12 cycles
 SCF Done:  E(RB3LYP) =  -495.837696353     A.U. after   11 cycles
 SCF Done:  E(RB3LYP) =  -495.837511278     A.U. after   12 cycles
 SCF Done:  E(RB3LYP) =  -495.838736791     A.U. after   12 cycles
 SCF Done:  E(RB3LYP) =  -495.838801207     A.U. after   11 cycles
 SCF Done:  E(RB3LYP) =  -495.838862251     A.U. after   11 cycles
 SCF Done:  E(RB3LYP) =  -495.838878327     A.U. after   10 cycles
 SCF Done:  E(RB3LYP) =  -495.838881875     A.U. after   10 cycles
 SCF Done:  E(RB3LYP) =  -495.838882669     A.U. after    8 cycles
 SCF Done:  E(RB3LYP) =  -495.838882758     A.U. after    7 cycles
 SCF Done:  E(RB3LYP) =  -495.838882836     A.U. after    7 cycles
 SCF Done:  E(RB3LYP) =  -495.838882848     A.U. after    6 cycles
 SCF Done:  E(RB3LYP) =  -495.838882884     A.U. after    6 cycles
 Optimization completed.
    -- Stationary point found.

                         Standard orientation:
 ---------------------------------------------------------------------
 Center     Atomic      Atomic             Coordinates (Angstroms)
 Number     Number       Type             X           Y           Z
 ---------------------------------------------------------------------
      1          1           0       -3.552724   -1.740527    0.068795
      2          6           0       -3.160553   -0.758885    0.340152
      3          1           0       -3.112781   -0.698905    1.434236
      4          1           0       -3.844319    0.019191   -0.016735
      5          6           0       -1.756933   -0.615801   -0.226633
      6          8           0       -1.041439   -1.575979   -0.466515
      7          7           0       -1.367426    0.682024   -0.501014
      8          1           0       -2.000079    1.391295   -0.149945
      9          6           0        0.036013    1.108207   -0.504683
     10          1           0        0.359060    1.248277   -1.546836
     11          6           0        0.170692    2.444395    0.234920
     12          1           0       -0.075811    2.306476    1.292114
     13          1           0        1.197410    2.816430    0.164114
     14          1           0       -0.494140    3.200324   -0.200196
     15          6           0        0.971030    0.082580    0.176238
     16          8           0        0.789353   -0.269804    1.332695
     17          7           0        2.124070   -0.174055   -0.513847
     18          1           0        2.092830   -0.059448   -1.518182
     19          6           0        3.093431   -1.125236    0.010646
     20          1           0        3.172601   -0.973752    1.088135
     21          1           0        2.790040   -2.164668   -0.168699
     22          1           0        4.066001   -0.945776   -0.456063
 ---------------------------------------------------------------------

 The electronic state is 1-A.
 Alpha  occ. eigenvalues --  -19.10624 -19.10278 -14.35695 -14.35587 -10.28242
 Alpha  occ. eigenvalues --  -10.27895 -10.23853 -10.21148 -10.19353 -10.18774
 Alpha  occ. eigenvalues --   -1.03197  -1.01762  -0.91922  -0.91355  -0.77980
 Alpha  occ. eigenvalues --   -0.72606  -0.70552  -0.63972  -0.58781  -0.56909
 Alpha  occ. eigenvalues --   -0.50906  -0.49805  -0.47681  -0.45780  -0.43888
 Alpha  occ. eigenvalues --   -0.43485  -0.42097  -0.41332  -0.39767  -0.38858
 Alpha  occ. eigenvalues --   -0.38628  -0.38095  -0.37737  -0.35899  -0.33661
 Alpha  occ. eigenvalues --   -0.26248  -0.24907  -0.24336  -0.23646
 Alpha virt. eigenvalues --    0.02271   0.03660   0.07000   0.08388   0.12074
 Alpha virt. eigenvalues --    0.12829   0.13869   0.15155   0.15423   0.16001
 Alpha virt. eigenvalues --    0.16472   0.17773   0.18254   0.18717   0.19910

 Mulliken atomic charges:
              1
     1  H    0.186117
     2  C   -0.549628
     3  H    0.187562
     4  H    0.151149
     5  C    0.605738
     6  O   -0.496105
     7  N   -0.600132
     8  H    0.319229
     9  C    0.004053
    10  H    0.131920
    11  C   -0.481505
    12  H    0.181433
    13  H    0.166364
    14  H    0.147876
    15  C    0.635636
    16  O   -0.529371
    17  N   -0.593826
    18  H    0.325107
    19  C   -0.304746
    20  H    0.193030
    21  H    0.171723
    22  H    0.148374
 Sum of Mulliken atomic charges =   0.00000

 Dipole moment (field-independent basis, Debye):
    X=             -0.0308    Y=              3.1596    Z=             -1.8154  Tot=              3.6441
 Quadrupole moment (field-independent basis, Debye-Ang):
   XX=            -47.3673   YY=            -60.3238   ZZ=            -61.8567
   XY=             -4.1696   XZ=             -5.6714   YZ=             -0.2956

 Normal termination of Gaussian 09 at Sat Feb 11 01:42:10 2017.
