 Gaussian 09, Revision A.02,
 Gaussian 09:  EM64L-G09RevA.02 11-Jun-2009

 ----------------------------------------------------------------------
 # b3lyp/6-31G* Opt=(ModRedundant, maxcycles=1000, calcfc) geom=nocrowd
 ----------------------------------------------------------------------

 ------------------
 Phi Psi fixed scan
 ------------------
 Symbolic Z-matrix:
 Charge =  0 Multiplicity = 1

 SCF Done:  E(RB3LYP) =  -495.702418960     A.U. after   18 cycles

  Exact polarizability:   0.000   0.000   0.000   0.000   0.000   0.000
 Approx polarizability: 150.311   4.003 132.430  -7.313 -12.655  89.075

 SCF Done:  E(RB3LYP) =  -495.731538325     A.U. after   14 cycles
 SCF Done:  E(RB3LYP) =  -495.773185118     A.U. after   14 cycles
 SCF Done:  E(RB3LYP) =  -495.805439202     A.U. after   14 cycles
 SCF Done:  E(RB3LYP) =  -495.809240722     A.U. after   13 cycles
 SCF Done:  E(RB3LYP) =  -495.816250313     A.U. after   12 cycles
 SCF Done:  E(RB3LYP) =  -495.821214060     A.U. after   13 cycles
 SCF Done:  E(RB3LYP) =  -495.824605503     A.U. after   13 cycles
 SCF Done:  E(RB3LYP) =  -495.698110880     A.U. after   14 cycles
 SCF Done:  E(RB3LYP) =  -495.825618789     A.U. after   15 cycles
 SCF Done:  E(RB3LYP) =  -495.829540140     A.U. after   12 cycles
 SCF Done:  E(RB3LYP) =  -495.829553567     A.U. after   10 cycles
 SCF Done:  E(RB3LYP) =  -495.829558377     A.U. after    8 cycles
 SCF Done:  E(RB3LYP) =  -495.829561196     A.U. after    8 cycles
 SCF Done:  E(RB3LYP) =  -495.829564186     A.U. after    9 cycles
 SCF Done:  E(RB3LYP) =  -495.829572452     A.U. after   11 cycles
 SCF Done:  E(RB3LYP) =  -495.829583638     A.U. after   11 cycles
 SCF Done:  E(RB3LYP) =  -495.829586397     A.U. after   10 cycles
 SCF Done:  E(RB3LYP) =  -495.829587009     A.U. after   10 cycles
 SCF Done:  E(RB3LYP) =  -495.829587005     A.U. after    7 cycles
 Optimization completed.
    -- Stationary point found.

                         Standard orientation:
 ---------------------------------------------------------------------
 Center     Atomic      Atomic             Coordinates (Angstroms)
 Number     Number       Type             X           Y           Z
 ---------------------------------------------------------------------
      1          1           0       -3.768991   -1.337675    0.370501
      2          6           0       -3.180639   -0.446355    0.593289
      3          1           0       -2.895715   -0.470423    1.652217
      4          1           0       -3.793976    0.446798    0.425385
      5          6           0       -1.922530   -0.459114   -0.262682
      6          8           0       -1.506661   -1.462880   -0.809270
      7          7           0       -1.337239    0.796901   -0.444087
      8          1           0       -1.802774    1.509152    0.107716
      9          6           0        0.108824    1.038362   -0.486211
     10          1           0        0.406587    1.229819   -1.528812
     11          6           0        0.424968    2.295481    0.341437
     12          1           0        0.207383    2.113814    1.399848
     13          1           0        1.479548    2.567545    0.250635
     14          1           0       -0.178676    3.142473   -0.005469
     15          6           0        0.970642   -0.132529    0.043271
     16          8           0        0.582682   -0.910396    0.899954
     17          7           0        2.295751   -0.022093   -0.304455
     18          1           0        2.514281    0.483123   -1.153512
     19          6           0        3.263304   -1.015787    0.138100
     20          1           0        2.991618   -1.325632    1.147985
     21          1           0        3.273273   -1.906385   -0.503883
     22          1           0        4.262273   -0.570404    0.148493
 ---------------------------------------------------------------------

 The electronic state is 1-A.
 Alpha  occ. eigenvalues --  -19.11102 -19.09935 -14.36197 -14.34917 -10.28451
 Alpha  occ. eigenvalues --  -10.27684 -10.24248 -10.21710 -10.20025 -10.18268
 Alpha  occ. eigenvalues --   -1.03453  -1.01529  -0.91979  -0.91433  -0.78112
 Alpha  occ. eigenvalues --   -0.72316  -0.70776  -0.64445  -0.58718  -0.56857
 Alpha  occ. eigenvalues --   -0.50937  -0.49455  -0.47461  -0.45705  -0.44094
 Alpha  occ. eigenvalues --   -0.43416  -0.42685  -0.41400  -0.40040  -0.39262
 Alpha  occ. eigenvalues --   -0.38669  -0.38223  -0.38057  -0.36134  -0.33251
 Alpha  occ. eigenvalues --   -0.26736  -0.25023  -0.24224  -0.23041
 Alpha virt. eigenvalues --    0.02059   0.03310   0.06439   0.08268   0.12108
 Alpha virt. eigenvalues --    0.12547   0.13762   0.14571   0.15197   0.15998
 Alpha virt. eigenvalues --    0.16451   0.16581   0.17499   0.18659   0.19540

 Mulliken atomic charges:
              1
     1  H    0.184849
     2  C   -0.552643
     3  H    0.182873
     4  H    0.151107
     5  C    0.607067
     6  O   -0.481649
     7  N   -0.605245
     8  H    0.315702
     9  C   -0.005527
    10  H    0.141051
    11  C   -0.479823
    12  H    0.170860
    13  H    0.164609
    14  H    0.157487
    15  C    0.614692
    16  O   -0.503690
    17  N   -0.592342
    18  H    0.321128
    19  C   -0.304471
    20  H    0.197344
    21  H    0.165646
    22  H    0.150976
 Sum of Mulliken atomic charges =   0.00000

 Dipole moment (field-independent basis, Debye):
    X=              1.8292    Y=              4.3499    Z=             -0.0822  Tot=              4.7195
 Quadrupole moment (field-independent basis, Debye-Ang):
   XX=            -47.5343   YY=            -61.7183   ZZ=            -61.2734
   XY=             -3.8645   XZ=             -6.8091   YZ=             -0.8681

 Normal termination of Gaussian 09 at Sat Feb 11 01:32:37 2017.
