 Gaussian 09, Revision A.02,
 Gaussian 09:  EM64L-G09RevA.02 11-Jun-2009

 ----------------------------------------------------------------------
 # b3lyp/6-31G* Opt=(ModRedundant, maxcycles=1000, calcfc) geom=nocrowd
 ----------------------------------------------------------------------

 ------------------
 Phi Psi fixed scan
 ------------------
 Symbolic Z-matrix:
 Charge =  0 Multiplicity = 1

 SCF Done:  E(RB3LYP) =  -495.820288938     A.U. after   14 cycles

  Exact polarizability:   0.000   0.000   0.000   0.000   0.000   0.000
 Approx polarizability: 106.087  11.436 119.217  -5.684  -4.855 114.070

 SCF Done:  E(RB3LYP) =  -495.825914058     A.U. after   12 cycles
 SCF Done:  E(RB3LYP) =  -495.833473950     A.U. after   12 cycles
 SCF Done:  E(RB3LYP) =  -495.836630347     A.U. after   12 cycles
 SCF Done:  E(RB3LYP) =  -495.837363707     A.U. after   13 cycles
 SCF Done:  E(RB3LYP) =  -495.796571757     A.U. after   16 cycles
 SCF Done:  E(RB3LYP) =  -495.837809143     A.U. after   14 cycles
 SCF Done:  E(RB3LYP) =  -495.837901661     A.U. after   11 cycles
 SCF Done:  E(RB3LYP) =  -495.838182355     A.U. after   12 cycles
 SCF Done:  E(RB3LYP) =  -495.838444979     A.U. after   12 cycles
 SCF Done:  E(RB3LYP) =  -495.838533138     A.U. after   11 cycles
 SCF Done:  E(RB3LYP) =  -495.838555084     A.U. after   11 cycles
 SCF Done:  E(RB3LYP) =  -495.838574119     A.U. after   11 cycles
 SCF Done:  E(RB3LYP) =  -495.838576862     A.U. after   10 cycles
 SCF Done:  E(RB3LYP) =  -495.838577868     A.U. after    8 cycles
 SCF Done:  E(RB3LYP) =  -495.838578355     A.U. after    8 cycles
 SCF Done:  E(RB3LYP) =  -495.838579076     A.U. after    8 cycles
 SCF Done:  E(RB3LYP) =  -495.838579522     A.U. after    8 cycles
 SCF Done:  E(RB3LYP) =  -495.838579751     A.U. after    7 cycles
 SCF Done:  E(RB3LYP) =  -495.838579785     A.U. after    7 cycles
 Optimization completed.
    -- Stationary point found.

                         Standard orientation:
 ---------------------------------------------------------------------
 Center     Atomic      Atomic             Coordinates (Angstroms)
 Number     Number       Type             X           Y           Z
 ---------------------------------------------------------------------
      1          1           0        3.369917   -1.570213   -0.853864
      2          6           0        3.222796   -0.703149   -0.205440
      3          1           0        3.703129    0.171150   -0.656666
      4          1           0        3.716300   -0.917985    0.748968
      5          6           0        1.729247   -0.528638    0.042438
      6          8           0        0.998963   -1.486875    0.260025
      7          7           0        1.288852    0.767990    0.002651
      8          1           0        1.984424    1.486292   -0.148904
      9          6           0       -0.047402    1.266533    0.357568
     10          1           0       -0.007140    1.670073    1.376429
     11          6           0       -0.455072    2.390626   -0.603884
     12          1           0       -0.519399    2.035649   -1.637058
     13          1           0       -1.429858    2.796606   -0.316936
     14          1           0        0.273356    3.210797   -0.569259
     15          6           0       -1.127420    0.162256    0.466158
     16          8           0       -1.649953   -0.077929    1.542876
     17          7           0       -1.583117   -0.349344   -0.722378
     18          1           0       -0.913431   -0.335296   -1.481752
     19          6           0       -2.461027   -1.512942   -0.691035
     20          1           0       -3.264467   -1.324294    0.022298
     21          1           0       -2.888497   -1.666164   -1.685715
     22          1           0       -1.923292   -2.416825   -0.377484
 ---------------------------------------------------------------------

 The electronic state is 1-A.
 Alpha  occ. eigenvalues --  -19.11323 -19.10320 -14.36971 -14.34724 -10.29392
 Alpha  occ. eigenvalues --  -10.27795 -10.23876 -10.20370 -10.19755 -10.19658
 Alpha  occ. eigenvalues --   -1.03575  -1.02080  -0.92929  -0.90659  -0.78523
 Alpha  occ. eigenvalues --   -0.73333  -0.69576  -0.64763  -0.59856  -0.56401
 Alpha  occ. eigenvalues --   -0.51793  -0.49961  -0.47741  -0.45153  -0.44304
 Alpha  occ. eigenvalues --   -0.43489  -0.42316  -0.41630  -0.40308  -0.39984
 Alpha  occ. eigenvalues --   -0.38869  -0.37791  -0.37567  -0.35455  -0.35356
 Alpha  occ. eigenvalues --   -0.25993  -0.25322  -0.24758  -0.23469
 Alpha virt. eigenvalues --    0.02325   0.02893   0.06094   0.09070   0.11413
 Alpha virt. eigenvalues --    0.12845   0.13702   0.14601   0.15479   0.15701
 Alpha virt. eigenvalues --    0.16905   0.17798   0.18127   0.18870   0.19469

 Mulliken atomic charges:
              1
     1  H    0.187177
     2  C   -0.538590
     3  H    0.144042
     4  H    0.189627
     5  C    0.593684
     6  O   -0.502601
     7  N   -0.611629
     8  H    0.319900
     9  C   -0.025656
    10  H    0.174013
    11  C   -0.457546
    12  H    0.153487
    13  H    0.175003
    14  H    0.141803
    15  C    0.612224
    16  O   -0.508957
    17  N   -0.567929
    18  H    0.322799
    19  C   -0.307573
    20  H    0.187155
    21  H    0.143558
    22  H    0.176011
 Sum of Mulliken atomic charges =   0.00000

 Dipole moment (field-independent basis, Debye):
    X=              2.8851    Y=              2.7857    Z=             -3.4916  Tot=              5.3175
 Quadrupole moment (field-independent basis, Debye-Ang):
   XX=            -53.8115   YY=            -58.2453   ZZ=            -62.7342
   XY=              4.1209   XZ=              4.4829   YZ=              2.7133

 Normal termination of Gaussian 09 at Sat Feb 11 01:44:18 2017.
