 Gaussian 09, Revision A.02,
 Gaussian 09:  EM64L-G09RevA.02 11-Jun-2009

 ----------------------------------------------------------------------
 # b3lyp/6-31G* Opt=(ModRedundant, maxcycles=1000, calcfc) geom=nocrowd
 ----------------------------------------------------------------------

 ------------------
 Phi Psi fixed scan
 ------------------
 Symbolic Z-matrix:
 Charge =  0 Multiplicity = 1

 SCF Done:  E(RB3LYP) =  -495.550840414     A.U. after   23 cycles

  Exact polarizability:   0.000   0.000   0.000   0.000   0.000   0.000
 Approx polarizability: 232.521  16.210 168.863   0.681  -1.724  83.745

 SCF Done:  E(RB3LYP) =  -495.632032110     A.U. after   18 cycles
 SCF Done:  E(RB3LYP) =  -495.710493982     A.U. after   15 cycles
 SCF Done:  E(RB3LYP) =  -495.772348348     A.U. after   16 cycles
 SCF Done:  E(RB3LYP) =  -495.790470251     A.U. after   15 cycles
 SCF Done:  E(RB3LYP) =  -495.803925788     A.U. after   14 cycles
 SCF Done:  E(RB3LYP) =  -495.789098110     A.U. after   14 cycles
 SCF Done:  E(RB3LYP) =  -495.804652858     A.U. after   14 cycles
 SCF Done:  E(RB3LYP) =  -495.809807085     A.U. after   13 cycles
 SCF Done:  E(RB3LYP) =  -495.812353144     A.U. after   13 cycles
 SCF Done:  E(RB3LYP) =  -495.817005559     A.U. after   12 cycles
 SCF Done:  E(RB3LYP) =  -495.817132715     A.U. after   13 cycles
 SCF Done:  E(RB3LYP) =  -495.817222703     A.U. after   12 cycles
 SCF Done:  E(RB3LYP) =  -495.817259766     A.U. after   12 cycles
 SCF Done:  E(RB3LYP) =  -495.817274359     A.U. after   10 cycles
 SCF Done:  E(RB3LYP) =  -495.817286764     A.U. after   11 cycles
 SCF Done:  E(RB3LYP) =  -495.817292209     A.U. after   10 cycles
 SCF Done:  E(RB3LYP) =  -495.817299197     A.U. after   11 cycles
 SCF Done:  E(RB3LYP) =  -495.817301255     A.U. after   10 cycles
 SCF Done:  E(RB3LYP) =  -495.817301488     A.U. after    8 cycles
 Optimization completed.
    -- Stationary point found.

                         Standard orientation:
 ---------------------------------------------------------------------
 Center     Atomic      Atomic             Coordinates (Angstroms)
 Number     Number       Type             X           Y           Z
 ---------------------------------------------------------------------
      1          1           0       -3.852240   -1.043758    0.784102
      2          6           0       -3.141959   -0.222365    0.886957
      3          1           0       -2.702556   -0.258107    1.891585
      4          1           0       -3.675231    0.731081    0.786734
      5          6           0       -2.047792   -0.385930   -0.165014
      6          8           0       -1.919302   -1.402426   -0.812795
      7          7           0       -1.307952    0.790936   -0.381427
      8          1           0       -1.651479    1.519230    0.235161
      9          6           0        0.149671    0.964660   -0.538175
     10          1           0        0.361418    1.095992   -1.612412
     11          6           0        0.529484    2.276554    0.170435
     12          1           0        0.453564    2.171049    1.258319
     13          1           0        1.545401    2.602433   -0.066433
     14          1           0       -0.144282    3.077615   -0.154336
     15          6           0        1.035173   -0.235953   -0.104193
     16          8           0        0.610934   -1.334678    0.203515
     17          7           0        2.367770    0.085653    0.039824
     18          1           0        2.712067    0.920696   -0.412912
     19          6           0        3.345922   -0.958689    0.312277
     20          1           0        2.909588   -1.659663    1.024820
     21          1           0        3.627045   -1.518811   -0.589682
     22          1           0        4.241935   -0.506714    0.746794
 ---------------------------------------------------------------------

 The electronic state is 1-A.
 Alpha  occ. eigenvalues --  -19.11267 -19.09796 -14.36243 -14.34793 -10.28762
 Alpha  occ. eigenvalues --  -10.27640 -10.24727 -10.21845 -10.20736 -10.18296
 Alpha  occ. eigenvalues --   -1.03612  -1.01435  -0.92077  -0.91332  -0.78389
 Alpha  occ. eigenvalues --   -0.72275  -0.70719  -0.65244  -0.58672  -0.57026
 Alpha  occ. eigenvalues --   -0.50991  -0.49152  -0.47244  -0.45231  -0.44793
 Alpha  occ. eigenvalues --   -0.43570  -0.42900  -0.41796  -0.40335  -0.39598
 Alpha  occ. eigenvalues --   -0.38967  -0.38457  -0.37969  -0.35962  -0.33513
 Alpha  occ. eigenvalues --   -0.27100  -0.25228  -0.24100  -0.22226
 Alpha virt. eigenvalues --    0.02072   0.03173   0.05635   0.08468   0.11609
 Alpha virt. eigenvalues --    0.12662   0.13121   0.13619   0.14457   0.15692
 Alpha virt. eigenvalues --    0.16184   0.16642   0.17273   0.18457   0.19724

 Mulliken atomic charges:
              1
     1  H    0.186065
     2  C   -0.553464
     3  H    0.172548
     4  H    0.153509
     5  C    0.600096
     6  O   -0.456731
     7  N   -0.616300
     8  H    0.315204
     9  C   -0.015114
    10  H    0.166214
    11  C   -0.488862
    12  H    0.170638
    13  H    0.149322
    14  H    0.163992
    15  C    0.597991
    16  O   -0.481597
    17  N   -0.591193
    18  H    0.320159
    19  C   -0.303001
    20  H    0.198275
    21  H    0.161724
    22  H    0.150525
 Sum of Mulliken atomic charges =   0.00000

 Dipole moment (field-independent basis, Debye):
    X=              2.7682    Y=              5.2044    Z=              1.3509  Tot=              6.0476
 Quadrupole moment (field-independent basis, Debye-Ang):
   XX=            -49.3431   YY=            -62.5897   ZZ=            -60.6292
   XY=             -3.2972   XZ=             -6.3052   YZ=             -2.0797

 Normal termination of Gaussian 09 at Sat Feb 11 01:54:50 2017.
