 Gaussian 09, Revision A.02,
 Gaussian 09:  EM64L-G09RevA.02 11-Jun-2009

 ----------------------------------------------------------------------
 # b3lyp/6-31G* Opt=(ModRedundant, maxcycles=1000, calcfc) geom=nocrowd
 ----------------------------------------------------------------------

 ------------------
 Phi Psi fixed scan
 ------------------
 Symbolic Z-matrix:
 Charge =  0 Multiplicity = 1

 SCF Done:  E(RB3LYP) =  -495.822155856     A.U. after   14 cycles

  Exact polarizability:   0.000   0.000   0.000   0.000   0.000   0.000
 Approx polarizability: 111.140 -13.012 118.860   4.036   2.010 109.403

 SCF Done:  E(RB3LYP) =  -495.829019262     A.U. after   13 cycles
 SCF Done:  E(RB3LYP) =  -495.836214739     A.U. after   13 cycles
 SCF Done:  E(RB3LYP) =  -495.838509669     A.U. after   13 cycles
 SCF Done:  E(RB3LYP) =  -495.839713349     A.U. after   12 cycles
 SCF Done:  E(RB3LYP) =  -495.837983831     A.U. after   13 cycles
 SCF Done:  E(RB3LYP) =  -495.839980196     A.U. after   13 cycles
 SCF Done:  E(RB3LYP) =  -495.840019618     A.U. after   11 cycles
 SCF Done:  E(RB3LYP) =  -495.840367064     A.U. after   12 cycles
 SCF Done:  E(RB3LYP) =  -495.840370728     A.U. after   12 cycles
 SCF Done:  E(RB3LYP) =  -495.840770276     A.U. after   10 cycles
 SCF Done:  E(RB3LYP) =  -495.840771109     A.U. after    9 cycles
 SCF Done:  E(RB3LYP) =  -495.840773203     A.U. after   10 cycles
 SCF Done:  E(RB3LYP) =  -495.840777907     A.U. after   10 cycles
 SCF Done:  E(RB3LYP) =  -495.840790154     A.U. after    9 cycles
 SCF Done:  E(RB3LYP) =  -495.840797548     A.U. after   11 cycles
 SCF Done:  E(RB3LYP) =  -495.840812965     A.U. after   11 cycles
 SCF Done:  E(RB3LYP) =  -495.840814563     A.U. after    7 cycles
 SCF Done:  E(RB3LYP) =  -495.840816164     A.U. after   10 cycles
 SCF Done:  E(RB3LYP) =  -495.840816171     A.U. after    7 cycles
 Optimization completed.
    -- Stationary point found.

                         Standard orientation:
 ---------------------------------------------------------------------
 Center     Atomic      Atomic             Coordinates (Angstroms)
 Number     Number       Type             X           Y           Z
 ---------------------------------------------------------------------
      1          1           0       -3.246309   -1.028910    1.379479
      2          6           0       -3.128899   -0.911637    0.296576
      3          1           0       -3.779859   -0.098044   -0.039142
      4          1           0       -3.450227   -1.845492   -0.171457
      5          6           0       -1.652255   -0.695371   -0.012422
      6          8           0       -0.841709   -1.609906    0.082816
      7          7           0       -1.329956    0.573850   -0.408218
      8          1           0       -2.081969    1.249608   -0.398151
      9          6           0        0.008247    1.171269   -0.561286
     10          1           0        0.237889    1.211329   -1.636845
     11          6           0       -0.004864    2.594680   -0.004721
     12          1           0       -0.121687    2.570409    1.081255
     13          1           0        0.939069    3.098352   -0.232158
     14          1           0       -0.816973    3.180719   -0.452575
     15          6           0        1.146118    0.357510    0.115823
     16          8           0        1.536168    0.636936    1.240739
     17          7           0        1.737466   -0.585744   -0.676647
     18          1           0        1.135233   -0.967815   -1.394873
     19          6           0        2.650408   -1.543474   -0.066621
     20          1           0        3.344297   -1.003157    0.578662
     21          1           0        2.109304   -2.280842    0.540116
     22          1           0        3.210457   -2.057000   -0.852788
 ---------------------------------------------------------------------

 The electronic state is 1-A.
 Alpha  occ. eigenvalues --  -19.11217 -19.10808 -14.36845 -14.34691 -10.29317
 Alpha  occ. eigenvalues --  -10.27966 -10.24141 -10.20311 -10.19572 -10.18746
 Alpha  occ. eigenvalues --   -1.03490  -1.02353  -0.92790  -0.90844  -0.78262
 Alpha  occ. eigenvalues --   -0.73008  -0.70132  -0.63880  -0.59686  -0.56193
 Alpha  occ. eigenvalues --   -0.51219  -0.50313  -0.47925  -0.45758  -0.44463
 Alpha  occ. eigenvalues --   -0.43406  -0.41931  -0.41452  -0.40067  -0.39227
 Alpha  occ. eigenvalues --   -0.38031  -0.37843  -0.37583  -0.35472  -0.35219
 Alpha  occ. eigenvalues --   -0.26641  -0.26021  -0.24533  -0.23247
 Alpha virt. eigenvalues --    0.01825   0.02994   0.06642   0.09785   0.11528
 Alpha virt. eigenvalues --    0.12898   0.13458   0.15230   0.15307   0.16310
 Alpha virt. eigenvalues --    0.17255   0.17572   0.18366   0.18995   0.20193

 Mulliken atomic charges:
              1
     1  H    0.190339
     2  C   -0.538594
     3  H    0.144212
     4  H    0.186635
     5  C    0.599736
     6  O   -0.519454
     7  N   -0.606172
     8  H    0.323742
     9  C   -0.014884
    10  H    0.148903
    11  C   -0.465031
    12  H    0.187413
    13  H    0.167436
    14  H    0.132044
    15  C    0.609603
    16  O   -0.511862
    17  N   -0.562939
    18  H    0.330533
    19  C   -0.309701
    20  H    0.185991
    21  H    0.175633
    22  H    0.146417
 Sum of Mulliken atomic charges =   0.00000

 Dipole moment (field-independent basis, Debye):
    X=             -2.6195    Y=              1.3133    Z=             -2.6822  Tot=              3.9725
 Quadrupole moment (field-independent basis, Debye-Ang):
   XX=            -52.6851   YY=            -59.1136   ZZ=            -61.7276
   XY=             -5.6024   XZ=             -3.7303   YZ=             -0.8418

 Normal termination of Gaussian 09 at Sat Feb 11 01:56:47 2017.
