 Gaussian 09, Revision A.02,
 Gaussian 09:  EM64L-G09RevA.02 11-Jun-2009

 ----------------------------------------------------------------------
 # b3lyp/6-31G* Opt=(ModRedundant, maxcycles=1000, calcfc) geom=nocrowd
 ----------------------------------------------------------------------

 ------------------
 Phi Psi fixed scan
 ------------------
 Symbolic Z-matrix:
 Charge =  0 Multiplicity = 1

 SCF Done:  E(RB3LYP) =  -495.733371994     A.U. after   16 cycles

  Exact polarizability:   0.000   0.000   0.000   0.000   0.000   0.000
 Approx polarizability: 130.118  -3.718 131.103 -16.692  -5.151  96.905

 SCF Done:  E(RB3LYP) =  -495.763320330     A.U. after   13 cycles
 SCF Done:  E(RB3LYP) =  -495.795500792     A.U. after   13 cycles
 SCF Done:  E(RB3LYP) =  -495.825635086     A.U. after   13 cycles
 SCF Done:  E(RB3LYP) =  -495.775514404     A.U. after   16 cycles
 SCF Done:  E(RB3LYP) =  -495.799325972     A.U. after   12 cycles
 SCF Done:  E(RB3LYP) =  -495.825685978     A.U. after   16 cycles
 SCF Done:  E(RB3LYP) =  -495.829785816     A.U. after   12 cycles
 SCF Done:  E(RB3LYP) =  -495.833565243     A.U. after   13 cycles
 SCF Done:  E(RB3LYP) =  -495.838133238     A.U. after   13 cycles
 SCF Done:  E(RB3LYP) =  -495.840988573     A.U. after   10 cycles
 SCF Done:  E(RB3LYP) =  -495.840998167     A.U. after   10 cycles
 SCF Done:  E(RB3LYP) =  -495.841004401     A.U. after   10 cycles
 SCF Done:  E(RB3LYP) =  -495.841007069     A.U. after    8 cycles
 SCF Done:  E(RB3LYP) =  -495.841011844     A.U. after    9 cycles
 SCF Done:  E(RB3LYP) =  -495.841021206     A.U. after   10 cycles
 SCF Done:  E(RB3LYP) =  -495.841031271     A.U. after   10 cycles
 SCF Done:  E(RB3LYP) =  -495.841042707     A.U. after   11 cycles
 SCF Done:  E(RB3LYP) =  -495.841047274     A.U. after   10 cycles
 SCF Done:  E(RB3LYP) =  -495.841047582     A.U. after    9 cycles
 Optimization completed.
    -- Stationary point found.

                         Standard orientation:
 ---------------------------------------------------------------------
 Center     Atomic      Atomic             Coordinates (Angstroms)
 Number     Number       Type             X           Y           Z
 ---------------------------------------------------------------------
      1          1           0       -3.836213   -0.847665   -0.875715
      2          6           0       -3.394555   -0.430362    0.034813
      3          1           0       -3.687389   -1.079335    0.865110
      4          1           0       -3.806242    0.570047    0.199797
      5          6           0       -1.877495   -0.474196   -0.103272
      6          8           0       -1.303760   -1.557127   -0.224687
      7          7           0       -1.267468    0.742575   -0.072323
      8          1           0       -1.897059    1.523701    0.056279
      9          6           0        0.120907    1.201632   -0.298424
     10          1           0        0.148800    1.657789   -1.294908
     11          6           0        0.439084    2.294443    0.738677
     12          1           0        0.449215    1.872859    1.748949
     13          1           0        1.419044    2.724655    0.520534
     14          1           0       -0.306699    3.098702    0.702291
     15          6           0        1.328145    0.230611   -0.323405
     16          8           0        2.334851    0.643255   -0.892767
     17          7           0        1.292430   -0.902712    0.421470
     18          1           0        0.375626   -1.346675    0.481033
     19          6           0        2.456833   -1.778415    0.419926
     20          1           0        3.351864   -1.191597    0.636351
     21          1           0        2.324597   -2.538165    1.194443
     22          1           0        2.603481   -2.274661   -0.548453
 ---------------------------------------------------------------------

 The electronic state is 1-A.
 Alpha  occ. eigenvalues --  -19.12397 -19.10264 -14.37850 -14.33895 -10.30546
 Alpha  occ. eigenvalues --  -10.27861 -10.24494 -10.20379 -10.20322 -10.19324
 Alpha  occ. eigenvalues --   -1.04338  -1.02199  -0.93695  -0.90315  -0.78862
 Alpha  occ. eigenvalues --   -0.73686  -0.69774  -0.64699  -0.60502  -0.55952
 Alpha  occ. eigenvalues --   -0.52194  -0.50570  -0.47945  -0.45878  -0.45175
 Alpha  occ. eigenvalues --   -0.43026  -0.42393  -0.41667  -0.41232  -0.40477
 Alpha  occ. eigenvalues --   -0.38889  -0.37781  -0.37123  -0.36300  -0.34576
 Alpha  occ. eigenvalues --   -0.26991  -0.26459  -0.24549  -0.23712
 Alpha virt. eigenvalues --    0.01366   0.02777   0.05485   0.11037   0.12336
 Alpha virt. eigenvalues --    0.12447   0.13965   0.15118   0.16227   0.16520
 Alpha virt. eigenvalues --    0.16574   0.17589   0.18105   0.18903   0.19485

 Mulliken atomic charges:
              1
     1  H    0.192429
     2  C   -0.532939
     3  H    0.189997
     4  H    0.145660
     5  C    0.602948
     6  O   -0.529447
     7  N   -0.609439
     8  H    0.326492
     9  C   -0.014874
    10  H    0.176829
    11  C   -0.462056
    12  H    0.166229
    13  H    0.189399
    14  H    0.137762
    15  C    0.587693
    16  O   -0.527441
    17  N   -0.602159
    18  H    0.373550
    19  C   -0.301944
    20  H    0.179191
    21  H    0.149491
    22  H    0.162627
 Sum of Mulliken atomic charges =   0.00000

 Dipole moment (field-independent basis, Debye):
    X=             -3.7695    Y=              1.6262    Z=              1.6799  Tot=              4.4357
 Quadrupole moment (field-independent basis, Debye-Ang):
   XX=            -58.3806   YY=            -58.0694   ZZ=            -61.4070
   XY=             -8.1092   XZ=              3.8107   YZ=             -0.2841

 Normal termination of Gaussian 09 at Sat Feb 11 02:10:28 2017.
