 Gaussian 09, Revision A.02,
 Gaussian 09:  EM64L-G09RevA.02 11-Jun-2009

 ----------------------------------------------------------------------
 # b3lyp/6-31G* Opt=(ModRedundant, maxcycles=1000, calcfc) geom=nocrowd
 ----------------------------------------------------------------------

 ------------------
 Phi Psi fixed scan
 ------------------
 Symbolic Z-matrix:
 Charge =  0 Multiplicity = 1

 SCF Done:  E(RB3LYP) =  -495.744212005     A.U. after   16 cycles

  Exact polarizability:   0.000   0.000   0.000   0.000   0.000   0.000
 Approx polarizability: 116.768   3.165 134.819  10.919  -5.159  97.551

 SCF Done:  E(RB3LYP) =  -495.773401707     A.U. after   14 cycles
 SCF Done:  E(RB3LYP) =  -495.802018092     A.U. after   14 cycles
 SCF Done:  E(RB3LYP) =  -495.828051217     A.U. after   13 cycles
 SCF Done:  E(RB3LYP) =  -495.831698524     A.U. after   13 cycles
 SCF Done:  E(RB3LYP) =  -495.825446108     A.U. after   15 cycles
 SCF Done:  E(RB3LYP) =  -495.832504421     A.U. after   13 cycles
 SCF Done:  E(RB3LYP) =  -495.834546623     A.U. after   12 cycles
 SCF Done:  E(RB3LYP) =  -495.836573720     A.U. after   14 cycles
 SCF Done:  E(RB3LYP) =  -495.831054741     A.U. after   13 cycles
 SCF Done:  E(RB3LYP) =  -495.839125196     A.U. after   11 cycles
 SCF Done:  E(RB3LYP) =  -495.839191286     A.U. after   11 cycles
 SCF Done:  E(RB3LYP) =  -495.839265278     A.U. after   12 cycles
 SCF Done:  E(RB3LYP) =  -495.839369493     A.U. after   16 cycles
 SCF Done:  E(RB3LYP) =  -495.839532174     A.U. after   12 cycles
 SCF Done:  E(RB3LYP) =  -495.839639406     A.U. after   11 cycles
 SCF Done:  E(RB3LYP) =  -495.839715051     A.U. after   11 cycles
 SCF Done:  E(RB3LYP) =  -495.839747728     A.U. after   10 cycles
 SCF Done:  E(RB3LYP) =  -495.839750307     A.U. after    8 cycles
 SCF Done:  E(RB3LYP) =  -495.839750572     A.U. after    7 cycles
 Optimization completed.
    -- Stationary point found.

                         Standard orientation:
 ---------------------------------------------------------------------
 Center     Atomic      Atomic             Coordinates (Angstroms)
 Number     Number       Type             X           Y           Z
 ---------------------------------------------------------------------
      1          1           0       -3.515130   -1.547712    0.853945
      2          6           0       -3.268287   -0.595397    0.383356
      3          1           0       -3.519748    0.224065    1.065561
      4          1           0       -3.879625   -0.485621   -0.520413
      5          6           0       -1.787226   -0.611238    0.017082
      6          8           0       -1.158532   -1.668376   -0.008326
      7          7           0       -1.292877    0.610149   -0.340544
      8          1           0       -1.963136    1.362793   -0.250258
      9          6           0        0.084082    1.133790   -0.528334
     10          1           0        0.264652    1.180448   -1.613150
     11          6           0        0.122898    2.557858    0.028159
     12          1           0       -0.005240    2.553954    1.114319
     13          1           0        1.086419    3.019729   -0.190692
     14          1           0       -0.666872    3.168030   -0.428289
     15          6           0        1.291195    0.316501    0.032388
     16          8           0        2.120297    0.886142    0.735686
     17          7           0        1.459155   -0.943134   -0.446084
     18          1           0        0.591638   -1.442837   -0.641314
     19          6           0        2.579025   -1.737877    0.038838
     20          1           0        3.501504   -1.161576   -0.057671
     21          1           0        2.464217   -2.020046    1.093850
     22          1           0        2.653123   -2.644278   -0.567293
 ---------------------------------------------------------------------

 The electronic state is 1-A.
 Alpha  occ. eigenvalues --  -19.12643 -19.10663 -14.37467 -14.33747 -10.30398
 Alpha  occ. eigenvalues --  -10.27886 -10.24555 -10.20317 -10.20136 -10.18739
 Alpha  occ. eigenvalues --   -1.04339  -1.02374  -0.93468  -0.90305  -0.78636
 Alpha  occ. eigenvalues --   -0.73396  -0.70090  -0.64090  -0.60119  -0.55678
 Alpha  occ. eigenvalues --   -0.51402  -0.50714  -0.48534  -0.45755  -0.45116
 Alpha  occ. eigenvalues --   -0.43405  -0.42029  -0.41607  -0.41071  -0.39533
 Alpha  occ. eigenvalues --   -0.38272  -0.37726  -0.37173  -0.36227  -0.35339
 Alpha  occ. eigenvalues --   -0.27463  -0.26713  -0.24525  -0.23260
 Alpha virt. eigenvalues --    0.01296   0.02209   0.06544   0.10689   0.12056
 Alpha virt. eigenvalues --    0.13196   0.13792   0.14175   0.15152   0.16423
 Alpha virt. eigenvalues --    0.16569   0.17337   0.18288   0.18877   0.21147

 Mulliken atomic charges:
              1
     1  H    0.194127
     2  C   -0.545535
     3  H    0.161952
     4  H    0.181089
     5  C    0.596861
     6  O   -0.518093
     7  N   -0.606242
     8  H    0.328404
     9  C   -0.021524
    10  H    0.170843
    11  C   -0.458920
    12  H    0.170683
    13  H    0.184153
    14  H    0.129579
    15  C    0.586977
    16  O   -0.516438
    17  N   -0.591746
    18  H    0.364950
    19  C   -0.300829
    20  H    0.178776
    21  H    0.160865
    22  H    0.150068
 Sum of Mulliken atomic charges =   0.00000

 Dipole moment (field-independent basis, Debye):
    X=             -3.4345    Y=              1.2061    Z=             -1.2453  Tot=              3.8472
 Quadrupole moment (field-independent basis, Debye-Ang):
   XX=            -56.3648   YY=            -59.7019   ZZ=            -60.9981
   XY=             -8.1703   XZ=             -3.3230   YZ=             -1.9262

 Normal termination of Gaussian 09 at Sat Feb 11 02:10:29 2017.
