 Gaussian 09, Revision A.02,
 Gaussian 09:  EM64L-G09RevA.02 11-Jun-2009

 ----------------------------------------------------------------------
 # b3lyp/6-31G* Opt=(ModRedundant, maxcycles=1000, calcfc) geom=nocrowd
 ----------------------------------------------------------------------

 ------------------
 Phi Psi fixed scan
 ------------------
 Symbolic Z-matrix:
 Charge =  0 Multiplicity = 1

 SCF Done:  E(RB3LYP) =  -495.821755393     A.U. after   15 cycles

  Exact polarizability:   0.000   0.000   0.000   0.000   0.000   0.000
 Approx polarizability: 115.878 -12.654 114.871  -6.920  -8.567 109.133

 SCF Done:  E(RB3LYP) =  -495.827378097     A.U. after   12 cycles
 SCF Done:  E(RB3LYP) =  -495.834953562     A.U. after   12 cycles
 SCF Done:  E(RB3LYP) =  -495.838315318     A.U. after   12 cycles
 SCF Done:  E(RB3LYP) =  -495.839084197     A.U. after   12 cycles
 SCF Done:  E(RB3LYP) =  -495.836833157     A.U. after   13 cycles
 SCF Done:  E(RB3LYP) =  -495.839803935     A.U. after   13 cycles
 SCF Done:  E(RB3LYP) =  -495.840301329     A.U. after   12 cycles
 SCF Done:  E(RB3LYP) =  -495.794572266     A.U. after   15 cycles
 SCF Done:  E(RB3LYP) =  -495.840489947     A.U. after   15 cycles
 SCF Done:  E(RB3LYP) =  -495.840952021     A.U. after   11 cycles
 SCF Done:  E(RB3LYP) =  -495.841017562     A.U. after   11 cycles
 SCF Done:  E(RB3LYP) =  -495.841081092     A.U. after   11 cycles
 SCF Done:  E(RB3LYP) =  -495.841114366     A.U. after   11 cycles
 SCF Done:  E(RB3LYP) =  -495.841145178     A.U. after   11 cycles
 SCF Done:  E(RB3LYP) =  -495.841161467     A.U. after   12 cycles
 SCF Done:  E(RB3LYP) =  -495.841164556     A.U. after    9 cycles
 SCF Done:  E(RB3LYP) =  -495.841167586     A.U. after   11 cycles
 SCF Done:  E(RB3LYP) =  -495.841168762     A.U. after    9 cycles
 SCF Done:  E(RB3LYP) =  -495.841168813     A.U. after    7 cycles
 Optimization completed.
    -- Stationary point found.

                         Standard orientation:
 ---------------------------------------------------------------------
 Center     Atomic      Atomic             Coordinates (Angstroms)
 Number     Number       Type             X           Y           Z
 ---------------------------------------------------------------------
      1          1           0       -3.417723   -1.917757    0.003771
      2          6           0       -3.107273   -0.912636    0.295458
      3          1           0       -3.143095   -0.850903    1.389720
      4          1           0       -3.811364   -0.180400   -0.114030
      5          6           0       -1.676018   -0.686740   -0.167217
      6          8           0       -0.866950   -1.598952   -0.265821
      7          7           0       -1.369099    0.612904   -0.500141
      8          1           0       -2.074003    1.300718   -0.265022
      9          6           0        0.000112    1.142754   -0.531233
     10          1           0        0.311465    1.245482   -1.581120
     11          6           0        0.035542    2.521567    0.132805
     12          1           0       -0.178831    2.419495    1.200331
     13          1           0        1.026932    2.971698    0.021276
     14          1           0       -0.695010    3.197432   -0.328193
     15          6           0        1.001568    0.212840    0.195976
     16          8           0        0.965369    0.077274    1.410591
     17          7           0        2.016210   -0.263137   -0.586702
     18          1           0        1.815959   -0.346040   -1.574826
     19          6           0        2.955027   -1.229496   -0.033382
     20          1           0        3.263755   -0.885782    0.955070
     21          1           0        2.500759   -2.222829    0.073581
     22          1           0        3.830281   -1.295798   -0.685271
 ---------------------------------------------------------------------

 The electronic state is 1-A.
 Alpha  occ. eigenvalues --  -19.10925 -19.10237 -14.36005 -14.35290 -10.28612
 Alpha  occ. eigenvalues --  -10.27765 -10.23815 -10.20790 -10.19080 -10.19066
 Alpha  occ. eigenvalues --   -1.03313  -1.01854  -0.92179  -0.91104  -0.78005
 Alpha  occ. eigenvalues --   -0.72766  -0.70339  -0.63861  -0.58997  -0.56710
 Alpha  occ. eigenvalues --   -0.50897  -0.50048  -0.47746  -0.45721  -0.44068
 Alpha  occ. eigenvalues --   -0.43406  -0.41871  -0.41358  -0.39861  -0.38852
 Alpha  occ. eigenvalues --   -0.38512  -0.37932  -0.37662  -0.35717  -0.34089
 Alpha  occ. eigenvalues --   -0.26293  -0.25028  -0.24610  -0.23483
 Alpha virt. eigenvalues --    0.02196   0.03665   0.07012   0.08632   0.11965
 Alpha virt. eigenvalues --    0.13043   0.13623   0.15071   0.15492   0.16130
 Alpha virt. eigenvalues --    0.16837   0.17904   0.18396   0.19050   0.19928

 Mulliken atomic charges:
              1
     1  H    0.186723
     2  C   -0.547078
     3  H    0.188590
     4  H    0.150124
     5  C    0.605104
     6  O   -0.504144
     7  N   -0.600940
     8  H    0.321158
     9  C    0.002178
    10  H    0.134230
    11  C   -0.480591
    12  H    0.185901
    13  H    0.166240
    14  H    0.142027
    15  C    0.633090
    16  O   -0.528454
    17  N   -0.586086
    18  H    0.326624
    19  C   -0.305947
    20  H    0.189291
    21  H    0.175251
    22  H    0.146708
 Sum of Mulliken atomic charges =   0.00000

 Dipole moment (field-independent basis, Debye):
    X=             -1.0349    Y=              2.3845    Z=             -2.4088  Tot=              3.5439
 Quadrupole moment (field-independent basis, Debye-Ang):
   XX=            -48.6326   YY=            -59.6815   ZZ=            -62.0146
   XY=             -4.3736   XZ=             -5.0484   YZ=             -0.4078

 Normal termination of Gaussian 09 at Sat Feb 11 01:26:49 2017.
