 Gaussian 09, Revision A.02,
 Gaussian 09:  EM64L-G09RevA.02 11-Jun-2009

 ----------------------------------------------------------------------
 # b3lyp/6-31G* Opt=(ModRedundant, maxcycles=1000, calcfc) geom=nocrowd
 ----------------------------------------------------------------------

 ------------------
 Phi Psi fixed scan
 ------------------
 Symbolic Z-matrix:
 Charge =  0 Multiplicity = 1

 SCF Done:  E(RB3LYP) =  -495.692663251     A.U. after   19 cycles

  Exact polarizability:   0.000   0.000   0.000   0.000   0.000   0.000
 Approx polarizability: 141.068   8.354 138.711   3.296   4.781  88.042

 SCF Done:  E(RB3LYP) =  -495.723078771     A.U. after   15 cycles
 SCF Done:  E(RB3LYP) =  -495.765514421     A.U. after   15 cycles
 SCF Done:  E(RB3LYP) =  -495.790630617     A.U. after   14 cycles
 SCF Done:  E(RB3LYP) =  -495.803904046     A.U. after   13 cycles
 SCF Done:  E(RB3LYP) =  -495.800195745     A.U. after   15 cycles
 SCF Done:  E(RB3LYP) =  -495.809123284     A.U. after   13 cycles
 SCF Done:  E(RB3LYP) =  -495.811736878     A.U. after   12 cycles
 SCF Done:  E(RB3LYP) =  -495.814161896     A.U. after   14 cycles
 SCF Done:  E(RB3LYP) =  -495.791527118     A.U. after   14 cycles
 SCF Done:  E(RB3LYP) =  -495.823818581     A.U. after   11 cycles
 SCF Done:  E(RB3LYP) =  -495.823826475     A.U. after   10 cycles
 SCF Done:  E(RB3LYP) =  -495.823829609     A.U. after   10 cycles
 SCF Done:  E(RB3LYP) =  -495.823834712     A.U. after   10 cycles
 SCF Done:  E(RB3LYP) =  -495.823840171     A.U. after   10 cycles
 SCF Done:  E(RB3LYP) =  -495.823845059     A.U. after   10 cycles
 SCF Done:  E(RB3LYP) =  -495.823848620     A.U. after   10 cycles
 SCF Done:  E(RB3LYP) =  -495.823849443     A.U. after    8 cycles
 SCF Done:  E(RB3LYP) =  -495.823849603     A.U. after    6 cycles
 SCF Done:  E(RB3LYP) =  -495.823849709     A.U. after    6 cycles
 Optimization completed.
    -- Stationary point found.

                         Standard orientation:
 ---------------------------------------------------------------------
 Center     Atomic      Atomic             Coordinates (Angstroms)
 Number     Number       Type             X           Y           Z
 ---------------------------------------------------------------------
      1          1           0        3.921652    0.518606   -0.200291
      2          6           0        3.431630   -0.415773    0.098469
      3          1           0        3.562370   -0.533877    1.181330
      4          1           0        3.915935   -1.253499   -0.405121
      5          6           0        1.945847   -0.428080   -0.249714
      6          8           0        1.402359   -1.394279   -0.748255
      7          7           0        1.312503    0.791838   -0.024319
      8          1           0        1.938270    1.475533    0.387298
      9          6           0       -0.067232    1.051248    0.427678
     10          1           0       -0.034955    1.222992    1.514057
     11          6           0       -0.562072    2.341095   -0.242233
     12          1           0       -0.643873    2.216674   -1.328198
     13          1           0       -1.527688    2.657151    0.165937
     14          1           0        0.150942    3.154162   -0.064856
     15          6           0       -1.015862   -0.170524    0.331996
     16          8           0       -0.759455   -1.202665    0.930692
     17          7           0       -2.256739    0.074782   -0.196822
     18          1           0       -2.353812    0.831574   -0.858371
     19          6           0       -3.233550   -1.002203   -0.275031
     20          1           0       -3.214097   -1.555387    0.665243
     21          1           0       -4.227571   -0.573087   -0.427724
     22          1           0       -3.013321   -1.706198   -1.087802
 ---------------------------------------------------------------------

 The electronic state is 1-A.
 Alpha  occ. eigenvalues --  -19.10244 -19.10229 -14.35901 -14.35380 -10.28189
 Alpha  occ. eigenvalues --  -10.28031 -10.24405 -10.21358 -10.19722 -10.18620
 Alpha  occ. eigenvalues --   -1.02956  -1.01690  -0.91849  -0.91365  -0.78229
 Alpha  occ. eigenvalues --   -0.72479  -0.70138  -0.65028  -0.58752  -0.56964
 Alpha  occ. eigenvalues --   -0.51447  -0.49758  -0.46521  -0.44586  -0.44392
 Alpha  occ. eigenvalues --   -0.43833  -0.42515  -0.41522  -0.40219  -0.39100
 Alpha  occ. eigenvalues --   -0.38800  -0.38269  -0.37636  -0.36017  -0.33876
 Alpha  occ. eigenvalues --   -0.25551  -0.25035  -0.24084  -0.23034
 Alpha virt. eigenvalues --    0.02012   0.02875   0.06909   0.08664   0.11578
 Alpha virt. eigenvalues --    0.13120   0.13684   0.14714   0.14955   0.16132
 Alpha virt. eigenvalues --    0.16435   0.16749   0.18301   0.18825   0.19260

 Mulliken atomic charges:
              1
     1  H    0.153245
     2  C   -0.549803
     3  H    0.175556
     4  H    0.187036
     5  C    0.594544
     6  O   -0.468323
     7  N   -0.597725
     8  H    0.312161
     9  C   -0.028001
    10  H    0.170846
    11  C   -0.471438
    12  H    0.162533
    13  H    0.156412
    14  H    0.149879
    15  C    0.615789
    16  O   -0.499630
    17  N   -0.599444
    18  H    0.327669
    19  C   -0.302469
    20  H    0.194108
    21  H    0.147327
    22  H    0.169727
 Sum of Mulliken atomic charges =   0.00000

 Dipole moment (field-independent basis, Debye):
    X=             -0.6436    Y=              4.9494    Z=             -0.0133  Tot=              4.9911
 Quadrupole moment (field-independent basis, Debye-Ang):
   XX=            -46.5981   YY=            -62.3335   ZZ=            -60.9774
   XY=              2.8312   XZ=              6.0149   YZ=              0.9138

 Normal termination of Gaussian 09 at Sat Feb 11 01:48:46 2017.
