 Gaussian 09, Revision A.02,
 Gaussian 09:  EM64L-G09RevA.02 11-Jun-2009

 ----------------------------------------------------------------------
 # b3lyp/6-31G* Opt=(ModRedundant, maxcycles=1000, calcfc) geom=nocrowd
 ----------------------------------------------------------------------

 ------------------
 Phi Psi fixed scan
 ------------------
 Symbolic Z-matrix:
 Charge =  0 Multiplicity = 1

 SCF Done:  E(RB3LYP) =  -495.755347532     A.U. after   17 cycles

  Exact polarizability:   0.000   0.000   0.000   0.000   0.000   0.000
 Approx polarizability: 120.486   0.512 131.833   7.740  -9.349  94.972

 SCF Done:  E(RB3LYP) =  -495.760778757     A.U. after   14 cycles
 SCF Done:  E(RB3LYP) =  -495.789694293     A.U. after   14 cycles
 SCF Done:  E(RB3LYP) =  -495.800453264     A.U. after   15 cycles
 SCF Done:  E(RB3LYP) =  -495.790343439     A.U. after   16 cycles
 SCF Done:  E(RB3LYP) =  -495.810694130     A.U. after   16 cycles
 SCF Done:  E(RB3LYP) =  -495.817162289     A.U. after   12 cycles
 SCF Done:  E(RB3LYP) =  -495.823150564     A.U. after   14 cycles
 SCF Done:  E(RB3LYP) =  -495.825005457     A.U. after   13 cycles
 SCF Done:  E(RB3LYP) =  -495.820628257     A.U. after   15 cycles
 SCF Done:  E(RB3LYP) =  -495.828232348     A.U. after   10 cycles
 SCF Done:  E(RB3LYP) =  -495.828247398     A.U. after   11 cycles
 SCF Done:  E(RB3LYP) =  -495.828254902     A.U. after   10 cycles
 SCF Done:  E(RB3LYP) =  -495.828258960     A.U. after   10 cycles
 SCF Done:  E(RB3LYP) =  -495.828260548     A.U. after    9 cycles
 SCF Done:  E(RB3LYP) =  -495.828262494     A.U. after    9 cycles
 SCF Done:  E(RB3LYP) =  -495.828264276     A.U. after    9 cycles
 SCF Done:  E(RB3LYP) =  -495.828265543     A.U. after   10 cycles
 SCF Done:  E(RB3LYP) =  -495.828265925     A.U. after    8 cycles
 SCF Done:  E(RB3LYP) =  -495.828265974     A.U. after    7 cycles
 Optimization completed.
    -- Stationary point found.

                         Standard orientation:
 ---------------------------------------------------------------------
 Center     Atomic      Atomic             Coordinates (Angstroms)
 Number     Number       Type             X           Y           Z
 ---------------------------------------------------------------------
      1          1           0        3.777799   -1.382474   -0.575375
      2          6           0        3.382449   -0.513803   -0.046895
      3          1           0        3.881429    0.391588   -0.411498
      4          1           0        3.612738   -0.620911    1.020346
      5          6           0        1.871333   -0.466068   -0.245143
      6          8           0        1.230310   -1.434995   -0.609979
      7          7           0        1.316701    0.790187   -0.046648
      8          1           0        1.988176    1.473270    0.286066
      9          6           0       -0.035872    1.102939    0.452139
     10          1           0        0.042660    1.304953    1.529265
     11          6           0       -0.535851    2.376431   -0.242301
     12          1           0       -0.602933    2.238612   -1.327806
     13          1           0       -1.512547    2.681183    0.146584
     14          1           0        0.165328    3.201043   -0.068684
     15          6           0       -1.005100   -0.107639    0.425288
     16          8           0       -0.863098   -1.018351    1.226484
     17          7           0       -2.133270    0.030612   -0.336934
     18          1           0       -2.101886    0.671696   -1.117034
     19          6           0       -3.088119   -1.065804   -0.417695
     20          1           0       -3.243137   -1.463339    0.586512
     21          1           0       -4.035202   -0.687964   -0.812324
     22          1           0       -2.727187   -1.882807   -1.055381
 ---------------------------------------------------------------------

 The electronic state is 1-A.
 Alpha  occ. eigenvalues --  -19.10563 -19.10006 -14.35698 -14.35696 -10.28324
 Alpha  occ. eigenvalues --  -10.27995 -10.24153 -10.21143 -10.19614 -10.18866
 Alpha  occ. eigenvalues --   -1.02963  -1.01781  -0.91999  -0.91238  -0.78199
 Alpha  occ. eigenvalues --   -0.72669  -0.70010  -0.64883  -0.58835  -0.56944
 Alpha  occ. eigenvalues --   -0.51547  -0.49792  -0.46752  -0.44772  -0.44142
 Alpha  occ. eigenvalues --   -0.43788  -0.42395  -0.41514  -0.40180  -0.39330
 Alpha  occ. eigenvalues --   -0.38773  -0.38049  -0.37559  -0.36004  -0.34104
 Alpha  occ. eigenvalues --   -0.25330  -0.25310  -0.23841  -0.23487
 Alpha virt. eigenvalues --    0.02212   0.02801   0.06741   0.08647   0.11610
 Alpha virt. eigenvalues --    0.13145   0.13746   0.14834   0.15294   0.15881
 Alpha virt. eigenvalues --    0.16478   0.17018   0.18449   0.18882   0.19470

 Mulliken atomic charges:
              1
     1  H    0.187685
     2  C   -0.548890
     3  H    0.153273
     4  H    0.178727
     5  C    0.594135
     6  O   -0.476089
     7  N   -0.597191
     8  H    0.313820
     9  C   -0.028875
    10  H    0.170211
    11  C   -0.466568
    12  H    0.155891
    13  H    0.162747
    14  H    0.147891
    15  C    0.622992
    16  O   -0.509867
    17  N   -0.595278
    18  H    0.326299
    19  C   -0.302818
    20  H    0.193111
    21  H    0.146410
    22  H    0.172383
 Sum of Mulliken atomic charges =   0.00000

 Dipole moment (field-independent basis, Debye):
    X=              0.1409    Y=              4.6309    Z=             -0.9887  Tot=              4.7374
 Quadrupole moment (field-independent basis, Debye-Ang):
   XX=            -47.2113   YY=            -61.7161   ZZ=            -61.4136
   XY=              2.8702   XZ=              5.9999   YZ=              1.7702

 Normal termination of Gaussian 09 at Sat Feb 11 01:42:12 2017.
