 Gaussian 09, Revision A.02,
 Gaussian 09:  EM64L-G09RevA.02 11-Jun-2009

 ----------------------------------------------------------------------
 # b3lyp/6-31G* Opt=(ModRedundant, maxcycles=1000, calcfc) geom=nocrowd
 ----------------------------------------------------------------------

 ------------------
 Phi Psi fixed scan
 ------------------
 Symbolic Z-matrix:
 Charge =  0 Multiplicity = 1

 SCF Done:  E(RB3LYP) =  -495.061743791     A.U. after   21 cycles

  Exact polarizability:   0.000   0.000   0.000   0.000   0.000   0.000
 Approx polarizability: 351.043 -88.311 196.504   3.471 -11.879  85.235

 SCF Done:  E(RB3LYP) =  -495.237052339     A.U. after   19 cycles
 SCF Done:  E(RB3LYP) =  -495.451003294     A.U. after   17 cycles
 SCF Done:  E(RB3LYP) =  -495.629316761     A.U. after   15 cycles
 SCF Done:  E(RB3LYP) =  -495.759893015     A.U. after   16 cycles
 SCF Done:  E(RB3LYP) =  -495.789984199     A.U. after   14 cycles
 SCF Done:  E(RB3LYP) =  -495.800496939     A.U. after   14 cycles
 SCF Done:  E(RB3LYP) =  -495.800872740     A.U. after   13 cycles
 SCF Done:  E(RB3LYP) =  -495.798215685     A.U. after   13 cycles
 SCF Done:  E(RB3LYP) =  -495.806153013     A.U. after   13 cycles
 SCF Done:  E(RB3LYP) =  -495.840401321     A.U. after   12 cycles
 SCF Done:  E(RB3LYP) =  -495.840793319     A.U. after   12 cycles
 SCF Done:  E(RB3LYP) =  -495.841392603     A.U. after   12 cycles
 SCF Done:  E(RB3LYP) =  -495.841680032     A.U. after   12 cycles
 SCF Done:  E(RB3LYP) =  -495.841752447     A.U. after   12 cycles
 SCF Done:  E(RB3LYP) =  -495.841765582     A.U. after   11 cycles
 SCF Done:  E(RB3LYP) =  -495.841767878     A.U. after    8 cycles
 SCF Done:  E(RB3LYP) =  -495.841768413     A.U. after    8 cycles
 SCF Done:  E(RB3LYP) =  -495.841768571     A.U. after    7 cycles
 SCF Done:  E(RB3LYP) =  -495.841768635     A.U. after    7 cycles
 Optimization completed.
    -- Stationary point found.

                         Standard orientation:
 ---------------------------------------------------------------------
 Center     Atomic      Atomic             Coordinates (Angstroms)
 Number     Number       Type             X           Y           Z
 ---------------------------------------------------------------------
      1          1           0       -3.674480   -0.867313    1.050955
      2          6           0       -3.402933   -0.380055    0.109479
      3          1           0       -3.790124    0.643275    0.114581
      4          1           0       -3.886679   -0.939125   -0.696910
      5          6           0       -1.893024   -0.486425   -0.071495
      6          8           0       -1.373057   -1.603203   -0.123235
      7          7           0       -1.250473    0.708897   -0.166392
      8          1           0       -1.870061    1.503858   -0.085726
      9          6           0        0.150332    1.168690   -0.358953
     10          1           0        0.229695    1.491232   -1.406280
     11          6           0        0.347069    2.409009    0.529615
     12          1           0        0.258498    2.141392    1.588184
     13          1           0        1.340021    2.821642    0.349480
     14          1           0       -0.401638    3.178224    0.301341
     15          6           0        1.396030    0.254501   -0.184494
     16          8           0        2.483751    0.801411   -0.368182
     17          7           0        1.263758   -1.037610    0.159939
     18          1           0        0.331831   -1.459099    0.122481
     19          6           0        2.442690   -1.881471    0.266185
     20          1           0        3.183900   -1.412578    0.919205
     21          1           0        2.144693   -2.844406    0.687621
     22          1           0        2.914804   -2.047266   -0.710447
 ---------------------------------------------------------------------

 The electronic state is 1-A.
 Alpha  occ. eigenvalues --  -19.12819 -19.09663 -14.38039 -14.33769 -10.30833
 Alpha  occ. eigenvalues --  -10.27671 -10.24720 -10.20454 -10.20448 -10.18929
 Alpha  occ. eigenvalues --   -1.04609  -1.01812  -0.93868  -0.90182  -0.78832
 Alpha  occ. eigenvalues --   -0.73656  -0.70030  -0.64546  -0.60540  -0.56372
 Alpha  occ. eigenvalues --   -0.52100  -0.50844  -0.48258  -0.45745  -0.45258
 Alpha  occ. eigenvalues --   -0.43151  -0.42294  -0.41805  -0.41185  -0.40263
 Alpha  occ. eigenvalues --   -0.38703  -0.37520  -0.37366  -0.36493  -0.34321
 Alpha  occ. eigenvalues --   -0.26881  -0.26837  -0.24135  -0.23589
 Alpha virt. eigenvalues --    0.01324   0.03561   0.05549   0.11045   0.12486
 Alpha virt. eigenvalues --    0.12614   0.13750   0.15121   0.15709   0.16177
 Alpha virt. eigenvalues --    0.16619   0.17169   0.18707   0.19035   0.20089

 Mulliken atomic charges:
              1
     1  H    0.191346
     2  C   -0.532044
     3  H    0.146624
     4  H    0.192663
     5  C    0.605629
     6  O   -0.529184
     7  N   -0.614471
     8  H    0.329521
     9  C   -0.022925
    10  H    0.179854
    11  C   -0.466440
    12  H    0.160746
    13  H    0.201512
    14  H    0.132821
    15  C    0.606107
    16  O   -0.541994
    17  N   -0.625710
    18  H    0.392004
    19  C   -0.296218
    20  H    0.175548
    21  H    0.151055
    22  H    0.163556
 Sum of Mulliken atomic charges =   0.00000

 Dipole moment (field-independent basis, Debye):
    X=             -3.9817    Y=              1.2875    Z=              0.6036  Tot=              4.2280
 Quadrupole moment (field-independent basis, Debye-Ang):
   XX=            -60.3300   YY=            -58.7406   ZZ=            -59.7065
   XY=             -9.5040   XZ=              1.6166   YZ=             -0.5240

 Normal termination of Gaussian 09 at Sat Feb 11 01:53:45 2017.
