 Gaussian 09, Revision A.02,
 Gaussian 09:  EM64L-G09RevA.02 11-Jun-2009

 ----------------------------------------------------------------------
 # b3lyp/6-31G* Opt=(ModRedundant, maxcycles=1000, calcfc) geom=nocrowd
 ----------------------------------------------------------------------

 ------------------
 Phi Psi fixed scan
 ------------------
 Symbolic Z-matrix:
 Charge =  0 Multiplicity = 1

 SCF Done:  E(RB3LYP) =  -495.800773073     A.U. after   16 cycles

  Exact polarizability:   0.000   0.000   0.000   0.000   0.000   0.000
 Approx polarizability: 111.470  -9.947 124.949   8.567   4.883 104.324

 SCF Done:  E(RB3LYP) =  -495.814943443     A.U. after   14 cycles
 SCF Done:  E(RB3LYP) =  -495.819827428     A.U. after   15 cycles
 SCF Done:  E(RB3LYP) =  -495.833154730     A.U. after   15 cycles
 SCF Done:  E(RB3LYP) =  -495.834590859     A.U. after   12 cycles
 SCF Done:  E(RB3LYP) =  -495.836742909     A.U. after   12 cycles
 SCF Done:  E(RB3LYP) =  -495.837912943     A.U. after   12 cycles
 SCF Done:  E(RB3LYP) =  -495.838652809     A.U. after   12 cycles
 SCF Done:  E(RB3LYP) =  -495.819054367     A.U. after   13 cycles
 SCF Done:  E(RB3LYP) =  -495.839026800     A.U. after   14 cycles
 SCF Done:  E(RB3LYP) =  -495.839653836     A.U. after   10 cycles
 SCF Done:  E(RB3LYP) =  -495.839697192     A.U. after   11 cycles
 SCF Done:  E(RB3LYP) =  -495.839724461     A.U. after   11 cycles
 SCF Done:  E(RB3LYP) =  -495.839741004     A.U. after   10 cycles
 SCF Done:  E(RB3LYP) =  -495.839751469     A.U. after   10 cycles
 SCF Done:  E(RB3LYP) =  -495.839754553     A.U. after    8 cycles
 SCF Done:  E(RB3LYP) =  -495.839755368     A.U. after    7 cycles
 SCF Done:  E(RB3LYP) =  -495.839755899     A.U. after    7 cycles
 SCF Done:  E(RB3LYP) =  -495.839756341     A.U. after    8 cycles
 SCF Done:  E(RB3LYP) =  -495.839756402     A.U. after    7 cycles
 Optimization completed.
    -- Stationary point found.

                         Standard orientation:
 ---------------------------------------------------------------------
 Center     Atomic      Atomic             Coordinates (Angstroms)
 Number     Number       Type             X           Y           Z
 ---------------------------------------------------------------------
      1          1           0       -3.625542   -1.639387   -0.056771
      2          6           0       -3.189523   -0.750956    0.406531
      3          1           0       -3.238859   -0.887812    1.492502
      4          1           0       -3.787478    0.126027    0.139094
      5          6           0       -1.725623   -0.655991   -0.005735
      6          8           0       -1.007082   -1.652247   -0.001958
      7          7           0       -1.319851    0.589472   -0.393674
      8          1           0       -2.024834    1.310328   -0.316891
      9          6           0        0.041850    1.145655   -0.561480
     10          1           0        0.252693    1.172667   -1.640768
     11          6           0        0.051376    2.576461   -0.024140
     12          1           0       -0.075751    2.579861    1.061300
     13          1           0        1.006029    3.057436   -0.248531
     14          1           0       -0.747039    3.167174   -0.490559
     15          6           0        1.217692    0.340103    0.073238
     16          8           0        1.845017    0.809835    1.014831
     17          7           0        1.588347   -0.796627   -0.584159
     18          1           0        0.804185   -1.304751   -0.982130
     19          6           0        2.628846   -1.632486    0.002187
     20          1           0        3.484107   -1.006847    0.262700
     21          1           0        2.284633   -2.142099    0.911741
     22          1           0        2.937197   -2.379930   -0.733445
 ---------------------------------------------------------------------

 The electronic state is 1-A.
 Alpha  occ. eigenvalues --  -19.11853 -19.11024 -14.37270 -14.34147 -10.29900
 Alpha  occ. eigenvalues --  -10.28036 -10.24359 -10.20326 -10.19926 -10.18797
 Alpha  occ. eigenvalues --   -1.03877  -1.02593  -0.93175  -0.90587  -0.78456
 Alpha  occ. eigenvalues --   -0.73270  -0.70111  -0.64004  -0.59949  -0.55707
 Alpha  occ. eigenvalues --   -0.51315  -0.50548  -0.48349  -0.45843  -0.44792
 Alpha  occ. eigenvalues --   -0.43418  -0.42089  -0.41565  -0.40638  -0.39360
 Alpha  occ. eigenvalues --   -0.38150  -0.37825  -0.37337  -0.35832  -0.35371
 Alpha  occ. eigenvalues --   -0.27268  -0.26565  -0.24675  -0.23230
 Alpha virt. eigenvalues --    0.01385   0.02322   0.06487   0.10634   0.12111
 Alpha virt. eigenvalues --    0.12721   0.13645   0.15039   0.15065   0.16251
 Alpha virt. eigenvalues --    0.17040   0.17239   0.18344   0.18621   0.20803

 Mulliken atomic charges:
              1
     1  H    0.188883
     2  C   -0.537391
     3  H    0.190415
     4  H    0.146898
     5  C    0.599443
     6  O   -0.524021
     7  N   -0.607626
     8  H    0.326609
     9  C   -0.017958
    10  H    0.163436
    11  C   -0.461155
    12  H    0.178990
    13  H    0.175120
    14  H    0.131278
    15  C    0.590976
    16  O   -0.509929
    17  N   -0.572760
    18  H    0.348065
    19  C   -0.305603
    20  H    0.181796
    21  H    0.165372
    22  H    0.149163
 Sum of Mulliken atomic charges =   0.00000

 Dipole moment (field-independent basis, Debye):
    X=             -3.0245    Y=              1.2122    Z=             -1.7151  Tot=              3.6822
 Quadrupole moment (field-independent basis, Debye-Ang):
   XX=            -54.4956   YY=            -59.4229   ZZ=            -61.6912
   XY=             -6.7898   XZ=             -3.8949   YZ=             -1.7546

 Normal termination of Gaussian 09 at Sat Feb 11 01:57:01 2017.
