 Gaussian 09, Revision A.02,
 Gaussian 09:  EM64L-G09RevA.02 11-Jun-2009

 ----------------------------------------------------------------------
 # b3lyp/6-31G* Opt=(ModRedundant, maxcycles=1000, calcfc) geom=nocrowd
 ----------------------------------------------------------------------

 ------------------
 Phi Psi fixed scan
 ------------------
 Symbolic Z-matrix:
 Charge =  0 Multiplicity = 1

 SCF Done:  E(RB3LYP) =  -495.208168072     A.U. after   22 cycles

  Exact polarizability:   0.000   0.000   0.000   0.000   0.000   0.000
 Approx polarizability: 316.434 -67.257 166.436  -2.360  -2.791  87.645

 SCF Done:  E(RB3LYP) =  -495.349042513     A.U. after   19 cycles
 SCF Done:  E(RB3LYP) =  -495.563225033     A.U. after   17 cycles
 SCF Done:  E(RB3LYP) =  -495.668746832     A.U. after   14 cycles
 SCF Done:  E(RB3LYP) =  -495.700604756     A.U. after   14 cycles
 SCF Done:  E(RB3LYP) =  -495.748408117     A.U. after   13 cycles
 SCF Done:  E(RB3LYP) =  -495.788278320     A.U. after   13 cycles
 SCF Done:  E(RB3LYP) =  -495.706422009     A.U. after   14 cycles
 SCF Done:  E(RB3LYP) =  -495.791003263     A.U. after   14 cycles
 SCF Done:  E(RB3LYP) =  -495.805431132     A.U. after   13 cycles
 SCF Done:  E(RB3LYP) =  -495.841090571     A.U. after    8 cycles
 SCF Done:  E(RB3LYP) =  -495.841090631     A.U. after    7 cycles
 SCF Done:  E(RB3LYP) =  -495.841090698     A.U. after    7 cycles
 SCF Done:  E(RB3LYP) =  -495.841090918     A.U. after    7 cycles
 SCF Done:  E(RB3LYP) =  -495.841091080     A.U. after    7 cycles
 SCF Done:  E(RB3LYP) =  -495.841091239     A.U. after    7 cycles
 SCF Done:  E(RB3LYP) =  -495.841091453     A.U. after    7 cycles
 SCF Done:  E(RB3LYP) =  -495.841091853     A.U. after    8 cycles
 SCF Done:  E(RB3LYP) =  -495.841092051     A.U. after    8 cycles
 SCF Done:  E(RB3LYP) =  -495.841092017     A.U. after    7 cycles
 Optimization completed on the basis of negligible forces.
    -- Stationary point found.

                         Standard orientation:
 ---------------------------------------------------------------------
 Center     Atomic      Atomic             Coordinates (Angstroms)
 Number     Number       Type             X           Y           Z
 ---------------------------------------------------------------------
      1          1           0       -3.884929   -1.066279   -0.492477
      2          6           0       -3.370219   -0.423355    0.227277
      3          1           0       -3.581671   -0.818409    1.225868
      4          1           0       -3.776285    0.590097    0.155157
      5          6           0       -1.869506   -0.524825   -0.021872
      6          8           0       -1.337323   -1.636754   -0.019602
      7          7           0       -1.254382    0.667943   -0.249213
      8          1           0       -1.887622    1.454690   -0.209306
      9          6           0        0.143556    1.145392   -0.434462
     10          1           0        0.272961    1.316274   -1.514517
     11          6           0        0.248544    2.502780    0.272483
     12          1           0        0.094244    2.388895    1.350711
     13          1           0        1.242050    2.919096    0.110091
     14          1           0       -0.500375    3.203157   -0.118334
     15          6           0        1.385216    0.277341   -0.062400
     16          8           0        2.437250    0.875688    0.163041
     17          7           0        1.306229   -1.062639   -0.139572
     18          1           0        0.380571   -1.497044   -0.183627
     19          6           0        2.482006   -1.873569    0.129662
     20          1           0        3.307676   -1.577017   -0.524186
     21          1           0        2.822382   -1.764187    1.166753
     22          1           0        2.231068   -2.920457   -0.056288
 ---------------------------------------------------------------------

 The electronic state is 1-A.
 Alpha  occ. eigenvalues --  -19.12849 -19.09834 -14.38016 -14.33616 -10.30814
 Alpha  occ. eigenvalues --  -10.27674 -10.24803 -10.20429 -10.20407 -10.18656
 Alpha  occ. eigenvalues --   -1.04605  -1.01874  -0.93856  -0.90095  -0.78778
 Alpha  occ. eigenvalues --   -0.73581  -0.70106  -0.64340  -0.60478  -0.56237
 Alpha  occ. eigenvalues --   -0.51902  -0.50873  -0.48549  -0.45697  -0.45086
 Alpha  occ. eigenvalues --   -0.43390  -0.42097  -0.41803  -0.41192  -0.39916
 Alpha  occ. eigenvalues --   -0.38412  -0.37580  -0.37364  -0.36347  -0.34661
 Alpha  occ. eigenvalues --   -0.27256  -0.26713  -0.23966  -0.23559
 Alpha virt. eigenvalues --    0.01363   0.03314   0.05804   0.10793   0.12442
 Alpha virt. eigenvalues --    0.13164   0.13677   0.14840   0.15265   0.16074
 Alpha virt. eigenvalues --    0.16625   0.16985   0.18625   0.19297   0.20433

 Mulliken atomic charges:
              1
     1  H    0.191931
     2  C   -0.532177
     3  H    0.192049
     4  H    0.146876
     5  C    0.606663
     6  O   -0.527229
     7  N   -0.614685
     8  H    0.330912
     9  C   -0.033173
    10  H    0.180123
    11  C   -0.463990
    12  H    0.161152
    13  H    0.201194
    14  H    0.129422
    15  C    0.604525
    16  O   -0.535199
    17  N   -0.621621
    18  H    0.390136
    19  C   -0.294274
    20  H    0.172749
    21  H    0.163798
    22  H    0.150819
 Sum of Mulliken atomic charges =   0.00000

 Dipole moment (field-independent basis, Debye):
    X=             -3.8920    Y=              1.1627    Z=             -0.4063  Tot=              4.0822
 Quadrupole moment (field-independent basis, Debye-Ang):
   XX=            -59.7822   YY=            -59.3513   ZZ=            -59.4403
   XY=             -9.4853   XZ=             -1.1987   YZ=             -1.2736

 Normal termination of Gaussian 09 at Sat Feb 11 01:58:43 2017.
