 Gaussian 09, Revision A.02,
 Gaussian 09:  EM64L-G09RevA.02 11-Jun-2009

 ----------------------------------------------------------------------
 # b3lyp/6-31G* Opt=(ModRedundant, maxcycles=1000, calcfc) geom=nocrowd
 ----------------------------------------------------------------------

 ------------------
 Phi Psi fixed scan
 ------------------
 Symbolic Z-matrix:
 Charge =  0 Multiplicity = 1

 SCF Done:  E(RB3LYP) =  -495.567206867     A.U. after   18 cycles

  Exact polarizability:   0.000   0.000   0.000   0.000   0.000   0.000
 Approx polarizability: 182.925  -7.931 143.228 -11.662  -6.514  89.588

 SCF Done:  E(RB3LYP) =  -495.618254786     A.U. after   15 cycles
 SCF Done:  E(RB3LYP) =  -495.698457771     A.U. after   15 cycles
 SCF Done:  E(RB3LYP) =  -495.777111532     A.U. after   14 cycles
 SCF Done:  E(RB3LYP) =  -495.807839435     A.U. after   13 cycles
 SCF Done:  E(RB3LYP) =  -495.811962983     A.U. after   13 cycles
 SCF Done:  E(RB3LYP) =  -495.826706160     A.U. after   13 cycles
 SCF Done:  E(RB3LYP) =  -495.837297345     A.U. after   14 cycles
 SCF Done:  E(RB3LYP) =  -495.837485547     A.U. after   15 cycles
 SCF Done:  E(RB3LYP) =  -495.839957356     A.U. after   14 cycles
 SCF Done:  E(RB3LYP) =  -495.841642851     A.U. after   10 cycles
 SCF Done:  E(RB3LYP) =  -495.841651568     A.U. after   10 cycles
 SCF Done:  E(RB3LYP) =  -495.841658775     A.U. after   10 cycles
 SCF Done:  E(RB3LYP) =  -495.841665534     A.U. after   10 cycles
 SCF Done:  E(RB3LYP) =  -495.841675431     A.U. after   10 cycles
 SCF Done:  E(RB3LYP) =  -495.841676888     A.U. after    9 cycles
 SCF Done:  E(RB3LYP) =  -495.841677095     A.U. after    7 cycles
 SCF Done:  E(RB3LYP) =  -495.841677231     A.U. after    7 cycles
 SCF Done:  E(RB3LYP) =  -495.841677266     A.U. after    7 cycles
 SCF Done:  E(RB3LYP) =  -495.841677275     A.U. after    6 cycles
 Optimization completed.
    -- Stationary point found.

                         Standard orientation:
 ---------------------------------------------------------------------
 Center     Atomic      Atomic             Coordinates (Angstroms)
 Number     Number       Type             X           Y           Z
 ---------------------------------------------------------------------
      1          1           0       -3.691028   -0.941493    0.967163
      2          6           0       -3.404269   -0.391578    0.065729
      3          1           0       -3.799288    0.626860    0.128992
      4          1           0       -3.867600   -0.899363   -0.785581
      5          6           0       -1.890559   -0.475777   -0.091884
      6          8           0       -1.352441   -1.581269   -0.178247
      7          7           0       -1.256208    0.727549   -0.121053
      8          1           0       -1.877426    1.518649   -0.016084
      9          6           0        0.140511    1.184273   -0.326764
     10          1           0        0.193485    1.581191   -1.348393
     11          6           0        0.396758    2.349144    0.646822
     12          1           0        0.363193    1.997460    1.683526
     13          1           0        1.381424    2.773635    0.444867
     14          1           0       -0.356055    3.137966    0.522330
     15          6           0        1.372437    0.242881   -0.255158
     16          8           0        2.434816    0.737123   -0.629092
     17          7           0        1.267954   -0.985775    0.291789
     18          1           0        0.340689   -1.416793    0.283183
     19          6           0        2.440983   -1.845238    0.343332
     20          1           0        3.279913   -1.296289    0.777319
     21          1           0        2.211840   -2.712577    0.967351
     22          1           0        2.744465   -2.190739   -0.653579
 ---------------------------------------------------------------------

 The electronic state is 1-A.
 Alpha  occ. eigenvalues --  -19.12661 -19.09884 -14.37981 -14.33821 -10.30736
 Alpha  occ. eigenvalues --  -10.27751 -10.24623 -10.20418 -10.20405 -10.19146
 Alpha  occ. eigenvalues --   -1.04509  -1.01961  -0.93813  -0.90244  -0.78859
 Alpha  occ. eigenvalues --   -0.73685  -0.69914  -0.64641  -0.60541  -0.56185
 Alpha  occ. eigenvalues --   -0.52167  -0.50748  -0.48093  -0.45823  -0.45256
 Alpha  occ. eigenvalues --   -0.43005  -0.42399  -0.41735  -0.41262  -0.40395
 Alpha  occ. eigenvalues --   -0.38812  -0.37640  -0.37209  -0.36469  -0.34382
 Alpha  occ. eigenvalues --   -0.26935  -0.26670  -0.24349  -0.23632
 Alpha virt. eigenvalues --    0.01343   0.03231   0.05452   0.11066   0.12438
 Alpha virt. eigenvalues --    0.12474   0.13839   0.15115   0.16111   0.16381
 Alpha virt. eigenvalues --    0.16656   0.17338   0.18456   0.18936   0.19851

 Mulliken atomic charges:
              1
     1  H    0.190744
     2  C   -0.532275
     3  H    0.146157
     4  H    0.192760
     5  C    0.604797
     6  O   -0.529592
     7  N   -0.612184
     8  H    0.328145
     9  C   -0.017405
    10  H    0.178389
    11  C   -0.464126
    12  H    0.162963
    13  H    0.196326
    14  H    0.135140
    15  C    0.595920
    16  O   -0.536825
    17  N   -0.615515
    18  H    0.384828
    19  C   -0.299244
    20  H    0.178228
    21  H    0.150463
    22  H    0.162304
 Sum of Mulliken atomic charges =   0.00000

 Dipole moment (field-independent basis, Debye):
    X=             -3.9116    Y=              1.4399    Z=              1.1413  Tot=              4.3216
 Quadrupole moment (field-independent basis, Debye-Ang):
   XX=            -59.6324   YY=            -58.3998   ZZ=            -60.4215
   XY=             -8.9745   XZ=              2.8330   YZ=             -0.2973

 Normal termination of Gaussian 09 at Sat Feb 11 02:11:18 2017.
