 Gaussian 09, Revision A.02,
 Gaussian 09:  EM64L-G09RevA.02 11-Jun-2009

 ----------------------------------------------------------------------
 # b3lyp/6-31G* Opt=(ModRedundant, maxcycles=1000, calcfc) geom=nocrowd
 ----------------------------------------------------------------------

 ------------------
 Phi Psi fixed scan
 ------------------
 Symbolic Z-matrix:
 Charge =  0 Multiplicity = 1

 SCF Done:  E(RB3LYP) =  -495.603598604     A.U. after   21 cycles

  Exact polarizability:   0.000   0.000   0.000   0.000   0.000   0.000
 Approx polarizability: 179.965  21.922 151.590  -4.257  -1.182  84.951

 SCF Done:  E(RB3LYP) =  -495.662883376     A.U. after   16 cycles
 SCF Done:  E(RB3LYP) =  -495.759216286     A.U. after   15 cycles
 SCF Done:  E(RB3LYP) =  -495.784402806     A.U. after   14 cycles
 SCF Done:  E(RB3LYP) =  -495.800806054     A.U. after   15 cycles
 SCF Done:  E(RB3LYP) =  -495.796856627     A.U. after   15 cycles
 SCF Done:  E(RB3LYP) =  -495.805534322     A.U. after   14 cycles
 SCF Done:  E(RB3LYP) =  -495.809064597     A.U. after   13 cycles
 SCF Done:  E(RB3LYP) =  -495.811995996     A.U. after   15 cycles
 SCF Done:  E(RB3LYP) =  -495.810446973     A.U. after   15 cycles
 SCF Done:  E(RB3LYP) =  -495.818890921     A.U. after   12 cycles
 SCF Done:  E(RB3LYP) =  -495.818922407     A.U. after   11 cycles
 SCF Done:  E(RB3LYP) =  -495.818945394     A.U. after   11 cycles
 SCF Done:  E(RB3LYP) =  -495.818961019     A.U. after   10 cycles
 SCF Done:  E(RB3LYP) =  -495.819022106     A.U. after   12 cycles
 SCF Done:  E(RB3LYP) =  -495.819140221     A.U. after   13 cycles
 SCF Done:  E(RB3LYP) =  -495.819158408     A.U. after   12 cycles
 SCF Done:  E(RB3LYP) =  -495.819162089     A.U. after   11 cycles
 SCF Done:  E(RB3LYP) =  -495.819162688     A.U. after    8 cycles
 SCF Done:  E(RB3LYP) =  -495.819162695     A.U. after    7 cycles
 Optimization completed.
    -- Stationary point found.

                         Standard orientation:
 ---------------------------------------------------------------------
 Center     Atomic      Atomic             Coordinates (Angstroms)
 Number     Number       Type             X           Y           Z
 ---------------------------------------------------------------------
      1          1           0        3.934827    0.642694   -0.015144
      2          6           0        3.474726   -0.318592    0.244062
      3          1           0        3.532490   -0.436219    1.333362
      4          1           0        4.039405   -1.124784   -0.226006
      5          6           0        2.020521   -0.407782   -0.217153
      6          8           0        1.583443   -1.384353   -0.790124
      7          7           0        1.306967    0.771409    0.005073
      8          1           0        1.884321    1.472751    0.455364
      9          6           0       -0.098585    1.004784    0.383222
     10          1           0       -0.124839    1.168809    1.472434
     11          6           0       -0.562661    2.303301   -0.297083
     12          1           0       -0.650953    2.170318   -1.380920
     13          1           0       -1.516237    2.655751    0.110776
     14          1           0        0.171271    3.098444   -0.125570
     15          6           0       -1.047734   -0.208643    0.225966
     16          8           0       -0.730935   -1.324183    0.601524
     17          7           0       -2.354555    0.111244   -0.056695
     18          1           0       -2.541913    0.951297   -0.584432
     19          6           0       -3.351546   -0.947669   -0.131208
     20          1           0       -3.212807   -1.617337    0.719113
     21          1           0       -4.348542   -0.501046   -0.086737
     22          1           0       -3.262299   -1.543356   -1.048920
 ---------------------------------------------------------------------

 The electronic state is 1-A.
 Alpha  occ. eigenvalues --  -19.10520 -19.09943 -14.35933 -14.35207 -10.28364
 Alpha  occ. eigenvalues --  -10.27846 -10.24665 -10.21479 -10.19894 -10.18457
 Alpha  occ. eigenvalues --   -1.03077  -1.01545  -0.91818  -0.91370  -0.78317
 Alpha  occ. eigenvalues --   -0.72332  -0.70204  -0.65179  -0.58788  -0.56912
 Alpha  occ. eigenvalues --   -0.51337  -0.49682  -0.46368  -0.44745  -0.44332
 Alpha  occ. eigenvalues --   -0.43834  -0.42691  -0.41562  -0.40296  -0.39013
 Alpha  occ. eigenvalues --   -0.38916  -0.38315  -0.37596  -0.35977  -0.33826
 Alpha  occ. eigenvalues --   -0.25752  -0.24854  -0.24297  -0.22565
 Alpha virt. eigenvalues --    0.01868   0.03054   0.06837   0.08574   0.11530
 Alpha virt. eigenvalues --    0.13063   0.13297   0.14405   0.14822   0.16439
 Alpha virt. eigenvalues --    0.16586   0.16686   0.18064   0.18961   0.19281

 Mulliken atomic charges:
              1
     1  H    0.152793
     2  C   -0.550451
     3  H    0.172333
     4  H    0.186638
     5  C    0.594028
     6  O   -0.460321
     7  N   -0.600804
     8  H    0.311700
     9  C   -0.026757
    10  H    0.171566
    11  C   -0.472347
    12  H    0.168829
    13  H    0.149762
    14  H    0.151230
    15  C    0.601367
    16  O   -0.485892
    17  N   -0.598257
    18  H    0.327543
    19  C   -0.300848
    20  H    0.193284
    21  H    0.147272
    22  H    0.167332
 Sum of Mulliken atomic charges =   0.00000

 Dipole moment (field-independent basis, Debye):
    X=             -1.2214    Y=              5.2207    Z=              0.7857  Tot=              5.4190
 Quadrupole moment (field-independent basis, Debye-Ang):
   XX=            -46.6526   YY=            -62.7187   ZZ=            -60.5805
   XY=              2.8515   XZ=              5.7942   YZ=             -0.0496

 Normal termination of Gaussian 09 at Sat Feb 11 01:51:36 2017.
