 Gaussian 09, Revision A.02,
 Gaussian 09:  EM64L-G09RevA.02 11-Jun-2009

 ----------------------------------------------------------------------
 # b3lyp/6-31G* Opt=(ModRedundant, maxcycles=1000, calcfc) geom=nocrowd
 ----------------------------------------------------------------------

 ------------------
 Phi Psi fixed scan
 ------------------
 Symbolic Z-matrix:
 Charge =  0 Multiplicity = 1

 SCF Done:  E(RB3LYP) =  -495.827566148     A.U. after   14 cycles

  Exact polarizability:   0.000   0.000   0.000   0.000   0.000   0.000
 Approx polarizability: 112.741 -13.986 115.291  -1.579  -2.949 111.375

 SCF Done:  E(RB3LYP) =  -495.832547794     A.U. after   12 cycles
 SCF Done:  E(RB3LYP) =  -495.838337192     A.U. after   12 cycles
 SCF Done:  E(RB3LYP) =  -495.840409049     A.U. after   13 cycles
 SCF Done:  E(RB3LYP) =  -495.839375562     A.U. after   12 cycles
 SCF Done:  E(RB3LYP) =  -495.840451706     A.U. after   12 cycles
 SCF Done:  E(RB3LYP) =  -495.841048009     A.U. after   12 cycles
 SCF Done:  E(RB3LYP) =  -495.838775720     A.U. after   13 cycles
 SCF Done:  E(RB3LYP) =  -495.841344288     A.U. after   13 cycles
 SCF Done:  E(RB3LYP) =  -495.841635808     A.U. after   12 cycles
 SCF Done:  E(RB3LYP) =  -495.841711865     A.U. after   12 cycles
 SCF Done:  E(RB3LYP) =  -495.841727194     A.U. after   11 cycles
 SCF Done:  E(RB3LYP) =  -495.841737031     A.U. after   10 cycles
 SCF Done:  E(RB3LYP) =  -495.841742726     A.U. after   10 cycles
 SCF Done:  E(RB3LYP) =  -495.841750873     A.U. after   10 cycles
 SCF Done:  E(RB3LYP) =  -495.841758039     A.U. after   10 cycles
 SCF Done:  E(RB3LYP) =  -495.841759267     A.U. after    8 cycles
 SCF Done:  E(RB3LYP) =  -495.841760006     A.U. after    8 cycles
 SCF Done:  E(RB3LYP) =  -495.841760532     A.U. after    9 cycles
 SCF Done:  E(RB3LYP) =  -495.841760534     A.U. after    7 cycles
 Optimization completed.
    -- Stationary point found.

                         Standard orientation:
 ---------------------------------------------------------------------
 Center     Atomic      Atomic             Coordinates (Angstroms)
 Number     Number       Type             X           Y           Z
 ---------------------------------------------------------------------
      1          1           0       -3.367540   -1.971330   -0.071279
      2          6           0       -3.084821   -0.979457    0.287961
      3          1           0       -3.172846   -0.982410    1.380598
      4          1           0       -3.781325   -0.236173   -0.113780
      5          6           0       -1.632844   -0.718906   -0.088569
      6          8           0       -0.790065   -1.607415   -0.070590
      7          7           0       -1.355254    0.569864   -0.465804
      8          1           0       -2.104859    1.239960   -0.353443
      9          6           0       -0.013758    1.165848   -0.554152
     10          1           0        0.264819    1.233064   -1.616304
     11          6           0       -0.035134    2.573293    0.043309
     12          1           0       -0.197812    2.512366    1.122401
     13          1           0        0.922436    3.073610   -0.130885
     14          1           0       -0.821948    3.182914   -0.417746
     15          6           0        1.061173    0.316274    0.172854
     16          8           0        1.213669    0.395385    1.383273
     17          7           0        1.889542   -0.394509   -0.650169
     18          1           0        1.490016   -0.649487   -1.544349
     19          6           0        2.796189   -1.372515   -0.063479
     20          1           0        3.315717   -0.907773    0.775841
     21          1           0        2.252948   -2.251046    0.307346
     22          1           0        3.526716   -1.682157   -0.815601
 ---------------------------------------------------------------------

 The electronic state is 1-A.
 Alpha  occ. eigenvalues --  -19.11100 -19.10489 -14.36449 -14.34931 -10.28979
 Alpha  occ. eigenvalues --  -10.27805 -10.23933 -10.20466 -10.19351 -10.18868
 Alpha  occ. eigenvalues --   -1.03418  -1.02071  -0.92488  -0.90932  -0.78116
 Alpha  occ. eigenvalues --   -0.72901  -0.70175  -0.63833  -0.59351  -0.56411
 Alpha  occ. eigenvalues --   -0.51000  -0.50239  -0.47829  -0.45682  -0.44278
 Alpha  occ. eigenvalues --   -0.43369  -0.41847  -0.41394  -0.39951  -0.39024
 Alpha  occ. eigenvalues --   -0.38250  -0.37813  -0.37668  -0.35534  -0.34675
 Alpha  occ. eigenvalues --   -0.26437  -0.25539  -0.24558  -0.23343
 Alpha virt. eigenvalues --    0.02056   0.03386   0.06861   0.09071   0.11747
 Alpha virt. eigenvalues --    0.13116   0.13439   0.15088   0.15393   0.16325
 Alpha virt. eigenvalues --    0.17133   0.17796   0.18473   0.19108   0.20091

 Mulliken atomic charges:
              1
     1  H    0.186861
     2  C   -0.543163
     3  H    0.189557
     4  H    0.147192
     5  C    0.603366
     6  O   -0.512500
     7  N   -0.603667
     8  H    0.322637
     9  C   -0.004620
    10  H    0.140179
    11  C   -0.475090
    12  H    0.188494
    13  H    0.166175
    14  H    0.136544
    15  C    0.620935
    16  O   -0.519497
    17  N   -0.572644
    18  H    0.327755
    19  C   -0.308254
    20  H    0.186674
    21  H    0.177238
    22  H    0.145826
 Sum of Mulliken atomic charges =   0.00000

 Dipole moment (field-independent basis, Debye):
    X=             -1.9423    Y=              1.7218    Z=             -2.7144  Tot=              3.7557
 Quadrupole moment (field-independent basis, Debye-Ang):
   XX=            -50.5435   YY=            -59.2748   ZZ=            -61.9676
   XY=             -4.8047   XZ=             -4.3615   YZ=             -0.6268

 Normal termination of Gaussian 09 at Sat Feb 11 01:26:45 2017.
