 Gaussian 09, Revision A.02,
 Gaussian 09:  EM64L-G09RevA.02 11-Jun-2009

 ----------------------------------------------------------------------
 # b3lyp/6-31G* Opt=(ModRedundant, maxcycles=1000, calcfc) geom=nocrowd
 ----------------------------------------------------------------------

 ------------------
 Phi Psi fixed scan
 ------------------
 Symbolic Z-matrix:
 Charge =  0 Multiplicity = 1

 SCF Done:  E(RB3LYP) =  -495.766406456     A.U. after   16 cycles

  Exact polarizability:   0.000   0.000   0.000   0.000   0.000   0.000
 Approx polarizability: 128.839  -3.867 123.674 -10.811 -14.215  95.714

 SCF Done:  E(RB3LYP) =  -495.790897477     A.U. after   14 cycles
 SCF Done:  E(RB3LYP) =  -495.810498412     A.U. after   15 cycles
 SCF Done:  E(RB3LYP) =  -495.797682184     A.U. after   16 cycles
 SCF Done:  E(RB3LYP) =  -495.815258311     A.U. after   15 cycles
 SCF Done:  E(RB3LYP) =  -495.818573601     A.U. after   12 cycles
 SCF Done:  E(RB3LYP) =  -495.821586570     A.U. after   14 cycles
 SCF Done:  E(RB3LYP) =  -495.823440981     A.U. after   13 cycles
 SCF Done:  E(RB3LYP) =  -495.823521928     A.U. after   15 cycles
 SCF Done:  E(RB3LYP) =  -495.825087627     A.U. after   14 cycles
 SCF Done:  E(RB3LYP) =  -495.834426018     A.U. after   11 cycles
 SCF Done:  E(RB3LYP) =  -495.834543075     A.U. after   11 cycles
 SCF Done:  E(RB3LYP) =  -495.834703055     A.U. after   12 cycles
 SCF Done:  E(RB3LYP) =  -495.834882021     A.U. after   12 cycles
 SCF Done:  E(RB3LYP) =  -495.834936545     A.U. after   11 cycles
 SCF Done:  E(RB3LYP) =  -495.834981203     A.U. after   11 cycles
 SCF Done:  E(RB3LYP) =  -495.834985906     A.U. after   10 cycles
 SCF Done:  E(RB3LYP) =  -495.834987015     A.U. after    8 cycles
 SCF Done:  E(RB3LYP) =  -495.834987122     A.U. after    7 cycles
 SCF Done:  E(RB3LYP) =  -495.834987127     A.U. after    6 cycles
 Optimization completed.
    -- Stationary point found.

                         Standard orientation:
 ---------------------------------------------------------------------
 Center     Atomic      Atomic             Coordinates (Angstroms)
 Number     Number       Type             X           Y           Z
 ---------------------------------------------------------------------
      1          1           0       -3.024113   -0.569214    1.529016
      2          6           0       -3.188864   -0.589737    0.444820
      3          1           0       -3.840055    0.251601    0.181634
      4          1           0       -3.684477   -1.527487    0.188688
      5          6           0       -1.843616   -0.533364   -0.262007
      6          8           0       -1.265918   -1.528421   -0.663679
      7          7           0       -1.354665    0.749633   -0.478596
      8          1           0       -1.903128    1.465704   -0.015790
      9          6           0        0.075253    1.072068   -0.486474
     10          1           0        0.393681    1.245316   -1.525408
     11          6           0        0.311218    2.360265    0.315379
     12          1           0        0.064888    2.193178    1.369168
     13          1           0        1.359386    2.665772    0.249295
     14          1           0       -0.307461    3.177430   -0.074406
     15          6           0        0.961315   -0.039111    0.120783
     16          8           0        0.659709   -0.611993    1.156928
     17          7           0        2.218036   -0.096250   -0.423235
     18          1           0        2.328370    0.225327   -1.375777
     19          6           0        3.197590   -1.053112    0.070090
     20          1           0        3.053349   -1.159063    1.146065
     21          1           0        3.082323   -2.042182   -0.391888
     22          1           0        4.205935   -0.678794   -0.129332
 ---------------------------------------------------------------------

 The electronic state is 1-A.
 Alpha  occ. eigenvalues --  -19.10629 -19.10254 -14.36020 -14.35206 -10.28160
 Alpha  occ. eigenvalues --  -10.27909 -10.24022 -10.21465 -10.19702 -10.18474
 Alpha  occ. eigenvalues --   -1.03232  -1.01676  -0.91830  -0.91516  -0.78035
 Alpha  occ. eigenvalues --   -0.72441  -0.70722  -0.64171  -0.58726  -0.56928
 Alpha  occ. eigenvalues --   -0.50935  -0.49606  -0.47594  -0.45776  -0.43911
 Alpha  occ. eigenvalues --   -0.43442  -0.42452  -0.41345  -0.39818  -0.39036
 Alpha  occ. eigenvalues --   -0.38576  -0.38250  -0.37900  -0.36057  -0.33387
 Alpha  occ. eigenvalues --   -0.26409  -0.24925  -0.24220  -0.23483
 Alpha virt. eigenvalues --    0.02221   0.03493   0.06792   0.08288   0.12115
 Alpha virt. eigenvalues --    0.12630   0.13953   0.14990   0.15295   0.16151
 Alpha virt. eigenvalues --    0.16211   0.17268   0.17864   0.18595   0.19804

 Mulliken atomic charges:
              1
     1  H    0.186019
     2  C   -0.551530
     3  H    0.151057
     4  H    0.185283
     5  C    0.606432
     6  O   -0.489539
     7  N   -0.601477
     8  H    0.317209
     9  C    0.000926
    10  H    0.134098
    11  C   -0.480472
    12  H    0.175943
    13  H    0.166058
    14  H    0.153528
    15  C    0.629147
    16  O   -0.519920
    17  N   -0.595505
    18  H    0.323083
    19  C   -0.305401
    20  H    0.196916
    21  H    0.167896
    22  H    0.150250
 Sum of Mulliken atomic charges =   0.00000

 Dipole moment (field-independent basis, Debye):
    X=              0.9729    Y=              3.8601    Z=             -0.9656  Tot=              4.0963
 Quadrupole moment (field-independent basis, Debye-Ang):
   XX=            -47.0265   YY=            -61.0603   ZZ=            -61.5899
   XY=             -4.0070   XZ=             -6.2700   YZ=             -0.4659

 Normal termination of Gaussian 09 at Sat Feb 11 01:41:58 2017.
