 Gaussian 09, Revision A.02,
 Gaussian 09:  EM64L-G09RevA.02 11-Jun-2009

 ----------------------------------------------------------------------
 # b3lyp/6-31G* Opt=(ModRedundant, maxcycles=1000, calcfc) geom=nocrowd
 ----------------------------------------------------------------------

 ------------------
 Phi Psi fixed scan
 ------------------
 Symbolic Z-matrix:
 Charge =  0 Multiplicity = 1

 SCF Done:  E(RB3LYP) =  -495.797496734     A.U. after   16 cycles

  Exact polarizability:   0.000   0.000   0.000   0.000   0.000   0.000
 Approx polarizability: 115.035  -7.344 123.998 -16.125  -3.257 104.564

 SCF Done:  E(RB3LYP) =  -495.814133134     A.U. after   17 cycles
 SCF Done:  E(RB3LYP) =  -495.833374316     A.U. after   16 cycles
 SCF Done:  E(RB3LYP) =  -495.828200221     A.U. after   16 cycles
 SCF Done:  E(RB3LYP) =  -495.833394920     A.U. after   15 cycles
 SCF Done:  E(RB3LYP) =  -495.834828952     A.U. after   12 cycles
 SCF Done:  E(RB3LYP) =  -495.837046021     A.U. after   12 cycles
 SCF Done:  E(RB3LYP) =  -495.838157651     A.U. after   16 cycles
 SCF Done:  E(RB3LYP) =  -495.838353586     A.U. after   15 cycles
 SCF Done:  E(RB3LYP) =  -495.838980288     A.U. after   12 cycles
 SCF Done:  E(RB3LYP) =  -495.839737032     A.U. after   12 cycles
 SCF Done:  E(RB3LYP) =  -495.839768063     A.U. after   10 cycles
 SCF Done:  E(RB3LYP) =  -495.839791274     A.U. after   11 cycles
 SCF Done:  E(RB3LYP) =  -495.839799291     A.U. after   10 cycles
 SCF Done:  E(RB3LYP) =  -495.839815390     A.U. after   10 cycles
 SCF Done:  E(RB3LYP) =  -495.839829838     A.U. after   11 cycles
 SCF Done:  E(RB3LYP) =  -495.839839347     A.U. after   11 cycles
 SCF Done:  E(RB3LYP) =  -495.839840366     A.U. after   10 cycles
 SCF Done:  E(RB3LYP) =  -495.839840453     A.U. after    7 cycles
 SCF Done:  E(RB3LYP) =  -495.839840453     A.U. after    6 cycles
 Optimization completed.
    -- Stationary point found.

                         Standard orientation:
 ---------------------------------------------------------------------
 Center     Atomic      Atomic             Coordinates (Angstroms)
 Number     Number       Type             X           Y           Z
 ---------------------------------------------------------------------
      1          1           0        3.613190   -1.258306   -0.813000
      2          6           0        3.359191   -0.513539   -0.053754
      3          1           0        3.801373    0.448201   -0.331835
      4          1           0        3.804683   -0.845325    0.889927
      5          6           0        1.844560   -0.485106    0.111318
      6          8           0        1.214874   -1.525845    0.290349
      7          7           0        1.283641    0.755318    0.037835
      8          1           0        1.928491    1.516036   -0.130983
      9          6           0       -0.092312    1.223029    0.287046
     10          1           0       -0.104445    1.702366    1.272464
     11          6           0       -0.456906    2.277989   -0.772197
     12          1           0       -0.488003    1.828625   -1.769321
     13          1           0       -1.438429    2.701796   -0.542868
     14          1           0        0.273919    3.096739   -0.776583
     15          6           0       -1.264600    0.216051    0.374946
     16          8           0       -2.175615    0.489964    1.147206
     17          7           0       -1.342544   -0.773216   -0.563355
     18          1           0       -0.446605   -1.205731   -0.770101
     19          6           0       -2.477374   -1.687963   -0.506106
     20          1           0       -3.402637   -1.109972   -0.472294
     21          1           0       -2.471799   -2.309909   -1.405023
     22          1           0       -2.446838   -2.334953    0.380303
 ---------------------------------------------------------------------

 The electronic state is 1-A.
 Alpha  occ. eigenvalues --  -19.11961 -19.10697 -14.37589 -14.34120 -10.30185
 Alpha  occ. eigenvalues --  -10.27997 -10.24298 -10.20379 -10.20164 -10.19451
 Alpha  occ. eigenvalues --   -1.04058  -1.02471  -0.93460  -0.90448  -0.78792
 Alpha  occ. eigenvalues --   -0.73612  -0.69653  -0.64711  -0.60377  -0.55912
 Alpha  occ. eigenvalues --   -0.52124  -0.50265  -0.47875  -0.45776  -0.45023
 Alpha  occ. eigenvalues --   -0.43246  -0.42296  -0.41635  -0.40950  -0.40403
 Alpha  occ. eigenvalues --   -0.38933  -0.37919  -0.37171  -0.36020  -0.34888
 Alpha  occ. eigenvalues --   -0.26882  -0.26192  -0.24747  -0.23736
 Alpha virt. eigenvalues --    0.01457   0.02484   0.05703   0.11003   0.11991
 Alpha virt. eigenvalues --    0.12530   0.14107   0.14868   0.15953   0.16391
 Alpha virt. eigenvalues --    0.16617   0.17664   0.17832   0.18869   0.18923

 Mulliken atomic charges:
              1
     1  H    0.188455
     2  C   -0.534244
     3  H    0.145011
     4  H    0.191742
     5  C    0.597665
     6  O   -0.527167
     7  N   -0.608007
     8  H    0.324302
     9  C   -0.014628
    10  H    0.176006
    11  C   -0.462465
    12  H    0.168478
    13  H    0.182369
    14  H    0.139989
    15  C    0.590920
    16  O   -0.517415
    17  N   -0.585699
    18  H    0.355763
    19  C   -0.304212
    20  H    0.180098
    21  H    0.147829
    22  H    0.165213
 Sum of Mulliken atomic charges =   0.00000

 Dipole moment (field-independent basis, Debye):
    X=              3.5412    Y=              1.8436    Z=             -2.3375  Tot=              4.6263
 Quadrupole moment (field-independent basis, Debye-Ang):
   XX=            -56.7887   YY=            -57.7572   ZZ=            -62.4563
   XY=              6.8274   XZ=              4.2163   YZ=              0.8290

 Normal termination of Gaussian 09 at Sat Feb 11 01:49:20 2017.
