 Gaussian 09, Revision A.02,
 Gaussian 09:  EM64L-G09RevA.02 11-Jun-2009

 -------------------
 #SP MP2/aug-cc-pVDZ
 -------------------

 -------------------------------
 Single Point calculation at MP2
 -------------------------------
 Symbolic Z-matrix:
 Charge =  0 Multiplicity = 1

                         Standard orientation:
 ---------------------------------------------------------------------
 Center     Atomic      Atomic             Coordinates (Angstroms)
 Number     Number       Type             X           Y           Z
 ---------------------------------------------------------------------
      1          1           0        3.563583   -1.869500   -0.151894
      2          6           0        3.136486   -1.027599   -0.702794
      3          1           0        2.731785   -1.385998   -1.654794
      4          1           0        3.951588   -0.325502   -0.910794
      5          6           0        2.105388   -0.338197    0.178406
      6          8           0        2.314288   -0.098597    1.358706
      7          7           0        0.917188   -0.019893   -0.446194
      8          1           0        0.889188   -0.086393   -1.456194
      9          6           0       -0.069109    0.861809    0.179606
     10          1           0        0.186491    0.853508    1.245406
     11          6           0        0.015095    2.296709   -0.347994
     12          1           0       -0.150305    2.329209   -1.431694
     13          1           0       -0.755604    2.911311    0.121306
     14          1           0        1.000696    2.718606   -0.129594
     15          6           0       -1.504611    0.307113    0.053406
     16          8           0       -2.476609    1.053616    0.036406
     17          7           0       -1.593314   -1.051687    0.012306
     18          1           0       -0.729816   -1.574589    0.051206
     19          6           0       -2.861816   -1.755483    0.004306
     20          1           0       -3.650914   -1.005981   -0.073494
     21          1           0       -2.927818   -2.439283   -0.850094
     22          1           0       -3.006018   -2.330583    0.927306
 ---------------------------------------------------------------------

 SCF Done:  E(RHF) =  -492.924866334     A.U. after   14 cycles
 E2 =    -0.1601321767D+01 EUMP2 =    -0.49452618810123D+03

 The electronic state is 1-A.
 Alpha  occ. eigenvalues --  -20.54280 -20.53042 -15.60934 -15.59489 -11.37587
 Alpha  occ. eigenvalues --  -11.36011 -11.29222 -11.26900 -11.25876 -11.23070
 Alpha  occ. eigenvalues --   -1.39756  -1.38409  -1.25486  -1.22710  -1.05695
 Alpha  occ. eigenvalues --   -0.99858  -0.96306  -0.87577  -0.80675  -0.78754
 Alpha  occ. eigenvalues --   -0.73372  -0.68320  -0.66338  -0.64361  -0.62453
 Alpha  occ. eigenvalues --   -0.62081  -0.60133  -0.59372  -0.58273  -0.55969
 Alpha  occ. eigenvalues --   -0.54845  -0.53878  -0.52590  -0.52188  -0.50348
 Alpha  occ. eigenvalues --   -0.43906  -0.43620  -0.40136  -0.38981
 Alpha virt. eigenvalues --    0.02312   0.03724   0.04255   0.04594   0.05575
 Alpha virt. eigenvalues --    0.06091   0.06314   0.06486   0.07222   0.08217
 Alpha virt. eigenvalues --    0.08393   0.09364   0.11386   0.12149   0.12702

 Mulliken atomic charges:
              1
     1  H    0.029919
     2  C    0.345548
     3  H   -0.151991
     4  H    0.053801
     5  C    0.600546
     6  O   -0.849129
     7  N   -0.255445
     8  H   -0.123747
     9  C   -0.404028
    10  H   -0.050393
    11  C    0.867851
    12  H   -0.060544
    13  H   -0.018310
    14  H   -0.071310
    15  C    1.132621
    16  O   -0.824141
    17  N   -0.531618
    18  H   -0.070424
    19  C    0.721713
    20  H   -0.152940
    21  H   -0.101965
    22  H   -0.086014
 Sum of Mulliken atomic charges =   0.00000

 Dipole moment (field-independent basis, Debye):
    X=              1.7822    Y=             -3.0011    Z=             -3.5827  Tot=              5.0018
 Quadrupole moment (field-independent basis, Debye-Ang):
   XX=            -68.5159   YY=            -58.1244   ZZ=            -63.2889
   XY=              5.8985   XZ=             -8.9862   YZ=              0.7502

 Normal termination of Gaussian 09 at Mon Feb 13 07:02:39 2017.
