 Gaussian 09, Revision A.02,
 Gaussian 09:  EM64L-G09RevA.02 11-Jun-2009

 -------------------
 #SP MP2/aug-cc-pVDZ
 -------------------

 -------------------------------
 Single Point calculation at MP2
 -------------------------------
 Symbolic Z-matrix:
 Charge =  0 Multiplicity = 1

                         Standard orientation:
 ---------------------------------------------------------------------
 Center     Atomic      Atomic             Coordinates (Angstroms)
 Number     Number       Type             X           Y           Z
 ---------------------------------------------------------------------
      1          1           0        4.222302   -0.612398   -0.391403
      2          6           0        3.296901   -1.150796   -0.164603
      3          1           0        3.515599   -1.842897    0.654697
      4          1           0        2.993299   -1.723895   -1.045903
      5          6           0        2.250803   -0.150693    0.304397
      6          8           0        2.441205    0.586706    1.266497
      7          7           0        1.100304   -0.118490   -0.432603
      8          1           0        0.900802   -0.836490   -1.119103
      9          6           0       -0.047294    0.674613   -0.030403
     10          1           0        0.105006    0.940213    1.021197
     11          6           0       -0.175791    1.964313   -0.862403
     12          1           0       -0.306092    1.722614   -1.922403
     13          1           0       -1.033789    2.563316   -0.535903
     14          1           0        0.732211    2.562811   -0.745703
     15          6           0       -1.296397   -0.203084   -0.201403
     16          8           0       -1.353499   -1.056984   -1.083303
     17          7           0       -2.316596    0.063819    0.657597
     18          1           0       -2.164494    0.749119    1.383997
     19          6           0       -3.594898   -0.625878    0.606297
     20          1           0       -3.556800   -1.320178   -0.233803
     21          1           0       -3.777199   -1.189277    1.528797
     22          1           0       -4.418396    0.081125    0.453697
 ---------------------------------------------------------------------

 SCF Done:  E(RHF) =  -492.928640915     A.U. after   14 cycles
 E2 =    -0.1599970003D+01 EUMP2 =    -0.49452861091852D+03

 The electronic state is 1-A.
 Alpha  occ. eigenvalues --  -20.54118 -20.52540 -15.60723 -15.59027 -11.36918
 Alpha  occ. eigenvalues --  -11.35995 -11.29216 -11.27616 -11.24327 -11.23875
 Alpha  occ. eigenvalues --   -1.39620  -1.37860  -1.24417  -1.23530  -1.05588
 Alpha  occ. eigenvalues --   -0.99086  -0.96437  -0.88151  -0.80497  -0.78725
 Alpha  occ. eigenvalues --   -0.73167  -0.67488  -0.65890  -0.63944  -0.63376
 Alpha  occ. eigenvalues --   -0.61792  -0.60236  -0.58692  -0.57262  -0.56492
 Alpha  occ. eigenvalues --   -0.55543  -0.54074  -0.52696  -0.52318  -0.49526
 Alpha  occ. eigenvalues --   -0.43754  -0.42115  -0.40498  -0.38911
 Alpha virt. eigenvalues --    0.02885   0.03907   0.04318   0.04603   0.05618
 Alpha virt. eigenvalues --    0.06105   0.06367   0.07185   0.07256   0.07871
 Alpha virt. eigenvalues --    0.09204   0.09404   0.10970   0.12117   0.12880

 Mulliken atomic charges:
              1
     1  H    0.041944
     2  C    0.376543
     3  H    0.046677
     4  H   -0.156849
     5  C    0.542454
     6  O   -0.864598
     7  N   -0.247431
     8  H   -0.063762
     9  C   -0.314947
    10  H   -0.136929
    11  C    0.797653
    12  H   -0.021633
    13  H   -0.053659
    14  H   -0.068244
    15  C    1.274546
    16  O   -0.902449
    17  N   -0.506953
    18  H   -0.112457
    19  C    0.709337
    20  H   -0.146813
    21  H   -0.087902
    22  H   -0.104528
 Sum of Mulliken atomic charges =   0.00000

 Dipole moment (field-independent basis, Debye):
    X=             -2.3265    Y=              0.2289    Z=              0.0328  Tot=              2.3379
 Quadrupole moment (field-independent basis, Debye-Ang):
   XX=            -56.2109   YY=            -61.1973   ZZ=            -65.2480
   XY=             -9.0400   XZ=            -13.1082   YZ=             -3.2061

 Normal termination of Gaussian 09 at Mon Feb 13 05:23:10 2017.
