 Gaussian 09, Revision A.02,
 Gaussian 09:  EM64L-G09RevA.02 11-Jun-2009

 -------------------
 #SP MP2/aug-cc-pVDZ
 -------------------

 -------------------------------
 Single Point calculation at MP2
 -------------------------------
 Symbolic Z-matrix:
 Charge =  0 Multiplicity = 1

                         Standard orientation:
 ---------------------------------------------------------------------
 Center     Atomic      Atomic             Coordinates (Angstroms)
 Number     Number       Type             X           Y           Z
 ---------------------------------------------------------------------
      1          1           0       -3.419622   -2.007755    0.474719
      2          6           0       -3.205210   -0.980657    0.784919
      3          1           0       -2.892410   -0.981361    1.833719
      4          1           0       -4.135904   -0.411746    0.692619
      5          6           0       -2.173203   -0.388669   -0.163581
      6          8           0       -2.347503   -0.360567   -1.377381
      7          7           0       -1.048597    0.108817    0.432819
      8          1           0       -0.922598    0.051816    1.434719
      9          6           0        0.043010    0.710205   -0.322181
     10          1           0       -0.112594    0.406806   -1.361281
     11          6           0        0.040128    2.241805   -0.223281
     12          1           0        0.186631    2.552703    0.815619
     13          1           0        0.847933    2.671895   -0.826981
     14          1           0       -0.913868    2.635016   -0.586781
     15          6           0        1.348903    0.138589    0.248519
     16          8           0        1.626805    0.290586    1.435619
     17          7           0        2.129595   -0.545620   -0.630781
     18          1           0        1.798394   -0.659816   -1.577981
     19          6           0        3.386788   -1.167235   -0.250381
     20          1           0        3.568990   -0.918537    0.795819
     21          1           0        3.337775   -2.257434   -0.356481
     22          1           0        4.213392   -0.788345   -0.861981
 ---------------------------------------------------------------------

 SCF Done:  E(RHF) =  -492.927490533     A.U. after   14 cycles
 E2 =    -0.1600092583D+01 EUMP2 =    -0.49452758311566D+03

 The electronic state is 1-A.
 Alpha  occ. eigenvalues --  -20.53674 -20.52837 -15.60621 -15.59726 -11.36601
 Alpha  occ. eigenvalues --  -11.36422 -11.29194 -11.27422 -11.24713 -11.23427
 Alpha  occ. eigenvalues --   -1.39248  -1.38162  -1.24348  -1.23713  -1.05596
 Alpha  occ. eigenvalues --   -0.99223  -0.96530  -0.87919  -0.80295  -0.79289
 Alpha  occ. eigenvalues --   -0.73193  -0.67470  -0.65899  -0.64321  -0.62838
 Alpha  occ. eigenvalues --   -0.61933  -0.60304  -0.58576  -0.57620  -0.56616
 Alpha  occ. eigenvalues --   -0.55330  -0.53791  -0.52397  -0.52036  -0.50134
 Alpha  occ. eigenvalues --   -0.43690  -0.42427  -0.40077  -0.39054
 Alpha virt. eigenvalues --    0.02998   0.03714   0.04341   0.04852   0.05585
 Alpha virt. eigenvalues --    0.05938   0.06269   0.07245   0.07262   0.07719
 Alpha virt. eigenvalues --    0.08927   0.09621   0.11626   0.12134   0.12230

 Mulliken atomic charges:
              1
     1  H    0.046040
     2  C    0.400109
     3  H   -0.162899
     4  H    0.046256
     5  C    0.577161
     6  O   -0.864770
     7  N   -0.113873
     8  H   -0.104729
     9  C   -0.359826
    10  H   -0.235083
    11  C    0.853267
    12  H   -0.015822
    13  H   -0.050971
    14  H   -0.064716
    15  C    1.161348
    16  O   -0.874085
    17  N   -0.514991
    18  H   -0.107632
    19  C    0.726395
    20  H   -0.145009
    21  H   -0.090492
    22  H   -0.105679
 Sum of Mulliken atomic charges =   0.00000

 Dipole moment (field-independent basis, Debye):
    X=              1.2168    Y=             -0.7669    Z=             -0.0127  Tot=              1.4384
 Quadrupole moment (field-independent basis, Debye-Ang):
   XX=            -58.7904   YY=            -58.5954   ZZ=            -66.5657
   XY=             -2.9171   XZ=            -16.3632   YZ=             -2.0181

 Normal termination of Gaussian 09 at Mon Feb 13 05:49:05 2017.
