 Gaussian 09, Revision A.02,
 Gaussian 09:  EM64L-G09RevA.02 11-Jun-2009

 -------------------
 #SP MP2/aug-cc-pVDZ
 -------------------

 -------------------------------
 Single Point calculation at MP2
 -------------------------------
 Symbolic Z-matrix:
 Charge =  0 Multiplicity = 1

                         Standard orientation:
 ---------------------------------------------------------------------
 Center     Atomic      Atomic             Coordinates (Angstroms)
 Number     Number       Type             X           Y           Z
 ---------------------------------------------------------------------
      1          1           0       -4.172510   -0.518841    0.567197
      2          6           0       -3.257706   -1.111434    0.465497
      3          1           0       -3.502699   -1.986036   -0.144603
      4          1           0       -2.939103   -1.444332    1.458097
      5          6           0       -2.214412   -0.280726   -0.266903
      6          8           0       -2.393415    0.125873   -1.410603
      7          7           0       -1.079814   -0.008617    0.443497
      8          1           0       -0.916111   -0.425516    1.351097
      9          6           0        0.045580    0.712591   -0.129003
     10          1           0       -0.102920    0.700390   -1.213103
     11          6           0        0.109569    2.168392    0.362597
     12          1           0        0.235269    2.195893    1.449697
     13          1           0        0.951765    2.699898   -0.095903
     14          1           0       -0.816335    2.686885    0.097097
     15          6           0        1.319986   -0.041599    0.274797
     16          8           0        1.476389   -0.427798    1.430897
     17          7           0        2.231688   -0.230792   -0.716603
     18          1           0        1.998185    0.080906   -1.648503
     19          6           0        3.505793   -0.896182   -0.501803
     20          1           0        3.562595   -1.156781    0.555697
     21          1           0        3.579000   -1.810881   -1.101303
     22          1           0        4.343088   -0.236575   -0.757203
 ---------------------------------------------------------------------

 SCF Done:  E(RHF) =  -492.928244906     A.U. after   14 cycles
 E2 =    -0.1599985055D+01 EUMP2 =    -0.49452822996050D+03

 The electronic state is 1-A.
 Alpha  occ. eigenvalues --  -20.53869 -20.52629 -15.60731 -15.59357 -11.36763
 Alpha  occ. eigenvalues --  -11.36179 -11.29203 -11.27540 -11.24494 -11.23675
 Alpha  occ. eigenvalues --   -1.39415  -1.37969  -1.24361  -1.23657  -1.05599
 Alpha  occ. eigenvalues --   -0.99139  -0.96516  -0.88040  -0.80420  -0.79039
 Alpha  occ. eigenvalues --   -0.73188  -0.67455  -0.65903  -0.64054  -0.63146
 Alpha  occ. eigenvalues --   -0.61853  -0.60299  -0.58592  -0.57477  -0.56553
 Alpha  occ. eigenvalues --   -0.55460  -0.53943  -0.52430  -0.52289  -0.49811
 Alpha  occ. eigenvalues --   -0.43727  -0.42227  -0.40294  -0.38926
 Alpha virt. eigenvalues --    0.02945   0.03817   0.04326   0.04739   0.05578
 Alpha virt. eigenvalues --    0.06032   0.06371   0.07200   0.07279   0.07776
 Alpha virt. eigenvalues --    0.09046   0.09612   0.11218   0.12167   0.12526

 Mulliken atomic charges:
              1
     1  H    0.046292
     2  C    0.384351
     3  H    0.043304
     4  H   -0.164223
     5  C    0.571233
     6  O   -0.869299
     7  N   -0.149528
     8  H   -0.084588
     9  C   -0.345566
    10  H   -0.192406
    11  C    0.813224
    12  H   -0.017713
    13  H   -0.052291
    14  H   -0.067640
    15  C    1.227075
    16  O   -0.894438
    17  N   -0.520767
    18  H   -0.108649
    19  C    0.723275
    20  H   -0.146961
    21  H   -0.089181
    22  H   -0.105504
 Sum of Mulliken atomic charges =   0.00000

 Dipole moment (field-independent basis, Debye):
    X=              1.8339    Y=             -0.2214    Z=             -0.2261  Tot=              1.8610
 Quadrupole moment (field-independent basis, Debye-Ang):
   XX=            -57.2386   YY=            -58.8674   ZZ=            -67.0378
   XY=              3.4956   XZ=            -16.0034   YZ=              1.1389

 Normal termination of Gaussian 09 at Mon Feb 13 05:18:25 2017.
