 Gaussian 09, Revision A.02,
 Gaussian 09:  EM64L-G09RevA.02 11-Jun-2009

 -------------------
 #SP MP2/aug-cc-pVDZ
 -------------------

 -------------------------------
 Single Point calculation at MP2
 -------------------------------
 Symbolic Z-matrix:
 Charge =  0 Multiplicity = 1

                         Standard orientation:
 ---------------------------------------------------------------------
 Center     Atomic      Atomic             Coordinates (Angstroms)
 Number     Number       Type             X           Y           Z
 ---------------------------------------------------------------------
      1          1           0       -3.440216   -1.904077    0.722604
      2          6           0       -3.138507   -0.877380    0.946504
      3          1           0       -2.786806   -0.822983    1.981604
      4          1           0       -4.027201   -0.245472    0.842804
      5          6           0       -2.101603   -0.438490   -0.076596
      6          8           0       -2.264904   -0.605388   -1.279796
      7          7           0       -0.974897    0.143400    0.443104
      8          1           0       -0.926396    0.331600    1.435804
      9          6           0        0.045608    0.765991   -0.399296
     10          1           0       -0.144895    0.381792   -1.405096
     11          6           0       -0.049478    2.292591   -0.396796
     12          1           0        0.158126    2.686190    0.602304
     13          1           0        0.687626    2.723785   -1.083196
     14          1           0       -1.048075    2.606501   -0.714996
     15          6           0        1.419904    0.296278    0.114704
     16          8           0        2.010210    0.892172    1.009804
     17          7           0        1.881293   -0.846826   -0.466496
     18          1           0        1.298289   -1.299121   -1.156896
     19          6           0        3.101987   -1.509338   -0.042396
     20          1           0        3.588693   -0.860242    0.686704
     21          1           0        2.890378   -2.478036    0.427104
     22          1           0        3.775786   -1.668144   -0.891796
 ---------------------------------------------------------------------

 SCF Done:  E(RHF) =  -492.925883748     A.U. after   14 cycles
 E2 =    -0.1600393814D+01 EUMP2 =    -0.49452627756179D+03

 The electronic state is 1-A.
 Alpha  occ. eigenvalues --  -20.53563 -20.53502 -15.60400 -15.59980 -11.36992
 Alpha  occ. eigenvalues --  -11.36279 -11.29174 -11.27081 -11.25243 -11.23060
 Alpha  occ. eigenvalues --   -1.39204  -1.38589  -1.24722  -1.23299  -1.05626
 Alpha  occ. eigenvalues --   -0.99492  -0.96390  -0.87635  -0.80261  -0.79223
 Alpha  occ. eigenvalues --   -0.73129  -0.67763  -0.65775  -0.64991  -0.62386
 Alpha  occ. eigenvalues --   -0.61979  -0.60339  -0.58917  -0.57730  -0.56436
 Alpha  occ. eigenvalues --   -0.54941  -0.53488  -0.52586  -0.51683  -0.50795
 Alpha  occ. eigenvalues --   -0.43738  -0.43012  -0.39885  -0.39215
 Alpha virt. eigenvalues --    0.02931   0.03683   0.04337   0.04881   0.05691
 Alpha virt. eigenvalues --    0.05756   0.06194   0.06985   0.07385   0.07863
 Alpha virt. eigenvalues --    0.08984   0.09295   0.11348   0.12090   0.12145

 Mulliken atomic charges:
              1
     1  H    0.038722
     2  C    0.375257
     3  H   -0.132058
     4  H    0.050468
     5  C    0.616813
     6  O   -0.857351
     7  N   -0.290415
     8  H   -0.113205
     9  C   -0.360160
    10  H   -0.238653
    11  C    0.786705
    12  H   -0.004406
    13  H   -0.016381
    14  H   -0.027478
    15  C    1.234747
    16  O   -0.844108
    17  N   -0.493553
    18  H   -0.101397
    19  C    0.721561
    20  H   -0.145859
    21  H   -0.092778
    22  H   -0.106471
 Sum of Mulliken atomic charges =   0.00000

 Dipole moment (field-independent basis, Debye):
    X=             -0.3334    Y=             -1.4881    Z=              1.0148  Tot=              1.8318
 Quadrupole moment (field-independent basis, Debye-Ang):
   XX=            -62.9214   YY=            -59.2585   ZZ=            -64.1741
   XY=             -7.5270   XZ=            -14.2794   YZ=             -3.4507

 Normal termination of Gaussian 09 at Mon Feb 13 07:21:29 2017.
