 Gaussian 09, Revision A.02,
 Gaussian 09:  EM64L-G09RevA.02 11-Jun-2009

 -------------------
 #SP MP2/aug-cc-pVDZ
 -------------------

 -------------------------------
 Single Point calculation at MP2
 -------------------------------
 Symbolic Z-matrix:
 Charge =  0 Multiplicity = 1

                         Standard orientation:
 ---------------------------------------------------------------------
 Center     Atomic      Atomic             Coordinates (Angstroms)
 Number     Number       Type             X           Y           Z
 ---------------------------------------------------------------------
      1          1           0        3.568904   -1.848400   -0.309412
      2          6           0        3.129902   -0.972101   -0.792712
      3          1           0        2.722202   -1.261202   -1.766712
      4          1           0        3.935999   -0.247299   -0.953012
      5          6           0        2.096900   -0.362004    0.142988
      6          8           0        2.294999   -0.243804    1.344388
      7          7           0        0.923699    0.036092   -0.457812
      8          1           0        0.886499    0.038192   -1.469412
      9          6           0       -0.068804    0.853190    0.241688
     10          1           0        0.169497    0.731190    1.304288
     11          6           0        0.025992    2.332290   -0.136612
     12          1           0       -0.151108    2.477689   -1.208112
     13          1           0       -0.731110    2.908688    0.399688
     14          1           0        1.018891    2.716993    0.115488
     15          6           0       -1.495602    0.306585    0.011688
     16          8           0       -2.444604    1.047683   -0.216012
     17          7           0       -1.606298   -1.046215    0.138888
     18          1           0       -0.757597   -1.574312    0.285188
     19          6           0       -2.869096   -1.749018    0.011788
     20          1           0       -3.644598   -0.999421   -0.152212
     21          1           0       -2.857894   -2.444018   -0.837012
     22          1           0       -3.100395   -2.311919    0.923688
 ---------------------------------------------------------------------

 SCF Done:  E(RHF) =  -492.924562878     A.U. after   14 cycles
 E2 =    -0.1601022131D+01 EUMP2 =    -0.49452558500895D+03

 The electronic state is 1-A.
 Alpha  occ. eigenvalues --  -20.54163 -20.53279 -15.60876 -15.59433 -11.37508
 Alpha  occ. eigenvalues --  -11.36057 -11.29224 -11.26897 -11.25793 -11.22942
 Alpha  occ. eigenvalues --   -1.39650  -1.38533  -1.25359  -1.22749  -1.05677
 Alpha  occ. eigenvalues --   -0.99786  -0.96296  -0.87497  -0.80618  -0.78808
 Alpha  occ. eigenvalues --   -0.73297  -0.68223  -0.66167  -0.64765  -0.62440
 Alpha  occ. eigenvalues --   -0.61924  -0.60222  -0.59339  -0.58155  -0.55811
 Alpha  occ. eigenvalues --   -0.54786  -0.53540  -0.52721  -0.52136  -0.50627
 Alpha  occ. eigenvalues --   -0.43919  -0.43539  -0.40242  -0.38822
 Alpha virt. eigenvalues --    0.02422   0.03751   0.04376   0.04535   0.05604
 Alpha virt. eigenvalues --    0.06044   0.06281   0.06488   0.07245   0.08181
 Alpha virt. eigenvalues --    0.08484   0.09384   0.11360   0.12131   0.12560

 Mulliken atomic charges:
              1
     1  H    0.025762
     2  C    0.348425
     3  H   -0.142541
     4  H    0.057707
     5  C    0.583334
     6  O   -0.850278
     7  N   -0.307686
     8  H   -0.131014
     9  C   -0.343606
    10  H   -0.080823
    11  C    0.860705
    12  H   -0.051835
    13  H   -0.025004
    14  H   -0.067510
    15  C    1.161845
    16  O   -0.802706
    17  N   -0.551191
    18  H   -0.070631
    19  C    0.729299
    20  H   -0.155612
    21  H   -0.089862
    22  H   -0.096778
 Sum of Mulliken atomic charges =   0.00000

 Dipole moment (field-independent basis, Debye):
    X=              1.6470    Y=             -2.6559    Z=             -3.0805  Tot=              4.3882
 Quadrupole moment (field-independent basis, Debye-Ang):
   XX=            -68.1135   YY=            -58.3410   ZZ=            -63.1582
   XY=              6.6104   XZ=            -10.4857   YZ=              1.7204

 Normal termination of Gaussian 09 at Mon Feb 13 07:29:46 2017.
