 Gaussian 09, Revision A.02,
 Gaussian 09:  EM64L-G09RevA.02 11-Jun-2009

 -------------------
 #SP MP2/aug-cc-pVDZ
 -------------------

 -------------------------------
 Single Point calculation at MP2
 -------------------------------
 Symbolic Z-matrix:
 Charge =  0 Multiplicity = 1

                         Standard orientation:
 ---------------------------------------------------------------------
 Center     Atomic      Atomic             Coordinates (Angstroms)
 Number     Number       Type             X           Y           Z
 ---------------------------------------------------------------------
      1          1           0        4.132197   -0.676111   -0.962203
      2          6           0        3.169696   -1.150410   -0.755303
      3          1           0        3.357695   -2.010010   -0.102303
      4          1           0        2.736296   -1.512610   -1.693103
      5          6           0        2.282297   -0.159209   -0.017803
      6          8           0        2.700298    0.541690    0.894497
      7          7           0        0.980397   -0.100608   -0.448803
      8          1           0        0.661297   -0.794607   -1.110303
      9          6           0       -0.027902    0.646394    0.305497
     10          1           0        0.354098    0.721893    1.327697
     11          6           0       -0.202800    2.065094   -0.252503
     12          1           0       -0.478800    2.058894   -1.314603
     13          1           0       -0.957300    2.626395    0.311297
     14          1           0        0.749200    2.595893   -0.165603
     15          6           0       -1.295603   -0.228205    0.400797
     16          8           0       -1.312904   -1.224205    1.112897
     17          7           0       -2.339702    0.131896   -0.404103
     18          1           0       -2.287301    1.007596   -0.902603
     19          6           0       -3.605503   -0.582202   -0.398003
     20          1           0       -3.451704   -1.516202    0.143697
     21          1           0       -4.392803   -0.006201    0.104497
     22          1           0       -3.928003   -0.802602   -1.421403
 ---------------------------------------------------------------------

 SCF Done:  E(RHF) =  -492.918639291     A.U. after   14 cycles
 E2 =    -0.1601888389D+01 EUMP2 =    -0.49452052768092D+03

 The electronic state is 1-A.
 Alpha  occ. eigenvalues --  -20.53524 -20.52983 -15.60551 -15.59919 -11.36644
 Alpha  occ. eigenvalues --  -11.36304 -11.29267 -11.27489 -11.24715 -11.24312
 Alpha  occ. eigenvalues --   -1.39186  -1.38280  -1.24462  -1.23475  -1.05755
 Alpha  occ. eigenvalues --   -0.99397  -0.96041  -0.89062  -0.79719  -0.79475
 Alpha  occ. eigenvalues --   -0.73168  -0.67395  -0.65988  -0.65054  -0.62674
 Alpha  occ. eigenvalues --   -0.61983  -0.59274  -0.58760  -0.57408  -0.56496
 Alpha  occ. eigenvalues --   -0.55593  -0.54690  -0.53596  -0.52297  -0.49576
 Alpha  occ. eigenvalues --   -0.43404  -0.42284  -0.40222  -0.39343
 Alpha virt. eigenvalues --    0.02474   0.03611   0.04194   0.04610   0.05777
 Alpha virt. eigenvalues --    0.05793   0.06171   0.06807   0.07628   0.07852
 Alpha virt. eigenvalues --    0.08320   0.09401   0.11343   0.11837   0.12417

 Mulliken atomic charges:
              1
     1  H    0.022805
     2  C    0.365775
     3  H    0.071227
     4  H   -0.132459
     5  C    0.525830
     6  O   -0.838060
     7  N   -0.420168
     8  H   -0.076336
     9  C   -0.037453
    10  H   -0.037824
    11  C    0.802983
    12  H    0.023432
    13  H   -0.042303
    14  H   -0.169083
    15  C    1.068370
    16  O   -0.877042
    17  N   -0.544237
    18  H   -0.119698
    19  C    0.764345
    20  H   -0.143933
    21  H   -0.082545
    22  H   -0.123625
 Sum of Mulliken atomic charges =   0.00000

 Dipole moment (field-independent basis, Debye):
    X=             -2.7265    Y=              0.8553    Z=             -4.8863  Tot=              5.6605
 Quadrupole moment (field-independent basis, Debye-Ang):
   XX=            -58.7099   YY=            -61.3488   ZZ=            -64.2044
   XY=             -9.7786   XZ=             -2.8463   YZ=              3.1693

 Normal termination of Gaussian 09 at Mon Feb 13 06:59:11 2017.
