 Gaussian 09, Revision A.02,
 Gaussian 09:  EM64L-G09RevA.02 11-Jun-2009

 -------------------
 #SP MP2/aug-cc-pVDZ
 -------------------

 -------------------------------
 Single Point calculation at MP2
 -------------------------------
 Symbolic Z-matrix:
 Charge =  0 Multiplicity = 1

                         Standard orientation:
 ---------------------------------------------------------------------
 Center     Atomic      Atomic             Coordinates (Angstroms)
 Number     Number       Type             X           Y           Z
 ---------------------------------------------------------------------
      1          1           0        3.649712   -1.805280    0.022010
      2          6           0        3.148710   -1.075181   -0.617990
      3          1           0        2.720311   -1.586683   -1.485890
      4          1           0        3.909708   -0.369079   -0.969890
      5          6           0        2.119707   -0.322185    0.211910
      6          8           0        2.342206    0.034216    1.358910
      7          7           0        0.913907   -0.086088   -0.421690
      8          1           0        0.893407   -0.218788   -1.426090
      9          6           0       -0.061596    0.858409    0.125210
     10          1           0        0.219103    0.973010    1.178010
     11          6           0        0.002300    2.227609   -0.560790
     12          1           0       -0.180300    2.137408   -1.638990
     13          1           0       -0.766802    2.881907   -0.145690
     14          1           0        0.986798    2.680612   -0.409190
     15          6           0       -1.502895    0.308704    0.109410
     16          8           0       -2.459297    1.057701    0.273810
     17          7           0       -1.618190   -1.033796   -0.092990
     18          1           0       -0.760889   -1.568693   -0.113290
     19          6           0       -2.893188   -1.722900   -0.014590
     20          1           0       -3.678691   -0.966802   -0.055490
     21          1           0       -3.009586   -2.414800   -0.855790
     22          1           0       -2.994287   -2.285700    0.922310
 ---------------------------------------------------------------------

 SCF Done:  E(RHF) =  -492.924887644     A.U. after   14 cycles
 E2 =    -0.1601435882D+01 EUMP2 =    -0.49452632352617D+03

 The electronic state is 1-A.
 Alpha  occ. eigenvalues --  -20.54404 -20.52901 -15.60925 -15.59575 -11.37625
 Alpha  occ. eigenvalues --  -11.35972 -11.29183 -11.26910 -11.25911 -11.23302
 Alpha  occ. eigenvalues --   -1.39841  -1.38334  -1.25525  -1.22699  -1.05723
 Alpha  occ. eigenvalues --   -0.99927  -0.96271  -0.87691  -0.80664  -0.78671
 Alpha  occ. eigenvalues --   -0.73379  -0.68387  -0.66420  -0.63965  -0.62491
 Alpha  occ. eigenvalues --   -0.62323  -0.59977  -0.59341  -0.58372  -0.56242
 Alpha  occ. eigenvalues --   -0.54896  -0.54139  -0.52613  -0.52201  -0.50074
 Alpha  occ. eigenvalues --   -0.43970  -0.43690  -0.40027  -0.39195
 Alpha virt. eigenvalues --    0.02242   0.03696   0.04182   0.04637   0.05583
 Alpha virt. eigenvalues --    0.06108   0.06276   0.06537   0.07275   0.08226
 Alpha virt. eigenvalues --    0.08302   0.09294   0.11430   0.12238   0.12688

 Mulliken atomic charges:
              1
     1  H    0.021183
     2  C    0.344801
     3  H   -0.133825
     4  H    0.051942
     5  C    0.626834
     6  O   -0.843447
     7  N   -0.297815
     8  H   -0.099428
     9  C   -0.439615
    10  H   -0.006251
    11  C    0.860531
    12  H   -0.051795
    13  H   -0.025612
    14  H   -0.074128
    15  C    1.120223
    16  O   -0.847896
    17  N   -0.530366
    18  H   -0.068474
    19  C    0.733479
    20  H   -0.142612
    21  H   -0.120607
    22  H   -0.077121
 Sum of Mulliken atomic charges =   0.00000

 Dipole moment (field-independent basis, Debye):
    X=              1.7847    Y=             -3.3017    Z=             -3.9965  Tot=              5.4826
 Quadrupole moment (field-independent basis, Debye-Ang):
   XX=            -68.3157   YY=            -58.0285   ZZ=            -63.6291
   XY=              5.1562   XZ=             -7.5215   YZ=             -0.2730

 Normal termination of Gaussian 09 at Mon Feb 13 06:12:57 2017.
