 Gaussian 09, Revision A.02,
 Gaussian 09:  EM64L-G09RevA.02 11-Jun-2009

 -------------------
 #SP MP2/aug-cc-pVDZ
 -------------------

 -------------------------------
 Single Point calculation at MP2
 -------------------------------
 Symbolic Z-matrix:
 Charge =  0 Multiplicity = 1

                         Standard orientation:
 ---------------------------------------------------------------------
 Center     Atomic      Atomic             Coordinates (Angstroms)
 Number     Number       Type             X           Y           Z
 ---------------------------------------------------------------------
      1          1           0        4.288200   -0.701950   -0.393804
      2          6           0        3.283906   -1.130563   -0.371204
      3          1           0        3.289417   -1.959863    0.346096
      4          1           0        3.032911   -1.528866   -1.359104
      5          6           0        2.304392   -0.068976    0.103596
      6          8           0        2.599381    0.770328    0.945196
      7          7           0        1.063792   -0.108392   -0.494004
      8          1           0        0.790904   -1.004696   -0.884704
      9          6           0       -0.043917    0.611293    0.129396
     10          1           0        0.224581    0.772497    1.183396
     11          6           0       -0.238335    1.989390   -0.519404
     12          1           0       -0.560634    1.903486   -1.562604
     13          1           0       -0.960744    2.606781    0.029996
     14          1           0        0.717258    2.519303   -0.493304
     15          6           0       -1.264305   -0.332223    0.115096
     16          8           0       -1.112788   -1.551621    0.137296
     17          7           0       -2.486712    0.259661    0.039696
     18          1           0       -2.539426    1.266860    0.042196
     19          6           0       -3.725802   -0.498256    0.092996
     20          1           0       -3.472088   -1.552252   -0.024404
     21          1           0       -4.242304   -0.361063    1.051096
     22          1           0       -4.396006   -0.192765   -0.717504
 ---------------------------------------------------------------------

 SCF Done:  E(RHF) =  -492.923761862     A.U. after   14 cycles
 E2 =    -0.1601382793D+01 EUMP2 =    -0.49452514465466D+03

 The electronic state is 1-A.
 Alpha  occ. eigenvalues --  -20.54025 -20.53090 -15.60652 -15.58776 -11.37070
 Alpha  occ. eigenvalues --  -11.35890 -11.29279 -11.27587 -11.24240 -11.24180
 Alpha  occ. eigenvalues --   -1.39665  -1.38193  -1.24383  -1.23306  -1.05523
 Alpha  occ. eigenvalues --   -0.99125  -0.96075  -0.88775  -0.80148  -0.77999
 Alpha  occ. eigenvalues --   -0.73157  -0.67309  -0.65677  -0.65464  -0.62731
 Alpha  occ. eigenvalues --   -0.61775  -0.59383  -0.58987  -0.56742  -0.56364
 Alpha  occ. eigenvalues --   -0.55364  -0.54394  -0.53658  -0.52506  -0.49064
 Alpha  occ. eigenvalues --   -0.43286  -0.42371  -0.40345  -0.39959
 Alpha virt. eigenvalues --    0.02788   0.03954   0.04395   0.04453   0.05839
 Alpha virt. eigenvalues --    0.06020   0.06239   0.06872   0.07341   0.07812
 Alpha virt. eigenvalues --    0.09078   0.09963   0.11332   0.12094   0.12661

 Mulliken atomic charges:
              1
     1  H   -0.011887
     2  C    0.359123
     3  H    0.075111
     4  H   -0.073952
     5  C    0.500424
     6  O   -0.827385
     7  N   -0.455481
     8  H   -0.003451
     9  C   -0.073450
    10  H   -0.001374
    11  C    0.771863
    12  H   -0.033895
    13  H    0.005179
    14  H   -0.132381
    15  C    1.056056
    16  O   -0.888821
    17  N   -0.516223
    18  H   -0.124500
    19  C    0.725776
    20  H   -0.148051
    21  H   -0.075580
    22  H   -0.127100
 Sum of Mulliken atomic charges =   0.00000

 Dipole moment (field-independent basis, Debye):
    X=             -3.1188    Y=              0.9155    Z=             -2.0010  Tot=              3.8169
 Quadrupole moment (field-independent basis, Debye-Ang):
   XX=            -54.9384   YY=            -63.5160   ZZ=            -63.3423
   XY=            -11.6843   XZ=             -6.1452   YZ=             -0.2351

 Normal termination of Gaussian 09 at Mon Feb 13 05:58:39 2017.
