 Gaussian 09, Revision A.02,
 Gaussian 09:  EM64L-G09RevA.02 11-Jun-2009

 -------------------
 #SP MP2/aug-cc-pVDZ
 -------------------

 -------------------------------
 Single Point calculation at MP2
 -------------------------------
 Symbolic Z-matrix:
 Charge =  0 Multiplicity = 1

                         Standard orientation:
 ---------------------------------------------------------------------
 Center     Atomic      Atomic             Coordinates (Angstroms)
 Number     Number       Type             X           Y           Z
 ---------------------------------------------------------------------
      1          1           0        4.293220   -0.664297   -0.337206
      2          6           0        3.306420   -1.125998   -0.252306
      3          1           0        3.364820   -1.890698    0.530894
      4          1           0        3.049320   -1.612898   -1.197906
      5          6           0        2.300219   -0.064999    0.165094
      6          8           0        2.559419    0.791002    1.002794
      7          7           0        1.086619   -0.123099   -0.478806
      8          1           0        0.820820   -1.018099   -0.879506
      9          6           0       -0.045881    0.615500    0.062394
     10          1           0        0.180119    0.840600    1.114294
     11          6           0       -0.237982    1.949700   -0.678006
     12          1           0       -0.508582    1.787200   -1.726306
     13          1           0       -1.003782    2.581499   -0.211506
     14          1           0        0.704118    2.503100   -0.641406
     15          6           0       -1.265781   -0.328901    0.028494
     16          8           0       -1.131480   -1.534701   -0.168806
     17          7           0       -2.479781    0.262298    0.192694
     18          1           0       -2.512682    1.250798    0.392494
     19          6           0       -3.718480   -0.496002    0.255794
     20          1           0       -3.498380   -1.513602   -0.068106
     21          1           0       -4.121480   -0.526903    1.275594
     22          1           0       -4.469981   -0.057303   -0.409206
 ---------------------------------------------------------------------

 SCF Done:  E(RHF) =  -492.925507969     A.U. after   14 cycles
 E2 =    -0.1600910745D+01 EUMP2 =    -0.49452641871324D+03

 The electronic state is 1-A.
 Alpha  occ. eigenvalues --  -20.54298 -20.52900 -15.60632 -15.58585 -11.37154
 Alpha  occ. eigenvalues --  -11.35816 -11.29276 -11.27625 -11.24181 -11.24166
 Alpha  occ. eigenvalues --   -1.39847  -1.38050  -1.24426  -1.23274  -1.05484
 Alpha  occ. eigenvalues --   -0.99059  -0.96121  -0.88623  -0.80326  -0.77938
 Alpha  occ. eigenvalues --   -0.73158  -0.67369  -0.65824  -0.65080  -0.62915
 Alpha  occ. eigenvalues --   -0.61728  -0.59590  -0.58937  -0.56763  -0.56442
 Alpha  occ. eigenvalues --   -0.55452  -0.54299  -0.53441  -0.52378  -0.49063
 Alpha  occ. eigenvalues --   -0.43531  -0.42247  -0.40647  -0.39565
 Alpha virt. eigenvalues --    0.02797   0.04006   0.04367   0.04445   0.05793
 Alpha virt. eigenvalues --    0.06044   0.06285   0.06842   0.07401   0.07836
 Alpha virt. eigenvalues --    0.09049   0.10219   0.11395   0.11701   0.12932

 Mulliken atomic charges:
              1
     1  H    0.004731
     2  C    0.383211
     3  H    0.070779
     4  H   -0.098667
     5  C    0.495393
     6  O   -0.837329
     7  N   -0.435894
     8  H   -0.015140
     9  C   -0.019929
    10  H   -0.008857
    11  C    0.745457
    12  H   -0.026094
    13  H   -0.077556
    14  H   -0.086795
    15  C    1.042552
    16  O   -0.869470
    17  N   -0.509206
    18  H   -0.112409
    19  C    0.708295
    20  H   -0.146883
    21  H   -0.084192
    22  H   -0.121998
 Sum of Mulliken atomic charges =   0.00000

 Dipole moment (field-independent basis, Debye):
    X=             -3.0759    Y=              0.8130    Z=             -1.3032  Tot=              3.4381
 Quadrupole moment (field-independent basis, Debye-Ang):
   XX=            -54.8411   YY=            -63.5294   ZZ=            -63.4511
   XY=            -11.7157   XZ=             -7.6043   YZ=             -1.4037

 Normal termination of Gaussian 09 at Mon Feb 13 06:50:57 2017.
