 Gaussian 09, Revision A.02,
 Gaussian 09:  EM64L-G09RevA.02 11-Jun-2009

 -------------------
 #SP MP2/aug-cc-pVDZ
 -------------------

 -------------------------------
 Single Point calculation at MP2
 -------------------------------
 Symbolic Z-matrix:
 Charge =  0 Multiplicity = 1

                         Standard orientation:
 ---------------------------------------------------------------------
 Center     Atomic      Atomic             Coordinates (Angstroms)
 Number     Number       Type             X           Y           Z
 ---------------------------------------------------------------------
      1          1           0        3.972600   -1.325503   -0.471505
      2          6           0        2.982999   -1.552201   -0.066705
      3          1           0        3.128698   -2.015801    0.915395
      4          1           0        2.481797   -2.269699   -0.724305
      5          6           0        2.217103   -0.248999    0.110395
      6          8           0        2.722406    0.740800    0.620295
      7          7           0        0.923103   -0.257395   -0.363105
      8          1           0        0.512201   -1.166394   -0.531805
      9          6           0       -0.002694    0.820608    0.014295
     10          1           0        0.399807    1.299407    0.909695
     11          6           0       -0.122091    1.880908   -1.093505
     12          1           0       -0.490292    1.447809   -2.031305
     13          1           0       -0.805589    2.679610   -0.785805
     14          1           0        0.863110    2.316805   -1.281605
     15          6           0       -1.374995    0.260912    0.414695
     16          8           0       -1.960294    0.636313    1.418495
     17          7           0       -1.883598   -0.710387   -0.420305
     18          1           0       -1.525098   -0.741788   -1.366805
     19          6           0       -3.231600   -1.224883   -0.213805
     20          1           0       -3.386900   -1.362883    0.856995
     21          1           0       -4.001798   -0.535581   -0.583905
     22          1           0       -3.334302   -2.186483   -0.723705
 ---------------------------------------------------------------------

 SCF Done:  E(RHF) =  -492.918659074     A.U. after   14 cycles
 E2 =    -0.1601106358D+01 EUMP2 =    -0.49451976543271D+03

 The electronic state is 1-A.
 Alpha  occ. eigenvalues --  -20.54430 -20.53637 -15.60664 -15.60315 -11.36856
 Alpha  occ. eigenvalues --  -11.36817 -11.29175 -11.27714 -11.25251 -11.24015
 Alpha  occ. eigenvalues --   -1.39762  -1.38937  -1.25366  -1.23041  -1.05861
 Alpha  occ. eigenvalues --   -0.99657  -0.96353  -0.88439  -0.80082  -0.79108
 Alpha  occ. eigenvalues --   -0.73617  -0.67947  -0.66232  -0.63978  -0.63558
 Alpha  occ. eigenvalues --   -0.62241  -0.59798  -0.59521  -0.57754  -0.57010
 Alpha  occ. eigenvalues --   -0.55861  -0.54544  -0.52890  -0.52171  -0.49571
 Alpha  occ. eigenvalues --   -0.44539  -0.42850  -0.40979  -0.39677
 Alpha virt. eigenvalues --    0.02139   0.03718   0.04135   0.04707   0.05618
 Alpha virt. eigenvalues --    0.05920   0.06342   0.06654   0.07416   0.08018
 Alpha virt. eigenvalues --    0.08405   0.09464   0.10936   0.11952   0.12350

 Mulliken atomic charges:
              1
     1  H    0.014747
     2  C    0.387771
     3  H    0.060224
     4  H   -0.161274
     5  C    0.520482
     6  O   -0.836986
     7  N   -0.218052
     8  H   -0.021204
     9  C   -0.187626
    10  H   -0.091730
    11  C    0.779316
    12  H   -0.103284
    13  H   -0.030900
    14  H   -0.078820
    15  C    1.001407
    16  O   -0.823629
    17  N   -0.566598
    18  H   -0.085883
    19  C    0.782075
    20  H   -0.101086
    21  H   -0.063805
    22  H   -0.175143
 Sum of Mulliken atomic charges =   0.00000

 Dipole moment (field-independent basis, Debye):
    X=             -1.3096    Y=             -4.0738    Z=             -4.4999  Tot=              6.2097
 Quadrupole moment (field-independent basis, Debye-Ang):
   XX=            -66.4702   YY=            -58.1993   ZZ=            -64.8430
   XY=             -3.4606   XZ=              3.7028   YZ=             -2.5417

 Normal termination of Gaussian 09 at Mon Feb 13 07:06:38 2017.
