 Gaussian 09, Revision A.02,
 Gaussian 09:  EM64L-G09RevA.02 11-Jun-2009

 -------------------
 #SP MP2/aug-cc-pVDZ
 -------------------

 -------------------------------
 Single Point calculation at MP2
 -------------------------------
 Symbolic Z-matrix:
 Charge =  0 Multiplicity = 1

                         Standard orientation:
 ---------------------------------------------------------------------
 Center     Atomic      Atomic             Coordinates (Angstroms)
 Number     Number       Type             X           Y           Z
 ---------------------------------------------------------------------
      1          1           0        4.225594   -0.606684   -0.444308
      2          6           0        3.322696   -1.126787   -0.109208
      3          1           0        3.591298   -1.704086    0.780892
      4          1           0        2.995198   -1.812388   -0.896508
      5          6           0        2.275393   -0.093090    0.275592
      6          8           0        2.481190    0.748910    1.143692
      7          7           0        1.107093   -0.147894   -0.435508
      8          1           0        0.877395   -0.977695   -0.972008
      9          6           0       -0.047510    0.638002   -0.042108
     10          1           0        0.118789    0.963103    0.991792
     11          6           0       -0.219114    1.884902   -0.930708
     12          1           0       -0.371813    1.594701   -1.975608
     13          1           0       -1.074015    2.492799   -0.612808
     14          1           0        0.684285    2.497705   -0.865708
     15          6           0       -1.280707   -0.279601   -0.116808
     16          8           0       -1.256204   -1.336801   -0.742808
     17          7           0       -2.388808    0.191895    0.515792
     18          1           0       -2.308111    1.043695    1.052892
     19          6           0       -3.656906   -0.518309    0.525492
     20          1           0       -3.548103   -1.389608   -0.121108
     21          1           0       -3.917505   -0.854210    1.536192
     22          1           0       -4.464008    0.117089    0.143692
 ---------------------------------------------------------------------

 SCF Done:  E(RHF) =  -492.928279417     A.U. after   14 cycles
 E2 =    -0.1600100429D+01 EUMP2 =    -0.49452837984657D+03

 The electronic state is 1-A.
 Alpha  occ. eigenvalues --  -20.54333 -20.52566 -15.60662 -15.58765 -11.37053
 Alpha  occ. eigenvalues --  -11.35873 -11.29222 -11.27655 -11.24216 -11.24017
 Alpha  occ. eigenvalues --   -1.39799  -1.37850  -1.24449  -1.23407  -1.05548
 Alpha  occ. eigenvalues --   -0.99060  -0.96316  -0.88275  -0.80499  -0.78396
 Alpha  occ. eigenvalues --   -0.73151  -0.67509  -0.65886  -0.64200  -0.63319
 Alpha  occ. eigenvalues --   -0.61733  -0.60066  -0.58778  -0.57079  -0.56457
 Alpha  occ. eigenvalues --   -0.55589  -0.54161  -0.52956  -0.52308  -0.49308
 Alpha  occ. eigenvalues --   -0.43737  -0.42089  -0.40672  -0.39007
 Alpha virt. eigenvalues --    0.02838   0.03967   0.04327   0.04490   0.05660
 Alpha virt. eigenvalues --    0.06116   0.06412   0.07085   0.07249   0.07946
 Alpha virt. eigenvalues --    0.09167   0.09443   0.10841   0.12061   0.12977

 Mulliken atomic charges:
              1
     1  H    0.042215
     2  C    0.389040
     3  H    0.045192
     4  H   -0.148725
     5  C    0.517368
     6  O   -0.860403
     7  N   -0.331214
     8  H   -0.048460
     9  C   -0.226080
    10  H   -0.074064
    11  C    0.797656
    12  H   -0.035830
    13  H   -0.072400
    14  H   -0.072848
    15  C    1.213347
    16  O   -0.883333
    17  N   -0.498122
    18  H   -0.113673
    19  C    0.698650
    20  H   -0.145203
    21  H   -0.086102
    22  H   -0.107010
 Sum of Mulliken atomic charges =   0.00000

 Dipole moment (field-independent basis, Debye):
    X=             -2.6775    Y=              0.5038    Z=             -0.3511  Tot=              2.7470
 Quadrupole moment (field-independent basis, Debye-Ang):
   XX=            -55.4628   YY=            -62.7227   ZZ=            -64.1091
   XY=            -10.9625   XZ=            -10.7248   YZ=             -3.0813

 Normal termination of Gaussian 09 at Mon Feb 13 05:49:05 2017.
