 Gaussian 09, Revision A.02,
 Gaussian 09:  EM64L-G09RevA.02 11-Jun-2009

 -------------------
 #SP MP2/aug-cc-pVDZ
 -------------------

 -------------------------------
 Single Point calculation at MP2
 -------------------------------
 Symbolic Z-matrix:
 Charge =  0 Multiplicity = 1

                         Standard orientation:
 ---------------------------------------------------------------------
 Center     Atomic      Atomic             Coordinates (Angstroms)
 Number     Number       Type             X           Y           Z
 ---------------------------------------------------------------------
      1          1           0       -3.770992   -1.752895   -0.002599
      2          6           0       -2.709692   -1.773695    0.255301
      3          1           0       -2.214292   -2.563395   -0.319599
      4          1           0       -2.631292   -2.019195    1.320601
      5          6           0       -2.130192   -0.378995    0.025801
      6          8           0       -2.766492    0.624605    0.307601
      7          7           0       -0.865292   -0.388695   -0.515399
      8          1           0       -0.449392   -1.303095   -0.630499
      9          6           0        0.090408    0.722105   -0.679899
     10          1           0        0.356008    0.761405   -1.749199
     11          6           0       -0.411693    2.100405   -0.258899
     12          1           0       -0.616393    2.131505    0.810901
     13          1           0        0.376907    2.828005   -0.479899
     14          1           0       -1.318193    2.373505   -0.798099
     15          6           0        1.363908    0.344405    0.118201
     16          8           0        1.608908    0.786305    1.229601
     17          7           0        2.138008   -0.611895   -0.494799
     18          1           0        2.006108   -0.758595   -1.486799
     19          6           0        3.383808   -1.078894    0.095101
     20          1           0        3.316708   -0.928194    1.173101
     21          1           0        3.525308   -2.142894   -0.117999
     22          1           0        4.251908   -0.521294   -0.279799
 ---------------------------------------------------------------------

 SCF Done:  E(RHF) =  -492.910763765     A.U. after   14 cycles
 E2 =    -0.1601757821D+01 EUMP2 =    -0.49451252158646D+03

 The electronic state is 1-A.
 Alpha  occ. eigenvalues --  -20.54156 -20.52731 -15.60710 -15.60265 -11.36645
 Alpha  occ. eigenvalues --  -11.36557 -11.30130 -11.27676 -11.24725 -11.21925
 Alpha  occ. eigenvalues --   -1.39534  -1.38171  -1.24969  -1.23217  -1.05557
 Alpha  occ. eigenvalues --   -0.98838  -0.96595  -0.87922  -0.80074  -0.77228
 Alpha  occ. eigenvalues --   -0.72773  -0.69266  -0.66383  -0.64963  -0.62852
 Alpha  occ. eigenvalues --   -0.61872  -0.60112  -0.58936  -0.56457  -0.55649
 Alpha  occ. eigenvalues --   -0.53796  -0.52931  -0.52788  -0.51541  -0.50827
 Alpha  occ. eigenvalues --   -0.44894  -0.41750  -0.40328  -0.38862
 Alpha virt. eigenvalues --    0.02040   0.03584   0.03932   0.04624   0.05537
 Alpha virt. eigenvalues --    0.06070   0.06314   0.06723   0.07484   0.07856
 Alpha virt. eigenvalues --    0.08837   0.09475   0.10678   0.12137   0.12521

 Mulliken atomic charges:
              1
     1  H    0.003034
     2  C    0.362414
     3  H   -0.150127
     4  H    0.058268
     5  C    0.615043
     6  O   -0.807150
     7  N   -0.451457
     8  H   -0.038770
     9  C   -0.045571
    10  H   -0.234700
    11  C    0.690275
    12  H    0.051100
    13  H   -0.096015
    14  H    0.069774
    15  C    1.017454
    16  O   -0.795175
    17  N   -0.523252
    18  H   -0.103759
    19  C    0.733239
    20  H   -0.124714
    21  H   -0.150182
    22  H   -0.079728
 Sum of Mulliken atomic charges =   0.00000

 Dipole moment (field-independent basis, Debye):
    X=              2.7828    Y=             -4.2990    Z=             -4.0145  Tot=              6.5071
 Quadrupole moment (field-independent basis, Debye-Ang):
   XX=            -65.0111   YY=            -58.1334   ZZ=            -62.2327
   XY=              2.8165   XZ=             -4.4678   YZ=             -2.6931

 Normal termination of Gaussian 09 at Sun Feb 12 22:52:42 2017.
