 Gaussian 09, Revision A.02,
 Gaussian 09:  EM64L-G09RevA.02 11-Jun-2009

 -------------------
 #SP MP2/aug-cc-pVDZ
 -------------------

 -------------------------------
 Single Point calculation at MP2
 -------------------------------
 Symbolic Z-matrix:
 Charge =  0 Multiplicity = 1

                         Standard orientation:
 ---------------------------------------------------------------------
 Center     Atomic      Atomic             Coordinates (Angstroms)
 Number     Number       Type             X           Y           Z
 ---------------------------------------------------------------------
      1          1           0       -3.727390   -1.789364    0.099300
      2          6           0       -2.652890   -1.792768    0.294400
      3          1           0       -2.177392   -2.566669   -0.317500
      4          1           0       -2.506691   -2.047668    1.350500
      5          6           0       -2.112786   -0.385769    0.042900
      6          8           0       -2.765983    0.604233    0.333400
      7          7           0       -0.862886   -0.370873   -0.535200
      8          1           0       -0.419388   -1.276574   -0.608000
      9          6           0        0.077418    0.758724   -0.682200
     10          1           0        0.319918    0.833923   -1.755700
     11          6           0       -0.434378    2.118626   -0.215800
     12          1           0       -0.639678    2.120026    0.854400
     13          1           0        0.347624    2.858123   -0.414600
     14          1           0       -1.344577    2.397528   -0.745800
     15          6           0        1.388617    0.389520    0.059300
     16          8           0        1.799018    0.995019    1.035800
     17          7           0        2.007213   -0.743682   -0.422800
     18          1           0        1.815112   -1.002981   -1.382400
     19          6           0        3.277712   -1.188985    0.135300
     20          1           0        3.248812   -1.036785    1.214900
     21          1           0        3.416709   -2.252086   -0.079400
     22          1           0        4.130214   -0.625688   -0.266700
 ---------------------------------------------------------------------

 SCF Done:  E(RHF) =  -492.909718642     A.U. after   14 cycles
 E2 =    -0.1601661385D+01 EUMP2 =    -0.49451138002644D+03

 The electronic state is 1-A.
 Alpha  occ. eigenvalues --  -20.54560 -20.52883 -15.60669 -15.60268 -11.36784
 Alpha  occ. eigenvalues --  -11.36640 -11.30167 -11.27751 -11.24822 -11.21834
 Alpha  occ. eigenvalues --   -1.39832  -1.38307  -1.25159  -1.23057  -1.05537
 Alpha  occ. eigenvalues --   -0.98857  -0.96591  -0.87863  -0.80127  -0.77110
 Alpha  occ. eigenvalues --   -0.73017  -0.68974  -0.66448  -0.65238  -0.63112
 Alpha  occ. eigenvalues --   -0.61730  -0.60110  -0.59037  -0.56541  -0.55859
 Alpha  occ. eigenvalues --   -0.53468  -0.53038  -0.52751  -0.51709  -0.50764
 Alpha  occ. eigenvalues --   -0.45161  -0.41969  -0.40608  -0.38929
 Alpha virt. eigenvalues --    0.02007   0.03648   0.03924   0.04620   0.05540
 Alpha virt. eigenvalues --    0.05981   0.06433   0.06726   0.07376   0.07922
 Alpha virt. eigenvalues --    0.09044   0.09341   0.10458   0.12106   0.12598

 Mulliken atomic charges:
              1
     1  H   -0.008387
     2  C    0.345288
     3  H   -0.139096
     4  H    0.053536
     5  C    0.608181
     6  O   -0.801965
     7  N   -0.425227
     8  H   -0.030638
     9  C   -0.069158
    10  H   -0.179850
    11  C    0.740048
    12  H    0.033723
    13  H   -0.106933
    14  H    0.058742
    15  C    0.908940
    16  O   -0.774075
    17  N   -0.510095
    18  H   -0.101552
    19  C    0.748573
    20  H   -0.110224
    21  H   -0.173743
    22  H   -0.066086
 Sum of Mulliken atomic charges =   0.00000

 Dipole moment (field-independent basis, Debye):
    X=              2.4356    Y=             -4.6819    Z=             -3.5918  Tot=              6.3838
 Quadrupole moment (field-independent basis, Debye-Ang):
   XX=            -67.1731   YY=            -58.4909   ZZ=            -61.3248
   XY=              1.2781   XZ=             -4.1024   YZ=             -2.7900

 Normal termination of Gaussian 09 at Sun Feb 12 18:03:43 2017.
