 Gaussian 09, Revision A.02,
 Gaussian 09:  EM64L-G09RevA.02 11-Jun-2009

 -------------------
 #SP MP2/aug-cc-pVDZ
 -------------------

 -------------------------------
 Single Point calculation at MP2
 -------------------------------
 Symbolic Z-matrix:
 Charge =  0 Multiplicity = 1

                         Standard orientation:
 ---------------------------------------------------------------------
 Center     Atomic      Atomic             Coordinates (Angstroms)
 Number     Number       Type             X           Y           Z
 ---------------------------------------------------------------------
      1          1           0       -3.709197   -1.621504    0.542195
      2          6           0       -3.101099   -1.304501   -0.306805
      3          1           0       -3.764402   -0.828704   -1.039405
      4          1           0       -2.648294   -2.183898   -0.777805
      5          6           0       -2.074705   -0.286595    0.184295
      6          8           0       -2.289109    0.427204    1.149095
      7          7           0       -0.901805   -0.277588   -0.551605
      8          1           0       -0.945102   -0.842589   -1.390705
      9          6           0        0.112289    0.795517   -0.628205
     10          1           0        0.249088    1.000118   -1.699505
     11          6           0       -0.266318    2.120215    0.040295
     12          1           0       -0.412618    2.006714    1.113795
     13          1           0        0.552578    2.819920   -0.139605
     14          1           0       -1.188620    2.521510   -0.388105
     15          6           0        1.513492    0.331225   -0.154805
     16          8           0        2.419387    1.143030   -0.012105
     17          7           0        1.684499   -1.018474   -0.053405
     18          1           0        0.839102   -1.567679    0.027395
     19          6           0        2.935502   -1.590267    0.415595
     20          1           0        3.732798   -0.881663    0.186995
     21          1           0        2.928803   -1.767767    1.499095
     22          1           0        3.129808   -2.537466   -0.097405
 ---------------------------------------------------------------------

 SCF Done:  E(RHF) =  -492.914657935     A.U. after   14 cycles
 E2 =    -0.1602045428D+01 EUMP2 =    -0.49451670336258D+03

 The electronic state is 1-A.
 Alpha  occ. eigenvalues --  -20.54179 -20.53006 -15.61005 -15.59513 -11.37572
 Alpha  occ. eigenvalues --  -11.35851 -11.30090 -11.26848 -11.25779 -11.22099
 Alpha  occ. eigenvalues --   -1.39597  -1.38398  -1.25331  -1.22619  -1.05689
 Alpha  occ. eigenvalues --   -0.99612  -0.96001  -0.87962  -0.80164  -0.76788
 Alpha  occ. eigenvalues --   -0.72431  -0.70412  -0.66705  -0.63571  -0.62449
 Alpha  occ. eigenvalues --   -0.61934  -0.60630  -0.59451  -0.57220  -0.54933
 Alpha  occ. eigenvalues --   -0.54594  -0.53935  -0.52107  -0.51821  -0.50187
 Alpha  occ. eigenvalues --   -0.44809  -0.42814  -0.39594  -0.39349
 Alpha virt. eigenvalues --    0.02140   0.03604   0.04030   0.04731   0.05572
 Alpha virt. eigenvalues --    0.06088   0.06286   0.06502   0.07485   0.08170
 Alpha virt. eigenvalues --    0.08340   0.09172   0.10996   0.12453   0.12559

 Mulliken atomic charges:
              1
     1  H   -0.014461
     2  C    0.365105
     3  H    0.047745
     4  H   -0.084292
     5  C    0.708486
     6  O   -0.800158
     7  N   -0.387499
     8  H   -0.073196
     9  C   -0.329160
    10  H   -0.013281
    11  C    0.704862
    12  H    0.032906
    13  H   -0.077611
    14  H   -0.009738
    15  C    0.920846
    16  O   -0.838839
    17  N   -0.463797
    18  H   -0.062696
    19  C    0.730540
    20  H   -0.131281
    21  H   -0.076096
    22  H   -0.148383
 Sum of Mulliken atomic charges =   0.00000

 Dipole moment (field-independent basis, Debye):
    X=             -1.7447    Y=             -4.5413    Z=             -3.2639  Tot=              5.8584
 Quadrupole moment (field-independent basis, Debye-Ang):
   XX=            -67.7742   YY=            -58.8467   ZZ=            -61.6975
   XY=             -2.7733   XZ=              7.7142   YZ=             -1.7044

 Normal termination of Gaussian 09 at Sun Feb 12 16:12:30 2017.
