 Gaussian 09, Revision A.02,
 Gaussian 09:  EM64L-G09RevA.02 11-Jun-2009

 -------------------
 #SP MP2/aug-cc-pVDZ
 -------------------

 -------------------------------
 Single Point calculation at MP2
 -------------------------------
 Symbolic Z-matrix:
 Charge =  0 Multiplicity = 1

                         Standard orientation:
 ---------------------------------------------------------------------
 Center     Atomic      Atomic             Coordinates (Angstroms)
 Number     Number       Type             X           Y           Z
 ---------------------------------------------------------------------
      1          1           0       -3.624297   -1.706115    0.325503
      2          6           0       -3.109497   -1.186014   -0.484797
      3          1           0       -3.853198   -0.587015   -1.023597
      4          1           0       -2.692796   -1.921413   -1.181497
      5          6           0       -2.063098   -0.254713    0.122703
      6          8           0       -2.242799    0.292187    1.199003
      7          7           0       -0.927399   -0.110511   -0.648797
      8          1           0       -0.954198   -0.586711   -1.540897
      9          6           0        0.134100    0.906390   -0.554197
     10          1           0        0.226900    1.352690   -1.552397
     11          6           0       -0.127501    2.053390    0.431503
     12          1           0       -0.197101    1.699890    1.460103
     13          1           0        0.708598    2.751791    0.340603
     14          1           0       -1.058302    2.571888    0.189003
     15          6           0        1.530501    0.300292   -0.283097
     16          8           0        2.533400    0.983193   -0.458397
     17          7           0        1.548502   -0.992308    0.138503
     18          1           0        0.655603   -1.430409    0.317103
     19          6           0        2.773703   -1.671907    0.516303
     20          1           0        3.608003   -1.052006    0.184703
     21          1           0        2.842403   -1.806307    1.603103
     22          1           0        2.836604   -2.654207    0.035003
 ---------------------------------------------------------------------

 SCF Done:  E(RHF) =  -492.917169161     A.U. after   14 cycles
 E2 =    -0.1602141452D+01 EUMP2 =    -0.49451931061325D+03

 The electronic state is 1-A.
 Alpha  occ. eigenvalues --  -20.54057 -20.52755 -15.61045 -15.59627 -11.37640
 Alpha  occ. eigenvalues --  -11.35816 -11.29948 -11.26909 -11.25775 -11.22648
 Alpha  occ. eigenvalues --   -1.39532  -1.38214  -1.25400  -1.22739  -1.05855
 Alpha  occ. eigenvalues --   -0.99705  -0.96036  -0.88394  -0.80032  -0.77439
 Alpha  occ. eigenvalues --   -0.72725  -0.70170  -0.66823  -0.62999  -0.62567
 Alpha  occ. eigenvalues --   -0.62241  -0.60325  -0.59562  -0.57184  -0.55749
 Alpha  occ. eigenvalues --   -0.54900  -0.53910  -0.52292  -0.52168  -0.49995
 Alpha  occ. eigenvalues --   -0.44505  -0.42796  -0.39672  -0.39005
 Alpha virt. eigenvalues --    0.02300   0.03685   0.04190   0.04635   0.05566
 Alpha virt. eigenvalues --    0.06037   0.06344   0.06418   0.07487   0.08158
 Alpha virt. eigenvalues --    0.08417   0.09209   0.10805   0.12363   0.12492

 Mulliken atomic charges:
              1
     1  H   -0.000013
     2  C    0.387394
     3  H    0.052430
     4  H   -0.119263
     5  C    0.669668
     6  O   -0.819545
     7  N   -0.209419
     8  H   -0.087091
     9  C   -0.534854
    10  H   -0.051676
    11  C    0.711821
    12  H    0.027560
    13  H   -0.072985
    14  H   -0.020164
    15  C    1.165152
    16  O   -0.891148
    17  N   -0.552918
    18  H   -0.066436
    19  C    0.747713
    20  H   -0.137926
    21  H   -0.081348
    22  H   -0.116952
 Sum of Mulliken atomic charges =   0.00000

 Dipole moment (field-independent basis, Debye):
    X=             -2.1095    Y=             -3.8048    Z=             -2.5467  Tot=              5.0410
 Quadrupole moment (field-independent basis, Debye-Ang):
   XX=            -69.3603   YY=            -57.9171   ZZ=            -62.0902
   XY=             -3.5050   XZ=             10.8735   YZ=             -0.3355

 Normal termination of Gaussian 09 at Sun Feb 12 16:53:33 2017.
