 Gaussian 09, Revision A.02,
 Gaussian 09:  EM64L-G09RevA.02 11-Jun-2009

 -------------------
 #SP MP2/aug-cc-pVDZ
 -------------------

 -------------------------------
 Single Point calculation at MP2
 -------------------------------
 Symbolic Z-matrix:
 Charge =  0 Multiplicity = 1

                         Standard orientation:
 ---------------------------------------------------------------------
 Center     Atomic      Atomic             Coordinates (Angstroms)
 Number     Number       Type             X           Y           Z
 ---------------------------------------------------------------------
      1          1           0       -4.148887   -0.952330    0.247792
      2          6           0       -3.109685   -1.271121    0.359692
      3          1           0       -2.903978   -2.089120   -0.337608
      4          1           0       -2.987382   -1.645220    1.382592
      5          6           0       -2.207794   -0.054614    0.168092
      6          8           0       -2.498903    1.030584    0.656292
      7          7           0       -1.096592   -0.306305   -0.594408
      8          1           0       -0.887285   -1.280803   -0.781308
      9          6           0        0.097501    0.520605   -0.784408
     10          1           0        0.259100    0.604406   -1.871208
     11          6           0        0.011989    1.945204   -0.227608
     12          1           0       -0.035511    1.965604    0.863292
     13          1           0        0.884185    2.516911   -0.569508
     14          1           0       -0.881815    2.447597   -0.596008
     15          6           0        1.294908   -0.333386   -0.286208
     16          8           0        1.264018   -1.554886   -0.422808
     17          7           0        2.360202    0.331123    0.230592
     18          1           0        2.284994    1.325422    0.381792
     19          6           0        3.558108   -0.351067    0.693492
     20          1           0        3.470716   -1.399668    0.407792
     21          1           0        4.452004    0.079740    0.229292
     22          1           0        3.657507   -0.285567    1.783592
 ---------------------------------------------------------------------

 SCF Done:  E(RHF) =  -492.916481349     A.U. after   14 cycles
 E2 =    -0.1601361794D+01 EUMP2 =    -0.49451784314333D+03

 The electronic state is 1-A.
 Alpha  occ. eigenvalues --  -20.53925 -20.52265 -15.60714 -15.58997 -11.36941
 Alpha  occ. eigenvalues --  -11.36011 -11.30199 -11.27586 -11.23994 -11.23902
 Alpha  occ. eigenvalues --   -1.39568  -1.37600  -1.24424  -1.23334  -1.05785
 Alpha  occ. eigenvalues --   -0.98755  -0.96006  -0.89590  -0.80677  -0.76027
 Alpha  occ. eigenvalues --   -0.72956  -0.68897  -0.66053  -0.65134  -0.62438
 Alpha  occ. eigenvalues --   -0.61821  -0.59356  -0.58711  -0.56569  -0.55908
 Alpha  occ. eigenvalues --   -0.55488  -0.54516  -0.52847  -0.51926  -0.50340
 Alpha  occ. eigenvalues --   -0.43907  -0.41466  -0.40409  -0.38651
 Alpha virt. eigenvalues --    0.02798   0.04073   0.04167   0.04689   0.05585
 Alpha virt. eigenvalues --    0.06167   0.06355   0.06736   0.07384   0.07828
 Alpha virt. eigenvalues --    0.09360   0.10182   0.10852   0.11185   0.13268

 Mulliken atomic charges:
              1
     1  H    0.009140
     2  C    0.360248
     3  H   -0.122776
     4  H    0.048045
     5  C    0.604217
     6  O   -0.829207
     7  N   -0.468216
     8  H   -0.019648
     9  C   -0.048407
    10  H   -0.024379
    11  C    0.809285
    12  H    0.027829
    13  H   -0.074111
    14  H   -0.085078
    15  C    0.983599
    16  O   -0.883623
    17  N   -0.530576
    18  H   -0.119455
    19  C    0.720004
    20  H   -0.148861
    21  H   -0.124031
    22  H   -0.083999
 Sum of Mulliken atomic charges =   0.00000

 Dipole moment (field-independent basis, Debye):
    X=              2.8106    Y=              0.6014    Z=             -0.4610  Tot=              2.9110
 Quadrupole moment (field-independent basis, Debye-Ang):
   XX=            -57.8155   YY=            -64.3049   ZZ=            -61.1566
   XY=             13.4839   XZ=              5.5016   YZ=             -3.2910

 Normal termination of Gaussian 09 at Sun Feb 12 16:32:46 2017.
