 Gaussian 09, Revision A.02,
 Gaussian 09:  EM64L-G09RevA.02 11-Jun-2009

 -------------------
 #SP MP2/aug-cc-pVDZ
 -------------------

 -------------------------------
 Single Point calculation at MP2
 -------------------------------
 Symbolic Z-matrix:
 Charge =  0 Multiplicity = 1

                         Standard orientation:
 ---------------------------------------------------------------------
 Center     Atomic      Atomic             Coordinates (Angstroms)
 Number     Number       Type             X           Y           Z
 ---------------------------------------------------------------------
      1          1           0       -3.593615   -1.740786    0.191394
      2          6           0       -3.118312   -1.123288   -0.573706
      3          1           0       -3.891010   -0.478785   -1.009006
      4          1           0       -2.723115   -1.767490   -1.366306
      5          6           0       -2.060409   -0.248793    0.094694
      6          8           0       -2.220807    0.198308    1.220394
      7          7           0       -0.942308   -0.029997   -0.680406
      8          1           0       -0.964610   -0.448397   -1.600806
      9          6           0        0.137996    0.953398   -0.504106
     10          1           0        0.217299    1.507698   -1.446906
     11          6           0       -0.071700    1.981999    0.616094
     12          1           0       -0.111401    1.514299    1.599794
     13          1           0        0.770603    2.678896    0.576094
     14          1           0       -1.001397    2.536503    0.468594
     15          6           0        1.523794    0.289792   -0.342106
     16          8           0        2.535596    0.890388   -0.685906
     17          7           0        1.521888   -0.941608    0.235694
     18          1           0        0.627387   -1.333904    0.493994
     19          6           0        2.740485   -1.663013    0.550994
     20          1           0        3.575288   -1.080216    0.158494
     21          1           0        2.865285   -1.780813    1.634294
     22          1           0        2.742781   -2.655913    0.086294
 ---------------------------------------------------------------------

 SCF Done:  E(RHF) =  -492.917422324     A.U. after   14 cycles
 E2 =    -0.1602017757D+01 EUMP2 =    -0.49451944008109D+03

 The electronic state is 1-A.
 Alpha  occ. eigenvalues --  -20.53985 -20.52893 -15.61038 -15.59582 -11.37633
 Alpha  occ. eigenvalues --  -11.35823 -11.29896 -11.26894 -11.25734 -11.22947
 Alpha  occ. eigenvalues --   -1.39471  -1.38263  -1.25363  -1.22763  -1.05960
 Alpha  occ. eigenvalues --   -0.99749  -0.95941  -0.88632  -0.79938  -0.77656
 Alpha  occ. eigenvalues --   -0.72740  -0.70035  -0.66824  -0.62990  -0.62661
 Alpha  occ. eigenvalues --   -0.62216  -0.60141  -0.59529  -0.57176  -0.56089
 Alpha  occ. eigenvalues --   -0.54834  -0.54017  -0.52542  -0.52198  -0.50188
 Alpha  occ. eigenvalues --   -0.44478  -0.42710  -0.39773  -0.38855
 Alpha virt. eigenvalues --    0.02405   0.03735   0.04285   0.04591   0.05578
 Alpha virt. eigenvalues --    0.05988   0.06273   0.06463   0.07500   0.08095
 Alpha virt. eigenvalues --    0.08519   0.09245   0.10884   0.12173   0.12490

 Mulliken atomic charges:
              1
     1  H    0.007478
     2  C    0.379646
     3  H    0.057624
     4  H   -0.127940
     5  C    0.656346
     6  O   -0.820085
     7  N   -0.147942
     8  H   -0.100669
     9  C   -0.427786
    10  H   -0.147492
    11  C    0.699400
    12  H    0.038004
    13  H   -0.082569
    14  H   -0.027439
    15  C    1.185972
    16  O   -0.889208
    17  N   -0.606151
    18  H   -0.060237
    19  C    0.747678
    20  H   -0.144044
    21  H   -0.088549
    22  H   -0.102037
 Sum of Mulliken atomic charges =   0.00000

 Dipole moment (field-independent basis, Debye):
    X=             -2.1434    Y=             -3.2985    Z=             -2.1282  Tot=              4.4725
 Quadrupole moment (field-independent basis, Debye-Ang):
   XX=            -69.3325   YY=            -57.5758   ZZ=            -62.6645
   XY=             -3.6118   XZ=             12.4716   YZ=              0.3180

 Normal termination of Gaussian 09 at Sun Feb 12 16:54:10 2017.
