 Gaussian 09, Revision A.02,
 Gaussian 09:  EM64L-G09RevA.02 11-Jun-2009

 -------------------
 #SP MP2/aug-cc-pVDZ
 -------------------

 -------------------------------
 Single Point calculation at MP2
 -------------------------------
 Symbolic Z-matrix:
 Charge =  0 Multiplicity = 1

                         Standard orientation:
 ---------------------------------------------------------------------
 Center     Atomic      Atomic             Coordinates (Angstroms)
 Number     Number       Type             X           Y           Z
 ---------------------------------------------------------------------
      1          1           0        4.156403   -0.988613   -0.271212
      2          6           0        3.108002   -1.294410   -0.277112
      3          1           0        2.942799   -2.049409    0.497988
      4          1           0        2.896300   -1.749609   -1.252012
      5          6           0        2.239106   -0.051007   -0.107912
      6          8           0        2.577710    1.028092   -0.577112
      7          7           0        1.096105   -0.275903    0.620388
      8          1           0        0.854202   -1.252302    0.757988
      9          6           0       -0.105692    0.553702    0.711088
     10          1           0       -0.313391    0.712702    1.781888
     11          6           0       -0.007387    1.937901    0.056288
     12          1           0        0.060213    1.876901   -1.032112
     13          1           0       -0.884885    2.536604    0.331588
     14          1           0        0.878515    2.464898    0.407388
     15          6           0       -1.284495   -0.324694    0.205688
     16          8           0       -1.176899   -1.548695    0.176088
     17          7           0       -2.439692    0.323010   -0.097012
     18          1           0       -2.434589    1.330810   -0.138912
     19          6           0       -3.638395   -0.378786   -0.527912
     20          1           0       -3.505899   -1.435786   -0.295212
     21          1           0       -4.515194    0.005317    0.003788
     22          1           0       -3.802695   -0.272685   -1.607412
 ---------------------------------------------------------------------

 SCF Done:  E(RHF) =  -492.916273022     A.U. after   14 cycles
 E2 =    -0.1601263861D+01 EUMP2 =    -0.49451753688333D+03

 The electronic state is 1-A.
 Alpha  occ. eigenvalues --  -20.54216 -20.52313 -15.60678 -15.58698 -11.37039
 Alpha  occ. eigenvalues --  -11.35892 -11.30206 -11.27648 -11.23914 -11.23858
 Alpha  occ. eigenvalues --   -1.39790  -1.37592  -1.24452  -1.23201  -1.05710
 Alpha  occ. eigenvalues --   -0.98667  -0.96018  -0.89414  -0.80686  -0.75746
 Alpha  occ. eigenvalues --   -0.73064  -0.68712  -0.66185  -0.64925  -0.62525
 Alpha  occ. eigenvalues --   -0.61955  -0.59391  -0.58678  -0.56648  -0.55882
 Alpha  occ. eigenvalues --   -0.55377  -0.54503  -0.52682  -0.51978  -0.50243
 Alpha  occ. eigenvalues --   -0.43900  -0.41414  -0.40621  -0.38723
 Alpha virt. eigenvalues --    0.02696   0.04091   0.04257   0.04579   0.05622
 Alpha virt. eigenvalues --    0.06231   0.06354   0.06692   0.07398   0.07824
 Alpha virt. eigenvalues --    0.09394   0.10333   0.10976   0.11345   0.13106

 Mulliken atomic charges:
              1
     1  H   -0.014820
     2  C    0.342594
     3  H   -0.080946
     4  H    0.053064
     5  C    0.624550
     6  O   -0.819262
     7  N   -0.514050
     8  H   -0.001947
     9  C   -0.002857
    10  H   -0.024397
    11  C    0.736884
    12  H   -0.004142
    13  H   -0.119944
    14  H   -0.024653
    15  C    0.970492
    16  O   -0.854814
    17  N   -0.504306
    18  H   -0.109361
    19  C    0.708976
    20  H   -0.147626
    21  H   -0.135277
    22  H   -0.078158
 Sum of Mulliken atomic charges =   0.00000

 Dipole moment (field-independent basis, Debye):
    X=             -3.2681    Y=              0.5847    Z=              0.8127  Tot=              3.4181
 Quadrupole moment (field-independent basis, Debye-Ang):
   XX=            -57.5824   YY=            -64.0266   ZZ=            -61.2766
   XY=            -13.3551   XZ=              4.0172   YZ=              2.2477

 Normal termination of Gaussian 09 at Sun Feb 12 16:25:48 2017.
