 Gaussian 09, Revision A.02,
 Gaussian 09:  EM64L-G09RevA.02 11-Jun-2009

 -------------------
 #SP MP2/aug-cc-pVDZ
 -------------------

 -------------------------------
 Single Point calculation at MP2
 -------------------------------
 Symbolic Z-matrix:
 Charge =  0 Multiplicity = 1

                         Standard orientation:
 ---------------------------------------------------------------------
 Center     Atomic      Atomic             Coordinates (Angstroms)
 Number     Number       Type             X           Y           Z
 ---------------------------------------------------------------------
      1          1           0        4.127397   -1.042805   -0.388810
      2          6           0        3.093497   -1.322905   -0.181210
      3          1           0        3.055296   -1.946105    0.718690
      4          1           0        2.717696   -1.920104   -1.021110
      5          6           0        2.261697   -0.050804   -0.042610
      6          8           0        2.648098    1.021196   -0.487910
      7          7           0        1.086497   -0.245803    0.649690
      8          1           0        0.825097   -1.222803    0.745190
      9          6           0       -0.114002    0.588298    0.642090
     10          1           0       -0.359902    0.836898    1.686990
     11          6           0        0.003499    1.910697   -0.133610
     12          1           0        0.136399    1.741797   -1.204710
     13          1           0       -0.902001    2.510398    0.017190
     14          1           0        0.857599    2.487997    0.216790
     15          6           0       -1.278403   -0.306002    0.130490
     16          8           0       -1.107404   -1.498602   -0.108610
     17          7           0       -2.494002    0.298299    0.051590
     18          1           0       -2.555302    1.290099    0.227390
     19          6           0       -3.696403   -0.403200   -0.367510
     20          1           0       -3.445004   -1.460200   -0.458610
     21          1           0       -4.493203   -0.282899    0.374890
     22          1           0       -4.056403   -0.037000   -1.336510
 ---------------------------------------------------------------------

 SCF Done:  E(RHF) =  -492.915889225     A.U. after   14 cycles
 E2 =    -0.1601175258D+01 EUMP2 =    -0.49451706448307D+03

 The electronic state is 1-A.
 Alpha  occ. eigenvalues --  -20.54384 -20.52486 -15.60641 -15.58501 -11.37096
 Alpha  occ. eigenvalues --  -11.35819 -11.30152 -11.27674 -11.23808 -11.23771
 Alpha  occ. eigenvalues --   -1.39890  -1.37670  -1.24463  -1.23120  -1.05638
 Alpha  occ. eigenvalues --   -0.98614  -0.96037  -0.89093  -0.80612  -0.75623
 Alpha  occ. eigenvalues --   -0.73106  -0.68565  -0.66285  -0.64602  -0.62709
 Alpha  occ. eigenvalues --   -0.62054  -0.59424  -0.58640  -0.56680  -0.55657
 Alpha  occ. eigenvalues --   -0.55324  -0.54418  -0.52595  -0.52067  -0.50246
 Alpha  occ. eigenvalues --   -0.43845  -0.41492  -0.40612  -0.38852
 Alpha virt. eigenvalues --    0.02614   0.04058   0.04308   0.04477   0.05753
 Alpha virt. eigenvalues --    0.06261   0.06373   0.06682   0.07356   0.07997
 Alpha virt. eigenvalues --    0.09371   0.09733   0.11147   0.12098   0.12651

 Mulliken atomic charges:
              1
     1  H   -0.057322
     2  C    0.304204
     3  H   -0.012714
     4  H    0.054480
     5  C    0.680032
     6  O   -0.803569
     7  N   -0.570714
     8  H    0.008953
     9  C   -0.041911
    10  H   -0.058689
    11  C    0.700978
    12  H    0.017870
    13  H   -0.201904
    14  H    0.035658
    15  C    1.071649
    16  O   -0.834775
    17  N   -0.529595
    18  H   -0.104723
    19  C    0.696398
    20  H   -0.153109
    21  H   -0.115527
    22  H   -0.085670
 Sum of Mulliken atomic charges =   0.00000

 Dipole moment (field-independent basis, Debye):
    X=             -3.6306    Y=              0.4688    Z=              1.3311  Tot=              3.8952
 Quadrupole moment (field-independent basis, Debye-Ang):
   XX=            -57.4632   YY=            -63.5379   ZZ=            -61.4739
   XY=            -13.1654   XZ=              2.1860   YZ=              1.2763

 Normal termination of Gaussian 09 at Sun Feb 12 16:26:50 2017.
