 Gaussian 09, Revision A.02,
 Gaussian 09:  EM64L-G09RevA.02 11-Jun-2009

 -------------------
 #SP MP2/aug-cc-pVDZ
 -------------------

 -------------------------------
 Single Point calculation at MP2
 -------------------------------
 Symbolic Z-matrix:
 Charge =  0 Multiplicity = 1

                         Standard orientation:
 ---------------------------------------------------------------------
 Center     Atomic      Atomic             Coordinates (Angstroms)
 Number     Number       Type             X           Y           Z
 ---------------------------------------------------------------------
      1          1           0       -3.730003   -1.597610    0.648300
      2          6           0       -3.094103   -1.367110   -0.208200
      3          1           0       -3.732903   -0.974810   -1.009000
      4          1           0       -2.622203   -2.287910   -0.568100
      5          6           0       -2.086003   -0.299410    0.209500
      6          8           0       -2.326003    0.498390    1.099100
      7          7           0       -0.893903   -0.353010   -0.495400
      8          1           0       -0.936903   -0.972810   -1.295300
      9          6           0        0.100697    0.731790   -0.662800
     10          1           0        0.263097    0.816490   -1.747000
     11          6           0       -0.324202    2.110190   -0.154300
     12          1           0       -0.485502    2.113490    0.922600
     13          1           0        0.475998    2.812790   -0.395700
     14          1           0       -1.249002    2.432090   -0.640500
     15          6           0        1.491797    0.339290   -0.099400
     16          8           0        2.310598    1.191690    0.217000
     17          7           0        1.784097   -0.996410   -0.152100
     18          1           0        0.988097   -1.620510   -0.139600
     19          6           0        3.044397   -1.501710    0.371000
     20          1           0        3.819397   -0.762611    0.163600
     21          1           0        3.010697   -1.668410    1.456000
     22          1           0        3.295597   -2.443111   -0.126400
 ---------------------------------------------------------------------

 SCF Done:  E(RHF) =  -492.912605934     A.U. after   14 cycles
 E2 =    -0.1601708511D+01 EUMP2 =    -0.49451431444494D+03

 The electronic state is 1-A.
 Alpha  occ. eigenvalues --  -20.54156 -20.53333 -15.60983 -15.59463 -11.37494
 Alpha  occ. eigenvalues --  -11.35874 -11.30128 -11.26851 -11.25730 -11.21947
 Alpha  occ. eigenvalues --   -1.39564  -1.38605  -1.25236  -1.22590  -1.05641
 Alpha  occ. eigenvalues --   -0.99554  -0.95932  -0.87817  -0.80190  -0.76529
 Alpha  occ. eigenvalues --   -0.72232  -0.70469  -0.66585  -0.63949  -0.62487
 Alpha  occ. eigenvalues --   -0.61759  -0.60707  -0.59324  -0.57196  -0.54915
 Alpha  occ. eigenvalues --   -0.54141  -0.53806  -0.51998  -0.51812  -0.50470
 Alpha  occ. eigenvalues --   -0.45022  -0.42759  -0.39678  -0.39474
 Alpha virt. eigenvalues --    0.02064   0.03582   0.03955   0.04761   0.05569
 Alpha virt. eigenvalues --    0.06057   0.06286   0.06524   0.07523   0.08143
 Alpha virt. eigenvalues --    0.08344   0.09212   0.11145   0.12470   0.12490

 Mulliken atomic charges:
              1
     1  H   -0.018357
     2  C    0.343047
     3  H    0.049424
     4  H   -0.075325
     5  C    0.681176
     6  O   -0.785948
     7  N   -0.416608
     8  H   -0.086020
     9  C   -0.182316
    10  H   -0.042806
    11  C    0.695183
    12  H    0.037393
    13  H   -0.084863
    14  H   -0.004675
    15  C    0.849900
    16  O   -0.813084
    17  N   -0.460655
    18  H   -0.064600
    19  C    0.739756
    20  H   -0.123715
    21  H   -0.072387
    22  H   -0.164519
 Sum of Mulliken atomic charges =   0.00000

 Dipole moment (field-independent basis, Debye):
    X=             -1.3857    Y=             -4.8596    Z=             -3.5669  Tot=              6.1853
 Quadrupole moment (field-independent basis, Debye-Ang):
   XX=            -66.5671   YY=            -59.1155   ZZ=            -61.8640
   XY=             -2.0069   XZ=              6.1640   YZ=             -2.3336

 Normal termination of Gaussian 09 at Sun Feb 12 16:47:19 2017.
