 Gaussian 09, Revision A.02,
 Gaussian 09:  EM64L-G09RevA.02 11-Jun-2009

 -------------------
 #SP MP2/aug-cc-pVDZ
 -------------------

 -------------------------------
 Single Point calculation at MP2
 -------------------------------
 Symbolic Z-matrix:
 Charge =  0 Multiplicity = 1

                         Standard orientation:
 ---------------------------------------------------------------------
 Center     Atomic      Atomic             Coordinates (Angstroms)
 Number     Number       Type             X           Y           Z
 ---------------------------------------------------------------------
      1          1           0       -3.714370   -1.600949    0.773110
      2          6           0       -3.075972   -1.439141   -0.097190
      3          1           0       -3.717276   -1.144150   -0.936790
      4          1           0       -2.577059   -2.378234   -0.360390
      5          6           0       -2.100687   -0.308428    0.222010
      6          8           0       -2.380399    0.576768    1.011810
      7          7           0       -0.891286   -0.412512   -0.445390
      8          1           0       -0.911576   -1.108012   -1.181190
      9          6           0        0.091000    0.668601   -0.698790
     10          1           0        0.272200    0.649904   -1.783290
     11          6           0       -0.360819    2.079895   -0.327190
     12          1           0       -0.508220    2.189493    0.745610
     13          1           0        0.417472    2.776806   -0.646890
     14          1           0       -1.297522    2.328783   -0.832490
     15          6           0        1.466404    0.340520   -0.057590
     16          8           0        2.160393    1.204229    0.458910
     17          7           0        1.907322   -0.942875   -0.257490
     18          1           0        1.192231   -1.643184   -0.401390
     19          6           0        3.154428   -1.394958    0.343210
     20          1           0        3.879517   -0.582748    0.277310
     21          1           0        3.037631   -1.664360    1.401610
     22          1           0        3.528639   -2.262553   -0.207590
 ---------------------------------------------------------------------

 SCF Done:  E(RHF) =  -492.910259516     A.U. after   14 cycles
 E2 =    -0.1601271226D+01 EUMP2 =    -0.49451153074205D+03

 The electronic state is 1-A.
 Alpha  occ. eigenvalues --  -20.53968 -20.53582 -15.60951 -15.59549 -11.37350
 Alpha  occ. eigenvalues --  -11.35934 -11.30138 -11.26911 -11.25615 -11.21871
 Alpha  occ. eigenvalues --   -1.39421  -1.38762  -1.25098  -1.22663  -1.05605
 Alpha  occ. eigenvalues --   -0.99456  -0.95911  -0.87736  -0.80220  -0.76503
 Alpha  occ. eigenvalues --   -0.72111  -0.70439  -0.66392  -0.64323  -0.62502
 Alpha  occ. eigenvalues --   -0.61671  -0.60671  -0.59237  -0.57102  -0.54983
 Alpha  occ. eigenvalues --   -0.54047  -0.53206  -0.52025  -0.51792  -0.50800
 Alpha  occ. eigenvalues --   -0.45108  -0.42636  -0.39739  -0.39461
 Alpha virt. eigenvalues --    0.01975   0.03597   0.03854   0.04738   0.05532
 Alpha virt. eigenvalues --    0.06012   0.06373   0.06493   0.07523   0.08090
 Alpha virt. eigenvalues --    0.08471   0.09270   0.11102   0.12422   0.12543

 Mulliken atomic charges:
              1
     1  H   -0.019606
     2  C    0.356354
     3  H    0.052160
     4  H   -0.076575
     5  C    0.602820
     6  O   -0.777512
     7  N   -0.440528
     8  H   -0.094592
     9  C   -0.099818
    10  H   -0.064280
    11  C    0.711537
    12  H    0.044313
    13  H   -0.097118
    14  H   -0.010939
    15  C    0.853489
    16  O   -0.783352
    17  N   -0.465824
    18  H   -0.078829
    19  C    0.750596
    20  H   -0.120723
    21  H   -0.071489
    22  H   -0.170084
 Sum of Mulliken atomic charges =   0.00000

 Dipole moment (field-independent basis, Debye):
    X=             -0.8332    Y=             -5.1924    Z=             -3.8814  Tot=              6.5361
 Quadrupole moment (field-independent basis, Debye-Ang):
   XX=            -65.3732   YY=            -59.0920   ZZ=            -62.1457
   XY=             -1.0150   XZ=              4.5455   YZ=             -2.6644

 Normal termination of Gaussian 09 at Sun Feb 12 17:59:47 2017.
