 Gaussian 09, Revision A.02,
 Gaussian 09:  EM64L-G09RevA.02 11-Jun-2009

 -------------------------------------------
 # HF/6-31G* Opt=(ModRedundant) geom=nocrowd
 -------------------------------------------

 ------------------
 Phi Psi fixed scan
 ------------------
 Symbolic Z-matrix:
 Charge =  0 Multiplicity = 1

 SCF Done:  E(RHF) =  -492.829640010     A.U. after   15 cycles
 SCF Done:  E(RHF) =  -492.843701745     A.U. after   16 cycles
 SCF Done:  E(RHF) =  -492.846432203     A.U. after   13 cycles
 SCF Done:  E(RHF) =  -492.847058383     A.U. after   13 cycles
 SCF Done:  E(RHF) =  -492.847513874     A.U. after   13 cycles
 SCF Done:  E(RHF) =  -492.847773917     A.U. after   13 cycles
 SCF Done:  E(RHF) =  -492.847882443     A.U. after   12 cycles
 SCF Done:  E(RHF) =  -492.847962046     A.U. after   11 cycles
 SCF Done:  E(RHF) =  -492.847977593     A.U. after   10 cycles
 SCF Done:  E(RHF) =  -492.847984445     A.U. after   10 cycles
 SCF Done:  E(RHF) =  -492.848343025     A.U. after   11 cycles
 SCF Done:  E(RHF) =  -492.848399838     A.U. after   11 cycles
 SCF Done:  E(RHF) =  -492.848394121     A.U. after   14 cycles
 SCF Done:  E(RHF) =  -492.848461504     A.U. after   12 cycles
 SCF Done:  E(RHF) =  -492.848475054     A.U. after   11 cycles
 SCF Done:  E(RHF) =  -492.848475880     A.U. after   10 cycles
 SCF Done:  E(RHF) =  -492.848476110     A.U. after    8 cycles
 SCF Done:  E(RHF) =  -492.848476221     A.U. after    8 cycles
 SCF Done:  E(RHF) =  -492.848476271     A.U. after    8 cycles
 SCF Done:  E(RHF) =  -492.848476281     A.U. after    7 cycles
 Optimization completed.
    -- Stationary point found.

                         Standard orientation:
 ---------------------------------------------------------------------
 Center     Atomic      Atomic             Coordinates (Angstroms)
 Number     Number       Type             X           Y           Z
 ---------------------------------------------------------------------
      1          1           0        3.895258   -1.086923   -1.086266
      2          6           0        3.039992   -1.384450   -0.497191
      3          1           0        3.397173   -1.842865    0.420221
      4          1           0        2.457717   -2.119617   -1.040476
      5          6           0        2.232070   -0.148611   -0.152724
      6          8           0        2.727657    0.943645   -0.147037
      7          7           0        0.932225   -0.404389    0.150628
      8          1           0        0.693175   -1.359139    0.307205
      9          6           0       -0.047267    0.539091    0.683748
     10          1           0        0.062270    0.613470    1.760628
     11          6           0        0.044762    1.940243    0.080946
     12          1           0        0.075742    1.910315   -1.003113
     13          1           0       -0.815549    2.522683    0.396009
     14          1           0        0.940278    2.439191    0.410827
     15          6           0       -1.391619   -0.168559    0.464269
     16          8           0       -1.665144   -1.127837    1.140084
     17          7           0       -2.186959    0.260934   -0.528001
     18          1           0       -1.897917    1.018582   -1.098191
     19          6           0       -3.425635   -0.419748   -0.843658
     20          1           0       -4.049304   -0.496786    0.036231
     21          1           0       -3.949137    0.150068   -1.599310
     22          1           0       -3.240484   -1.419052   -1.218868
 ---------------------------------------------------------------------

 The electronic state is 1-A.
 Alpha  occ. eigenvalues --  -20.52822 -20.52354 -15.59454 -15.58766 -11.35065
 Alpha  occ. eigenvalues --  -11.35032 -11.28487 -11.26425 -11.23171 -11.22353
 Alpha  occ. eigenvalues --   -1.39978  -1.39033  -1.24386  -1.23618  -1.05900
 Alpha  occ. eigenvalues --   -0.99274  -0.96007  -0.89604  -0.80207  -0.77479
 Alpha  occ. eigenvalues --   -0.72881  -0.68901  -0.66588  -0.64819  -0.62716
 Alpha  occ. eigenvalues --   -0.62106  -0.59408  -0.58919  -0.56693  -0.56495
 Alpha  occ. eigenvalues --   -0.55665  -0.54207  -0.53873  -0.52296  -0.50675
 Alpha  occ. eigenvalues --   -0.42941  -0.41476  -0.39593  -0.38790
 Alpha virt. eigenvalues --    0.18980   0.20479   0.22044   0.23345   0.25735
 Alpha virt. eigenvalues --    0.27749   0.28974   0.29716   0.30545   0.31521
 Alpha virt. eigenvalues --    0.32824   0.33491   0.34023   0.35382   0.37269

 Mulliken atomic charges:
              1
     1  H    0.213650
     2  C   -0.589185
     3  H    0.198915
     4  H    0.180476
     5  C    0.754636
     6  O   -0.605124
     7  N   -0.833333
     8  H    0.403401
     9  C    0.028249
    10  H    0.207426
    11  C   -0.524850
    12  H    0.164894
    13  H    0.164077
    14  H    0.237898
    15  C    0.735467
    16  O   -0.626167
    17  N   -0.796813
    18  H    0.402824
    19  C   -0.269634
    20  H    0.198511
    21  H    0.169538
    22  H    0.185144
 Sum of Mulliken atomic charges =   0.00000

 Dipole moment (field-independent basis, Debye):
    X=             -1.8195    Y=             -0.2389    Z=             -2.1569  Tot=              2.8319
 Quadrupole moment (field-independent basis, Debye-Ang):
   XX=            -62.3094   YY=            -61.0483   ZZ=            -60.6204
   XY=            -12.8444   XZ=              6.6735   YZ=              3.0130

 Normal termination of Gaussian 09 at Fri Feb 10 05:13:19 2017.
