 Gaussian 09, Revision A.02,
 Gaussian 09:  EM64L-G09RevA.02 11-Jun-2009

 -------------------------------------------
 # HF/6-31G* Opt=(ModRedundant) geom=nocrowd
 -------------------------------------------

 ------------------
 Phi Psi fixed scan
 ------------------
 Symbolic Z-matrix:
 Charge =  0 Multiplicity = 1

 SCF Done:  E(RHF) =  -492.832903460     A.U. after   15 cycles
 SCF Done:  E(RHF) =  -492.842900408     A.U. after   15 cycles
 SCF Done:  E(RHF) =  -492.845449318     A.U. after   13 cycles
 SCF Done:  E(RHF) =  -492.845802927     A.U. after   13 cycles
 SCF Done:  E(RHF) =  -492.846435437     A.U. after   13 cycles
 SCF Done:  E(RHF) =  -492.846647057     A.U. after   12 cycles
 SCF Done:  E(RHF) =  -492.846788908     A.U. after   13 cycles
 SCF Done:  E(RHF) =  -492.846891794     A.U. after   12 cycles
 SCF Done:  E(RHF) =  -492.846991394     A.U. after   12 cycles
 SCF Done:  E(RHF) =  -492.847033333     A.U. after   12 cycles
 SCF Done:  E(RHF) =  -492.847423594     A.U. after   12 cycles
 SCF Done:  E(RHF) =  -492.847460943     A.U. after   11 cycles
 SCF Done:  E(RHF) =  -492.847488420     A.U. after   12 cycles
 SCF Done:  E(RHF) =  -492.847491649     A.U. after   11 cycles
 SCF Done:  E(RHF) =  -492.847505810     A.U. after   11 cycles
 SCF Done:  E(RHF) =  -492.847514764     A.U. after   11 cycles
 SCF Done:  E(RHF) =  -492.847523240     A.U. after   11 cycles
 SCF Done:  E(RHF) =  -492.847525406     A.U. after   11 cycles
 SCF Done:  E(RHF) =  -492.847525738     A.U. after    9 cycles
 SCF Done:  E(RHF) =  -492.847525781     A.U. after    7 cycles
 Optimization completed.
    -- Stationary point found.

                         Standard orientation:
 ---------------------------------------------------------------------
 Center     Atomic      Atomic             Coordinates (Angstroms)
 Number     Number       Type             X           Y           Z
 ---------------------------------------------------------------------
      1          1           0        3.864278   -1.419161   -0.661907
      2          6           0        2.985476   -1.528076   -0.043410
      3          1           0        3.304068   -1.733052    0.974425
      4          1           0        2.394906   -2.368426   -0.390274
      5          6           0        2.206659   -0.227515   -0.070024
      6          8           0        2.725865    0.810418   -0.366623
      7          7           0        0.894985   -0.356999    0.276299
      8          1           0        0.646538   -1.227997    0.691901
      9          6           0       -0.048387    0.730826    0.535207
     10          1           0        0.074779    1.091221    1.549228
     11          6           0        0.066648    1.913423   -0.430018
     12          1           0        0.086337    1.592956   -1.465118
     13          1           0       -0.790039    2.563954   -0.288210
     14          1           0        0.968397    2.473131   -0.245567
     15          6           0       -1.446810    0.102287    0.506262
     16          8           0       -2.056591   -0.093511    1.522725
     17          7           0       -1.937530   -0.211964   -0.709763
     18          1           0       -1.332665   -0.155526   -1.495330
     19          6           0       -3.207080   -0.890216   -0.860003
     20          1           0       -3.961534   -0.388659   -0.271830
     21          1           0       -3.495310   -0.860380   -1.902307
     22          1           0       -3.155170   -1.924951   -0.537656
 ---------------------------------------------------------------------

 The electronic state is 1-A.
 Alpha  occ. eigenvalues --  -20.53014 -20.52962 -15.59489 -15.58973 -11.35609
 Alpha  occ. eigenvalues --  -11.34781 -11.28343 -11.26238 -11.23737 -11.22136
 Alpha  occ. eigenvalues --   -1.40037  -1.39532  -1.24965  -1.23201  -1.05979
 Alpha  occ. eigenvalues --   -0.99612  -0.95944  -0.89220  -0.79671  -0.77981
 Alpha  occ. eigenvalues --   -0.73005  -0.68992  -0.67028  -0.64300  -0.62988
 Alpha  occ. eigenvalues --   -0.62303  -0.59714  -0.59079  -0.57136  -0.56270
 Alpha  occ. eigenvalues --   -0.55671  -0.54344  -0.53741  -0.51993  -0.51077
 Alpha  occ. eigenvalues --   -0.43255  -0.41573  -0.39858  -0.38917
 Alpha virt. eigenvalues --    0.19301   0.19451   0.21299   0.22987   0.25925
 Alpha virt. eigenvalues --    0.27379   0.28414   0.29770   0.30246   0.31727
 Alpha virt. eigenvalues --    0.32621   0.33329   0.34273   0.35138   0.37222

 Mulliken atomic charges:
              1
     1  H    0.216807
     2  C   -0.591110
     3  H    0.199482
     4  H    0.178634
     5  C    0.752802
     6  O   -0.596020
     7  N   -0.836739
     8  H    0.391218
     9  C   -0.003263
    10  H    0.216843
    11  C   -0.494922
    12  H    0.157685
    13  H    0.172425
    14  H    0.227632
    15  C    0.721510
    16  O   -0.604848
    17  N   -0.778789
    18  H    0.393358
    19  C   -0.272290
    20  H    0.204977
    21  H    0.170535
    22  H    0.174074
 Sum of Mulliken atomic charges =   0.00000

 Dipole moment (field-independent basis, Debye):
    X=             -0.5043    Y=             -2.7117    Z=             -2.2131  Tot=              3.5363
 Quadrupole moment (field-independent basis, Debye-Ang):
   XX=            -67.3046   YY=            -57.6378   ZZ=            -62.5481
   XY=             -6.8440   XZ=             10.9348   YZ=              1.5579

 Normal termination of Gaussian 09 at Fri Feb 10 05:20:37 2017.
