 Gaussian 09, Revision A.02,
 Gaussian 09:  EM64L-G09RevA.02 11-Jun-2009

 -------------------------------------------
 # HF/6-31G* Opt=(ModRedundant) geom=nocrowd
 -------------------------------------------

 ------------------
 Phi Psi fixed scan
 ------------------
 Symbolic Z-matrix:
 Charge =  0 Multiplicity = 1

 SCF Done:  E(RHF) =  -492.836531444     A.U. after   15 cycles
 SCF Done:  E(RHF) =  -492.845080563     A.U. after   14 cycles
 SCF Done:  E(RHF) =  -492.847419852     A.U. after   13 cycles
 SCF Done:  E(RHF) =  -492.847665620     A.U. after   13 cycles
 SCF Done:  E(RHF) =  -492.848991871     A.U. after   12 cycles
 SCF Done:  E(RHF) =  -492.849976668     A.U. after   13 cycles
 SCF Done:  E(RHF) =  -492.849668941     A.U. after   14 cycles
 SCF Done:  E(RHF) =  -492.850678277     A.U. after   13 cycles
 SCF Done:  E(RHF) =  -492.850754979     A.U. after   13 cycles
 SCF Done:  E(RHF) =  -492.850804551     A.U. after   12 cycles
 SCF Done:  E(RHF) =  -492.850817543     A.U. after   10 cycles
 SCF Done:  E(RHF) =  -492.850830619     A.U. after   11 cycles
 SCF Done:  E(RHF) =  -492.850839410     A.U. after   10 cycles
 SCF Done:  E(RHF) =  -492.850840726     A.U. after    9 cycles
 SCF Done:  E(RHF) =  -492.850841651     A.U. after    9 cycles
 SCF Done:  E(RHF) =  -492.850842260     A.U. after   10 cycles
 Optimization completed.
    -- Stationary point found.

                         Standard orientation:
 ---------------------------------------------------------------------
 Center     Atomic      Atomic             Coordinates (Angstroms)
 Number     Number       Type             X           Y           Z
 ---------------------------------------------------------------------
      1          1           0       -4.065386   -1.341882    0.023803
      2          6           0       -3.056454   -1.388450    0.406354
      3          1           0       -2.637322   -2.370555    0.218246
      4          1           0       -3.082041   -1.232221    1.480910
      5          6           0       -2.233588   -0.295794   -0.242355
      6          8           0       -2.734574    0.629718   -0.814484
      7          7           0       -0.880357   -0.471606   -0.152653
      8          1           0       -0.600115   -1.129121    0.543812
      9          6           0        0.061749    0.636459   -0.313006
     10          1           0        0.139044    0.861810   -1.369695
     11          6           0       -0.307761    1.911789    0.448733
     12          1           0       -0.387809    1.702784    1.507782
     13          1           0        0.471028    2.656093    0.310217
     14          1           0       -1.239917    2.316332    0.086174
     15          6           0        1.394234    0.110971    0.228091
     16          8           0        1.549709   -0.057200    1.409106
     17          7           0        2.316837   -0.205850   -0.698976
     18          1           0        2.093793   -0.057198   -1.655731
     19          6           0        3.621180   -0.742369   -0.375204
     20          1           0        3.686573   -0.853237    0.694856
     21          1           0        3.762199   -1.711243   -0.840995
     22          1           0        4.407353   -0.075143   -0.710622
 ---------------------------------------------------------------------

 The electronic state is 1-A.
 Alpha  occ. eigenvalues --  -20.53116 -20.52754 -15.59831 -15.58532 -11.35441
 Alpha  occ. eigenvalues --  -11.34925 -11.28203 -11.26431 -11.23240 -11.21074
 Alpha  occ. eigenvalues --   -1.40250  -1.39326  -1.24597  -1.23537  -1.05342
 Alpha  occ. eigenvalues --   -0.99202  -0.96775  -0.87965  -0.79990  -0.77936
 Alpha  occ. eigenvalues --   -0.73155  -0.67222  -0.66561  -0.64574  -0.63114
 Alpha  occ. eigenvalues --   -0.62301  -0.60627  -0.58664  -0.56908  -0.56344
 Alpha  occ. eigenvalues --   -0.55810  -0.54477  -0.52442  -0.51628  -0.50035
 Alpha  occ. eigenvalues --   -0.42916  -0.41712  -0.40179  -0.39118
 Alpha virt. eigenvalues --    0.19623   0.19772   0.21468   0.22911   0.26226
 Alpha virt. eigenvalues --    0.28502   0.28840   0.30777   0.31056   0.31544
 Alpha virt. eigenvalues --    0.32152   0.32627   0.33780   0.36152   0.36770

 Mulliken atomic charges:
              1
     1  H    0.215056
     2  C   -0.593505
     3  H    0.185998
     4  H    0.196882
     5  C    0.747602
     6  O   -0.595966
     7  N   -0.808213
     8  H    0.393384
     9  C    0.001962
    10  H    0.189951
    11  C   -0.517077
    12  H    0.190129
    13  H    0.161692
    14  H    0.222751
    15  C    0.744015
    16  O   -0.620836
    17  N   -0.790232
    18  H    0.390363
    19  C   -0.292426
    20  H    0.230265
    21  H    0.173851
    22  H    0.174353
 Sum of Mulliken atomic charges =   0.00000

 Dipole moment (field-independent basis, Debye):
    X=              2.3923    Y=             -2.0128    Z=             -1.3790  Tot=              3.4170
 Quadrupole moment (field-independent basis, Debye-Ang):
   XX=            -59.6857   YY=            -58.5058   ZZ=            -63.4402
   XY=              5.5067   XZ=            -12.5699   YZ=              0.1340

 Normal termination of Gaussian 09 at Fri Feb 10 04:20:55 2017.
