 Gaussian 09, Revision A.02,
 Gaussian 09:  EM64L-G09RevA.02 11-Jun-2009

 -------------------------------------------
 # HF/6-31G* Opt=(ModRedundant) geom=nocrowd
 -------------------------------------------

 ------------------
 Phi Psi fixed scan
 ------------------
 Symbolic Z-matrix:
 Charge =  0 Multiplicity = 1

 SCF Done:  E(RHF) =  -492.840562832     A.U. after   15 cycles
 SCF Done:  E(RHF) =  -492.850698677     A.U. after   15 cycles
 SCF Done:  E(RHF) =  -492.852612913     A.U. after   13 cycles
 SCF Done:  E(RHF) =  -492.853048995     A.U. after   13 cycles
 SCF Done:  E(RHF) =  -492.853338217     A.U. after   12 cycles
 SCF Done:  E(RHF) =  -492.853442751     A.U. after   12 cycles
 SCF Done:  E(RHF) =  -492.853446789     A.U. after   10 cycles
 SCF Done:  E(RHF) =  -492.853452448     A.U. after    9 cycles
 SCF Done:  E(RHF) =  -492.853455493     A.U. after    9 cycles
 SCF Done:  E(RHF) =  -492.853463763     A.U. after   11 cycles
 SCF Done:  E(RHF) =  -492.853815934     A.U. after   11 cycles
 SCF Done:  E(RHF) =  -492.853926303     A.U. after   11 cycles
 SCF Done:  E(RHF) =  -492.853977426     A.U. after   11 cycles
 SCF Done:  E(RHF) =  -492.853998443     A.U. after   11 cycles
 SCF Done:  E(RHF) =  -492.854003789     A.U. after   11 cycles
 SCF Done:  E(RHF) =  -492.854026003     A.U. after   11 cycles
 SCF Done:  E(RHF) =  -492.854038479     A.U. after   11 cycles
 SCF Done:  E(RHF) =  -492.854040443     A.U. after   10 cycles
 SCF Done:  E(RHF) =  -492.854040717     A.U. after   10 cycles
 SCF Done:  E(RHF) =  -492.854040736     A.U. after    7 cycles
 Optimization completed.
    -- Stationary point found.

                         Standard orientation:
 ---------------------------------------------------------------------
 Center     Atomic      Atomic             Coordinates (Angstroms)
 Number     Number       Type             X           Y           Z
 ---------------------------------------------------------------------
      1          1           0       -4.217974   -1.041803   -0.024602
      2          6           0       -3.223774   -1.212284    0.363211
      3          1           0       -2.859490   -2.175500    0.025926
      4          1           0       -3.279079   -1.229188    1.447275
      5          6           0       -2.331262   -0.063794   -0.062863
      6          8           0       -2.775791    1.040034   -0.238580
      7          7           0       -1.029983   -0.392649   -0.214567
      8          1           0       -0.752351   -1.337722   -0.068225
      9          6           0        0.075604    0.514656   -0.444968
     10          1           0        0.106585    0.804103   -1.493296
     11          6           0        0.004352    1.783235    0.417185
     12          1           0        0.100006    1.537043    1.469397
     13          1           0        0.793874    2.479121    0.153773
     14          1           0       -0.937907    2.280587    0.261084
     15          6           0        1.347815   -0.302628   -0.162487
     16          8           0        1.313335   -1.504749   -0.087488
     17          7           0        2.491973    0.383229   -0.003586
     18          1           0        2.498160    1.367420   -0.121134
     19          6           0        3.755349   -0.300951    0.185092
     20          1           0        3.695649   -0.973063    1.029542
     21          1           0        4.029273   -0.875808   -0.691349
     22          1           0        4.520474    0.439072    0.376200
 ---------------------------------------------------------------------

 The electronic state is 1-A.
 Alpha  occ. eigenvalues --  -20.53773 -20.51390 -15.59798 -15.57622 -11.35823
 Alpha  occ. eigenvalues --  -11.34270 -11.28790 -11.26694 -11.22515 -11.22325
 Alpha  occ. eigenvalues --   -1.40831  -1.38162  -1.24596  -1.23292  -1.05760
 Alpha  occ. eigenvalues --   -0.98891  -0.96095  -0.89429  -0.81002  -0.77100
 Alpha  occ. eigenvalues --   -0.73219  -0.67966  -0.66256  -0.65345  -0.63164
 Alpha  occ. eigenvalues --   -0.61802  -0.59769  -0.58592  -0.56700  -0.56214
 Alpha  occ. eigenvalues --   -0.55897  -0.54952  -0.53068  -0.52410  -0.49746
 Alpha  occ. eigenvalues --   -0.43179  -0.40813  -0.40386  -0.38239
 Alpha virt. eigenvalues --    0.18572   0.20770   0.21627   0.24777   0.25764
 Alpha virt. eigenvalues --    0.28205   0.28927   0.30224   0.31183   0.31800
 Alpha virt. eigenvalues --    0.32865   0.33204   0.34794   0.36894   0.37912

 Mulliken atomic charges:
              1
     1  H    0.208699
     2  C   -0.581220
     3  H    0.177254
     4  H    0.197674
     5  C    0.762690
     6  O   -0.621020
     7  N   -0.846933
     8  H    0.427719
     9  C    0.003064
    10  H    0.208802
    11  C   -0.522002
    12  H    0.173950
    13  H    0.139832
    14  H    0.253772
    15  C    0.773269
    16  O   -0.634867
    17  N   -0.804741
    18  H    0.397056
    19  C   -0.269967
    20  H    0.199907
    21  H    0.186428
    22  H    0.170635
 Sum of Mulliken atomic charges =   0.00000

 Dipole moment (field-independent basis, Debye):
    X=              3.4228    Y=              0.5253    Z=              0.4799  Tot=              3.4960
 Quadrupole moment (field-independent basis, Debye-Ang):
   XX=            -57.4298   YY=            -63.5632   ZZ=            -59.9672
   XY=             14.3393   XZ=             -2.3198   YZ=             -0.5473

 Normal termination of Gaussian 09 at Fri Feb 10 04:47:18 2017.
