 Gaussian 09, Revision A.02,
 Gaussian 09:  EM64L-G09RevA.02 11-Jun-2009

 -------------------------------------------
 # HF/6-31G* Opt=(ModRedundant) geom=nocrowd
 -------------------------------------------

 ------------------
 Phi Psi fixed scan
 ------------------
 Symbolic Z-matrix:
 Charge =  0 Multiplicity = 1

 SCF Done:  E(RHF) =  -492.835828398     A.U. after   15 cycles
 SCF Done:  E(RHF) =  -492.843953120     A.U. after   14 cycles
 SCF Done:  E(RHF) =  -492.846902149     A.U. after   13 cycles
 SCF Done:  E(RHF) =  -492.847759066     A.U. after   13 cycles
 SCF Done:  E(RHF) =  -492.849193026     A.U. after   13 cycles
 SCF Done:  E(RHF) =  -492.849764747     A.U. after   16 cycles
 SCF Done:  E(RHF) =  -492.849833459     A.U. after   12 cycles
 SCF Done:  E(RHF) =  -492.849916297     A.U. after   12 cycles
 SCF Done:  E(RHF) =  -492.849970672     A.U. after   11 cycles
 SCF Done:  E(RHF) =  -492.850083617     A.U. after   11 cycles
 SCF Done:  E(RHF) =  -492.850496216     A.U. after   13 cycles
 SCF Done:  E(RHF) =  -492.850520508     A.U. after   12 cycles
 SCF Done:  E(RHF) =  -492.850531819     A.U. after   11 cycles
 SCF Done:  E(RHF) =  -492.850533451     A.U. after   10 cycles
 SCF Done:  E(RHF) =  -492.850535508     A.U. after   10 cycles
 SCF Done:  E(RHF) =  -492.850535716     A.U. after    9 cycles
 SCF Done:  E(RHF) =  -492.850535784     A.U. after    8 cycles
 SCF Done:  E(RHF) =  -492.850535843     A.U. after    8 cycles
 SCF Done:  E(RHF) =  -492.850535927     A.U. after    8 cycles
 SCF Done:  E(RHF) =  -492.850535994     A.U. after    8 cycles
 Optimization completed.
    -- Stationary point found.

                         Standard orientation:
 ---------------------------------------------------------------------
 Center     Atomic      Atomic             Coordinates (Angstroms)
 Number     Number       Type             X           Y           Z
 ---------------------------------------------------------------------
      1          1           0       -3.880408   -1.473455    0.363485
      2          6           0       -2.973253   -1.508143   -0.221745
      3          1           0       -3.243669   -1.596459   -1.269922
      4          1           0       -2.392759   -2.381433    0.053777
      5          6           0       -2.207517   -0.216341   -0.010969
      6          8           0       -2.750917    0.779178    0.371148
      7          7           0       -0.876849   -0.303907   -0.304521
      8          1           0       -0.610639   -1.116572   -0.815763
      9          6           0        0.062435    0.809582   -0.398949
     10          1           0       -0.046990    1.322314   -1.347201
     11          6           0       -0.067911    1.832859    0.737956
     12          1           0       -0.008480    1.343282    1.704578
     13          1           0        0.748649    2.539962    0.654770
     14          1           0       -1.005271    2.360158    0.682726
     15          6           0        1.499893    0.287536   -0.375247
     16          8           0        2.371851    0.893578   -0.934094
     17          7           0        1.722296   -0.854510    0.313882
     18          1           0        0.996964   -1.180974    0.910348
     19          6           0        3.071287   -1.326266    0.550021
     20          1           0        3.620035   -1.329265   -0.379724
     21          1           0        3.602889   -0.699927    1.258626
     22          1           0        3.024462   -2.336117    0.935937
 ---------------------------------------------------------------------

 The electronic state is 1-A.
 Alpha  occ. eigenvalues --  -20.53295 -20.52734 -15.59655 -15.59162 -11.35882
 Alpha  occ. eigenvalues --  -11.34864 -11.28370 -11.26248 -11.24027 -11.21755
 Alpha  occ. eigenvalues --   -1.40208  -1.39606  -1.25579  -1.22948  -1.05989
 Alpha  occ. eigenvalues --   -0.99692  -0.96297  -0.88570  -0.79803  -0.77941
 Alpha  occ. eigenvalues --   -0.73587  -0.69034  -0.67416  -0.63416  -0.63168
 Alpha  occ. eigenvalues --   -0.62563  -0.60270  -0.59782  -0.57271  -0.56097
 Alpha  occ. eigenvalues --   -0.55872  -0.54212  -0.53178  -0.51859  -0.50395
 Alpha  occ. eigenvalues --   -0.43461  -0.41557  -0.40178  -0.39352
 Alpha virt. eigenvalues --    0.18627   0.19581   0.21063   0.24004   0.26920
 Alpha virt. eigenvalues --    0.27221   0.28461   0.29491   0.29866   0.31762
 Alpha virt. eigenvalues --    0.32855   0.33469   0.33891   0.36142   0.36634

 Mulliken atomic charges:
              1
     1  H    0.218651
     2  C   -0.591066
     3  H    0.199162
     4  H    0.175713
     5  C    0.754460
     6  O   -0.589828
     7  N   -0.852600
     8  H    0.386300
     9  C    0.001746
    10  H    0.217139
    11  C   -0.507175
    12  H    0.160370
    13  H    0.191417
    14  H    0.233412
    15  C    0.731045
    16  O   -0.611426
    17  N   -0.789187
    18  H    0.393309
    19  C   -0.275845
    20  H    0.206797
    21  H    0.178818
    22  H    0.168788
 Sum of Mulliken atomic charges =   0.00000

 Dipole moment (field-independent basis, Debye):
    X=             -0.1847    Y=             -4.6403    Z=              0.7684  Tot=              4.7071
 Quadrupole moment (field-independent basis, Debye-Ang):
   XX=            -70.8790   YY=            -58.3270   ZZ=            -60.0847
   XY=              0.9883   XZ=              8.9843   YZ=              0.6619

 Normal termination of Gaussian 09 at Fri Feb 10 05:31:17 2017.
