 Gaussian 09, Revision A.02,
 Gaussian 09:  EM64L-G09RevA.02 11-Jun-2009

 -------------------------------------------
 # HF/6-31G* Opt=(ModRedundant) geom=nocrowd
 -------------------------------------------

 ------------------
 Phi Psi fixed scan
 ------------------
 Symbolic Z-matrix:
 Charge =  0 Multiplicity = 1

 SCF Done:  E(RHF) =  -492.831263388     A.U. after   15 cycles
 SCF Done:  E(RHF) =  -492.845804155     A.U. after   15 cycles
 SCF Done:  E(RHF) =  -492.848156092     A.U. after   13 cycles
 SCF Done:  E(RHF) =  -492.848622557     A.U. after   13 cycles
 SCF Done:  E(RHF) =  -492.849091323     A.U. after   13 cycles
 SCF Done:  E(RHF) =  -492.849256984     A.U. after   12 cycles
 SCF Done:  E(RHF) =  -492.849257246     A.U. after   12 cycles
 SCF Done:  E(RHF) =  -492.849363453     A.U. after   12 cycles
 SCF Done:  E(RHF) =  -492.849368646     A.U. after   10 cycles
 SCF Done:  E(RHF) =  -492.849373192     A.U. after    9 cycles
 SCF Done:  E(RHF) =  -492.849602775     A.U. after   13 cycles
 SCF Done:  E(RHF) =  -492.849680926     A.U. after   11 cycles
 SCF Done:  E(RHF) =  -492.849691868     A.U. after   11 cycles
 SCF Done:  E(RHF) =  -492.849710061     A.U. after   10 cycles
 SCF Done:  E(RHF) =  -492.849745848     A.U. after   11 cycles
 SCF Done:  E(RHF) =  -492.849771126     A.U. after   11 cycles
 SCF Done:  E(RHF) =  -492.849777658     A.U. after   11 cycles
 SCF Done:  E(RHF) =  -492.849779792     A.U. after   10 cycles
 SCF Done:  E(RHF) =  -492.849781030     A.U. after   10 cycles
 SCF Done:  E(RHF) =  -492.849781083     A.U. after    8 cycles
 Optimization completed.
    -- Stationary point found.

                         Standard orientation:
 ---------------------------------------------------------------------
 Center     Atomic      Atomic             Coordinates (Angstroms)
 Number     Number       Type             X           Y           Z
 ---------------------------------------------------------------------
      1          1           0       -3.232305   -1.251312    1.621319
      2          6           0       -3.084921   -1.318672    0.548772
      3          1           0       -4.056136   -1.262752    0.076103
      4          1           0       -2.625189   -2.273086    0.322878
      5          6           0       -2.261633   -0.125900    0.103043
      6          8           0       -2.751651    0.968702    0.036293
      7          7           0       -0.963288   -0.404124   -0.164832
      8          1           0       -0.709151   -1.361857   -0.259124
      9          6           0        0.055431    0.519692   -0.649995
     10          1           0       -0.021417    0.615415   -1.729421
     11          6           0       -0.024781    1.913457   -0.029708
     12          1           0       -0.011872    1.867049    1.054546
     13          1           0        0.814633    2.511304   -0.372084
     14          1           0       -0.936177    2.406018   -0.322389
     15          6           0        1.375108   -0.227120   -0.401029
     16          8           0        1.532474   -1.312688   -0.901843
     17          7           0        2.292725    0.327336    0.404241
     18          1           0        2.108351    1.197559    0.840871
     19          6           0        3.533247   -0.357634    0.705697
     20          1           0        4.063411   -0.602289   -0.204599
     21          1           0        4.148697    0.295630    1.309059
     22          1           0        3.349806   -1.275209    1.250702
 ---------------------------------------------------------------------

 The electronic state is 1-A.
 Alpha  occ. eigenvalues --  -20.52929 -20.51836 -15.59727 -15.58510 -11.35290
 Alpha  occ. eigenvalues --  -11.34795 -11.28614 -11.26559 -11.22947 -11.22373
 Alpha  occ. eigenvalues --   -1.40140  -1.38644  -1.24406  -1.23648  -1.05870
 Alpha  occ. eigenvalues --   -0.99138  -0.96085  -0.89711  -0.80571  -0.77352
 Alpha  occ. eigenvalues --   -0.73009  -0.68739  -0.66452  -0.65077  -0.62808
 Alpha  occ. eigenvalues --   -0.61899  -0.59279  -0.58848  -0.56741  -0.56336
 Alpha  occ. eigenvalues --   -0.55828  -0.54468  -0.53648  -0.52470  -0.50233
 Alpha  occ. eigenvalues --   -0.42986  -0.41153  -0.39798  -0.38612
 Alpha virt. eigenvalues --    0.18600   0.20900   0.22010   0.23777   0.25810
 Alpha virt. eigenvalues --    0.27470   0.29199   0.29740   0.30603   0.32575
 Alpha virt. eigenvalues --    0.33290   0.33372   0.34009   0.36037   0.36971

 Mulliken atomic charges:
              1
     1  H    0.202923
     2  C   -0.576017
     3  H    0.208217
     4  H    0.171444
     5  C    0.758394
     6  O   -0.613576
     7  N   -0.839845
     8  H    0.411437
     9  C    0.030503
    10  H    0.207277
    11  C   -0.534551
    12  H    0.167267
    13  H    0.157525
    14  H    0.247725
    15  C    0.745417
    16  O   -0.632442
    17  N   -0.802927
    18  H    0.405203
    19  C   -0.270046
    20  H    0.197460
    21  H    0.169819
    22  H    0.188793
 Sum of Mulliken atomic charges =   0.00000

 Dipole moment (field-independent basis, Debye):
    X=              2.4483    Y=              0.2294    Z=              1.9132  Tot=              3.1156
 Quadrupole moment (field-independent basis, Debye-Ang):
   XX=            -60.6463   YY=            -62.1910   ZZ=            -60.0280
   XY=             13.6310   XZ=              4.3505   YZ=             -2.6449

 Normal termination of Gaussian 09 at Fri Feb 10 05:09:39 2017.
