 Gaussian 09, Revision A.02,
 Gaussian 09:  EM64L-G09RevA.02 11-Jun-2009

 -------------------------------------------
 # HF/6-31G* Opt=(ModRedundant) geom=nocrowd
 -------------------------------------------

 ------------------
 Phi Psi fixed scan
 ------------------
 Symbolic Z-matrix:
 Charge =  0 Multiplicity = 1

 SCF Done:  E(RHF) =  -492.833823583     A.U. after   15 cycles
 SCF Done:  E(RHF) =  -492.843555808     A.U. after   14 cycles
 SCF Done:  E(RHF) =  -492.846193515     A.U. after   13 cycles
 SCF Done:  E(RHF) =  -492.846402628     A.U. after   13 cycles
 SCF Done:  E(RHF) =  -492.847335272     A.U. after   12 cycles
 SCF Done:  E(RHF) =  -492.847645000     A.U. after   13 cycles
 SCF Done:  E(RHF) =  -492.847900722     A.U. after   13 cycles
 SCF Done:  E(RHF) =  -492.848043668     A.U. after   13 cycles
 SCF Done:  E(RHF) =  -492.848228755     A.U. after   12 cycles
 SCF Done:  E(RHF) =  -492.848286433     A.U. after   12 cycles
 SCF Done:  E(RHF) =  -492.848558108     A.U. after   11 cycles
 SCF Done:  E(RHF) =  -492.848561215     A.U. after   11 cycles
 SCF Done:  E(RHF) =  -492.848562554     A.U. after   11 cycles
 SCF Done:  E(RHF) =  -492.848563651     A.U. after   11 cycles
 SCF Done:  E(RHF) =  -492.848564209     A.U. after   11 cycles
 SCF Done:  E(RHF) =  -492.848564630     A.U. after   11 cycles
 SCF Done:  E(RHF) =  -492.848564654     A.U. after    9 cycles
 SCF Done:  E(RHF) =  -492.848564799     A.U. after   10 cycles
 SCF Done:  E(RHF) =  -492.848564793     A.U. after    8 cycles
 SCF Done:  E(RHF) =  -492.848564799     A.U. after    8 cycles
 Optimization completed.
    -- Stationary point found.

                         Standard orientation:
 ---------------------------------------------------------------------
 Center     Atomic      Atomic             Coordinates (Angstroms)
 Number     Number       Type             X           Y           Z
 ---------------------------------------------------------------------
      1          1           0       -3.918797   -1.521555    0.354859
      2          6           0       -2.900732   -1.433744    0.704422
      3          1           0       -2.409703   -2.398960    0.647663
      4          1           0       -2.914884   -1.121733    1.744665
      5          6           0       -2.185707   -0.387908   -0.125273
      6          8           0       -2.776100    0.411855   -0.792274
      7          7           0       -0.820858   -0.455337   -0.075051
      8          1           0       -0.466279   -1.034140    0.655223
      9          6           0        0.046567    0.672883   -0.438359
     10          1           0        0.092674    0.726261   -1.520154
     11          6           0       -0.400081    2.023787    0.115460
     12          1           0       -0.457787    1.989247    1.195748
     13          1           0        0.328385    2.780934   -0.151758
     14          1           0       -1.360201    2.301274   -0.290433
     15          6           0        1.436015    0.322198    0.111600
     16          8           0        1.880049    0.817202    1.109978
     17          7           0        2.102787   -0.615160   -0.592272
     18          1           0        1.670706   -1.012783   -1.393610
     19          6           0        3.404756   -1.094872   -0.179806
     20          1           0        3.351167   -1.616541    0.768356
     21          1           0        3.777292   -1.774424   -0.934214
     22          1           0        4.097427   -0.270625   -0.074977
 ---------------------------------------------------------------------

 The electronic state is 1-A.
 Alpha  occ. eigenvalues --  -20.53321 -20.53047 -15.59384 -15.59195 -11.35322
 Alpha  occ. eigenvalues --  -11.35157 -11.28291 -11.26527 -11.23663 -11.20585
 Alpha  occ. eigenvalues --   -1.40327  -1.39663  -1.24953  -1.23266  -1.05389
 Alpha  occ. eigenvalues --   -0.99317  -0.96770  -0.87791  -0.79696  -0.78419
 Alpha  occ. eigenvalues --   -0.73258  -0.67209  -0.66820  -0.65179  -0.62905
 Alpha  occ. eigenvalues --   -0.62444  -0.60676  -0.59074  -0.57183  -0.56320
 Alpha  occ. eigenvalues --   -0.55712  -0.53666  -0.52539  -0.51699  -0.49995
 Alpha  occ. eigenvalues --   -0.43261  -0.41579  -0.40689  -0.39006
 Alpha virt. eigenvalues --    0.18420   0.20024   0.21654   0.22263   0.25827
 Alpha virt. eigenvalues --    0.27603   0.28251   0.30354   0.30672   0.31096
 Alpha virt. eigenvalues --    0.33020   0.33108   0.34187   0.36193   0.37370

 Mulliken atomic charges:
              1
     1  H    0.217364
     2  C   -0.593909
     3  H    0.182163
     4  H    0.197606
     5  C    0.751027
     6  O   -0.591788
     7  N   -0.817794
     8  H    0.385919
     9  C   -0.005009
    10  H    0.196796
    11  C   -0.499208
    12  H    0.180432
    13  H    0.170387
    14  H    0.217591
    15  C    0.719097
    16  O   -0.598056
    17  N   -0.788750
    18  H    0.395105
    19  C   -0.269031
    20  H    0.182583
    21  H    0.170251
    22  H    0.197223
 Sum of Mulliken atomic charges =   0.00000

 Dipole moment (field-independent basis, Debye):
    X=              1.5751    Y=             -3.8509    Z=             -0.6215  Tot=              4.2067
 Quadrupole moment (field-independent basis, Debye-Ang):
   XX=            -65.1722   YY=            -58.0553   ZZ=            -61.8847
   XY=             -0.2256   XZ=            -12.1775   YZ=             -1.7730

 Normal termination of Gaussian 09 at Fri Feb 10 04:12:53 2017.
