 Gaussian 09, Revision A.02,
 Gaussian 09:  EM64L-G09RevA.02 11-Jun-2009

 -------------------------------------------
 # HF/6-31G* Opt=(ModRedundant) geom=nocrowd
 -------------------------------------------

 ------------------
 Phi Psi fixed scan
 ------------------
 Symbolic Z-matrix:
 Charge =  0 Multiplicity = 1

 SCF Done:  E(RHF) =  -492.831931722     A.U. after   15 cycles
 SCF Done:  E(RHF) =  -492.841195233     A.U. after   14 cycles
 SCF Done:  E(RHF) =  -492.844511271     A.U. after   13 cycles
 SCF Done:  E(RHF) =  -492.846053957     A.U. after   13 cycles
 SCF Done:  E(RHF) =  -492.847353200     A.U. after   14 cycles
 SCF Done:  E(RHF) =  -492.848180244     A.U. after   13 cycles
 SCF Done:  E(RHF) =  -492.848448092     A.U. after   13 cycles
 SCF Done:  E(RHF) =  -492.848510894     A.U. after   12 cycles
 SCF Done:  E(RHF) =  -492.848610149     A.U. after   12 cycles
 SCF Done:  E(RHF) =  -492.848711842     A.U. after   12 cycles
 SCF Done:  E(RHF) =  -492.848884849     A.U. after   11 cycles
 SCF Done:  E(RHF) =  -492.848987798     A.U. after   12 cycles
 SCF Done:  E(RHF) =  -492.849106966     A.U. after   12 cycles
 SCF Done:  E(RHF) =  -492.849176378     A.U. after   12 cycles
 SCF Done:  E(RHF) =  -492.849184476     A.U. after   11 cycles
 SCF Done:  E(RHF) =  -492.849189218     A.U. after   10 cycles
 SCF Done:  E(RHF) =  -492.849193864     A.U. after   10 cycles
 SCF Done:  E(RHF) =  -492.849198983     A.U. after   11 cycles
 SCF Done:  E(RHF) =  -492.849200251     A.U. after   10 cycles
 SCF Done:  E(RHF) =  -492.849200342     A.U. after    8 cycles
 Optimization completed.
    -- Stationary point found.

                         Standard orientation:
 ---------------------------------------------------------------------
 Center     Atomic      Atomic             Coordinates (Angstroms)
 Number     Number       Type             X           Y           Z
 ---------------------------------------------------------------------
      1          1           0       -3.887149   -1.542251    0.352649
      2          6           0       -2.856131   -1.475133    0.666990
      3          1           0       -2.365725   -2.431065    0.519415
      4          1           0       -2.829819   -1.241458    1.727384
      5          6           0       -2.177400   -0.366461   -0.110486
      6          8           0       -2.797276    0.477432   -0.689982
      7          7           0       -0.810950   -0.433221   -0.120436
      8          1           0       -0.427548   -1.068517    0.544828
      9          6           0        0.045592    0.721125   -0.420178
     10          1           0        0.063949    0.857298   -1.497282
     11          6           0       -0.396195    2.025602    0.240354
     12          1           0       -0.430697    1.913228    1.318294
     13          1           0        0.319720    2.803824    0.013443
     14          1           0       -1.370016    2.319007   -0.118454
     15          6           0        1.472645    0.373096    0.027512
     16          8           0        2.158245    1.137091    0.643910
     17          7           0        1.899534   -0.865466   -0.324853
     18          1           0        1.365996   -1.364025   -1.000700
     19          6           0        3.274681   -1.267750   -0.109280
     20          1           0        3.556023   -1.063572    0.912986
     21          1           0        3.358366   -2.330825   -0.292375
     22          1           0        3.959921   -0.739893   -0.764047
 ---------------------------------------------------------------------

 The electronic state is 1-A.
 Alpha  occ. eigenvalues --  -20.53577 -20.53190 -15.59389 -15.59265 -11.35469
 Alpha  occ. eigenvalues --  -11.35386 -11.28436 -11.26475 -11.23828 -11.20549
 Alpha  occ. eigenvalues --   -1.40543  -1.39842  -1.25446  -1.22964  -1.05442
 Alpha  occ. eigenvalues --   -0.99346  -0.96783  -0.87770  -0.79661  -0.78444
 Alpha  occ. eigenvalues --   -0.73519  -0.67347  -0.66671  -0.65395  -0.62986
 Alpha  occ. eigenvalues --   -0.62648  -0.60588  -0.59338  -0.57396  -0.56187
 Alpha  occ. eigenvalues --   -0.55589  -0.53788  -0.52579  -0.51830  -0.49968
 Alpha  occ. eigenvalues --   -0.43475  -0.41871  -0.40344  -0.39599
 Alpha virt. eigenvalues --    0.17963   0.19755   0.21977   0.23350   0.26671
 Alpha virt. eigenvalues --    0.27324   0.28327   0.29904   0.30216   0.30994
 Alpha virt. eigenvalues --    0.33009   0.33438   0.33625   0.35707   0.37052

 Mulliken atomic charges:
              1
     1  H    0.218204
     2  C   -0.593467
     3  H    0.180973
     4  H    0.196394
     5  C    0.753232
     6  O   -0.589263
     7  N   -0.833420
     8  H    0.385923
     9  C   -0.015159
    10  H    0.210536
    11  C   -0.497032
    12  H    0.163277
    13  H    0.188776
    14  H    0.218217
    15  C    0.728871
    16  O   -0.594851
    17  N   -0.793276
    18  H    0.393049
    19  C   -0.275625
    20  H    0.205113
    21  H    0.170296
    22  H    0.179231
 Sum of Mulliken atomic charges =   0.00000

 Dipole moment (field-independent basis, Debye):
    X=              1.0768    Y=             -4.5411    Z=              0.0371  Tot=              4.6671
 Quadrupole moment (field-independent basis, Debye-Ang):
   XX=            -68.5084   YY=            -58.8470   ZZ=            -60.1087
   XY=             -1.6561   XZ=             -9.6505   YZ=             -1.4047

 Normal termination of Gaussian 09 at Fri Feb 10 04:05:10 2017.
