 Gaussian 09, Revision A.02,
 Gaussian 09:  EM64L-G09RevA.02 11-Jun-2009

 -------------------------------------------
 # HF/6-31G* Opt=(ModRedundant) geom=nocrowd
 -------------------------------------------

 ------------------
 Phi Psi fixed scan
 ------------------
 Symbolic Z-matrix:
 Charge =  0 Multiplicity = 1

 SCF Done:  E(RHF) =  -492.837330047     A.U. after   15 cycles
 SCF Done:  E(RHF) =  -492.844977274     A.U. after   14 cycles
 SCF Done:  E(RHF) =  -492.847551039     A.U. after   13 cycles
 SCF Done:  E(RHF) =  -492.847834538     A.U. after   13 cycles
 SCF Done:  E(RHF) =  -492.849183668     A.U. after   13 cycles
 SCF Done:  E(RHF) =  -492.849527210     A.U. after   16 cycles
 SCF Done:  E(RHF) =  -492.849630478     A.U. after   16 cycles
 SCF Done:  E(RHF) =  -492.849665813     A.U. after   12 cycles
 SCF Done:  E(RHF) =  -492.849706248     A.U. after   11 cycles
 SCF Done:  E(RHF) =  -492.849747687     A.U. after   11 cycles
 SCF Done:  E(RHF) =  -492.850052981     A.U. after   12 cycles
 SCF Done:  E(RHF) =  -492.850064387     A.U. after   10 cycles
 SCF Done:  E(RHF) =  -492.850076871     A.U. after   10 cycles
 SCF Done:  E(RHF) =  -492.850099585     A.U. after   12 cycles
 SCF Done:  E(RHF) =  -492.850109446     A.U. after   11 cycles
 SCF Done:  E(RHF) =  -492.850117639     A.U. after   11 cycles
 SCF Done:  E(RHF) =  -492.850127166     A.U. after   11 cycles
 SCF Done:  E(RHF) =  -492.850128805     A.U. after   10 cycles
 SCF Done:  E(RHF) =  -492.850129230     A.U. after    9 cycles
 SCF Done:  E(RHF) =  -492.850129292     A.U. after    8 cycles
 Optimization completed.
    -- Stationary point found.

                         Standard orientation:
 ---------------------------------------------------------------------
 Center     Atomic      Atomic             Coordinates (Angstroms)
 Number     Number       Type             X           Y           Z
 ---------------------------------------------------------------------
      1          1           0        3.870809   -1.479756   -0.388334
      2          6           0        2.986281   -1.497816    0.231400
      3          1           0        3.296540   -1.551736    1.270719
      4          1           0        2.399113   -2.380879    0.005774
      5          6           0        2.210116   -0.214230    0.009921
      6          8           0        2.740567    0.776231   -0.404682
      7          7           0        0.889604   -0.296190    0.336499
      8          1           0        0.619016   -1.112997    0.837637
      9          6           0       -0.058962    0.812140    0.394450
     10          1           0        0.059141    1.362638    1.319568
     11          6           0        0.042614    1.790264   -0.783255
     12          1           0       -0.005439    1.267149   -1.732137
     13          1           0       -0.790104    2.482792   -0.727115
     14          1           0        0.966331    2.343228   -0.749726
     15          6           0       -1.483050    0.254783    0.429272
     16          8           0       -2.307924    0.717670    1.168099
     17          7           0       -1.754070   -0.739815   -0.442859
     18          1           0       -1.055992   -0.988990   -1.104672
     19          6           0       -3.102079   -1.234052   -0.627758
     20          1           0       -3.549941   -1.441731    0.332938
     21          1           0       -3.727181   -0.516318   -1.147927
     22          1           0       -3.061700   -2.149109   -1.203715
 ---------------------------------------------------------------------

 The electronic state is 1-A.
 Alpha  occ. eigenvalues --  -20.53101 -20.52805 -15.59615 -15.59105 -11.35759
 Alpha  occ. eigenvalues --  -11.34808 -11.28332 -11.26300 -11.23934 -11.21996
 Alpha  occ. eigenvalues --   -1.40079  -1.39550  -1.25421  -1.22991  -1.06038
 Alpha  occ. eigenvalues --   -0.99696  -0.96241  -0.88807  -0.79743  -0.78186
 Alpha  occ. eigenvalues --   -0.73458  -0.68903  -0.67293  -0.63623  -0.63066
 Alpha  occ. eigenvalues --   -0.62529  -0.59939  -0.59733  -0.57260  -0.56327
 Alpha  occ. eigenvalues --   -0.55851  -0.54474  -0.53364  -0.51809  -0.50634
 Alpha  occ. eigenvalues --   -0.43396  -0.41216  -0.40302  -0.39082
 Alpha virt. eigenvalues --    0.18834   0.19534   0.21336   0.23453   0.26348
 Alpha virt. eigenvalues --    0.27295   0.28438   0.29479   0.29913   0.31732
 Alpha virt. eigenvalues --    0.32806   0.33684   0.33807   0.35816   0.36744

 Mulliken atomic charges:
              1
     1  H    0.217689
     2  C   -0.590166
     3  H    0.200386
     4  H    0.175133
     5  C    0.754624
     6  O   -0.594249
     7  N   -0.847270
     8  H    0.387836
     9  C   -0.001473
    10  H    0.219402
    11  C   -0.503681
    12  H    0.158764
    13  H    0.183584
    14  H    0.233740
    15  C    0.724331
    16  O   -0.608483
    17  N   -0.783322
    18  H    0.393341
    19  C   -0.272941
    20  H    0.203899
    21  H    0.180359
    22  H    0.168497
 Sum of Mulliken atomic charges =   0.00000

 Dipole moment (field-independent basis, Debye):
    X=              0.0064    Y=             -4.2839    Z=             -1.2316  Tot=              4.4574
 Quadrupole moment (field-independent basis, Debye-Ang):
   XX=            -70.1274   YY=            -57.8796   ZZ=            -61.0208
   XY=             -2.0244   XZ=             10.3269   YZ=             -0.7339

 Normal termination of Gaussian 09 at Fri Feb 10 05:28:33 2017.
