 Gaussian 09, Revision A.02,
 Gaussian 09:  EM64L-G09RevA.02 11-Jun-2009

 -------------------------------------------
 # HF/6-31G* Opt=(ModRedundant) geom=nocrowd
 -------------------------------------------

 ------------------
 Phi Psi fixed scan
 ------------------
 Symbolic Z-matrix:
 Charge =  0 Multiplicity = 1

 SCF Done:  E(RHF) =  -492.841250322     A.U. after   15 cycles
 SCF Done:  E(RHF) =  -492.849261068     A.U. after   15 cycles
 SCF Done:  E(RHF) =  -492.851515097     A.U. after   13 cycles
 SCF Done:  E(RHF) =  -492.852237813     A.U. after   13 cycles
 SCF Done:  E(RHF) =  -492.853796738     A.U. after   13 cycles
 SCF Done:  E(RHF) =  -492.854754065     A.U. after   13 cycles
 SCF Done:  E(RHF) =  -492.854917504     A.U. after   12 cycles
 SCF Done:  E(RHF) =  -492.854950383     A.U. after   11 cycles
 SCF Done:  E(RHF) =  -492.854959997     A.U. after   11 cycles
 SCF Done:  E(RHF) =  -492.854971150     A.U. after   10 cycles
 SCF Done:  E(RHF) =  -492.855203296     A.U. after   12 cycles
 SCF Done:  E(RHF) =  -492.855193273     A.U. after   11 cycles
 SCF Done:  E(RHF) =  -492.855216702     A.U. after   11 cycles
 SCF Done:  E(RHF) =  -492.855221413     A.U. after   11 cycles
 SCF Done:  E(RHF) =  -492.855223678     A.U. after   10 cycles
 SCF Done:  E(RHF) =  -492.855225675     A.U. after   11 cycles
 SCF Done:  E(RHF) =  -492.855226004     A.U. after    9 cycles
 SCF Done:  E(RHF) =  -492.855226276     A.U. after    9 cycles
 SCF Done:  E(RHF) =  -492.855226282     A.U. after    8 cycles
 SCF Done:  E(RHF) =  -492.855226309     A.U. after    8 cycles
 Optimization completed.
    -- Stationary point found.

                         Standard orientation:
 ---------------------------------------------------------------------
 Center     Atomic      Atomic             Coordinates (Angstroms)
 Number     Number       Type             X           Y           Z
 ---------------------------------------------------------------------
      1          1           0       -4.212830   -1.038638   -0.261827
      2          6           0       -3.210388   -1.275079    0.063564
      3          1           0       -2.877500   -2.192671   -0.408030
      4          1           0       -3.219946   -1.432106    1.138237
      5          6           0       -2.298845   -0.112007   -0.265717
      6          8           0       -2.722466    0.983368   -0.510593
      7          7           0       -0.971954   -0.418754   -0.288764
      8          1           0       -0.717238   -1.279615    0.146720
      9          6           0        0.071212    0.590227   -0.203665
     10          1           0        0.150218    1.092159   -1.160780
     11          6           0       -0.140247    1.637300    0.900723
     12          1           0       -0.221657    1.147293    1.864204
     13          1           0        0.708234    2.314762    0.933886
     14          1           0       -1.034576    2.211107    0.714523
     15          6           0        1.362251   -0.159424    0.117494
     16          8           0        1.383907   -1.021814    0.957844
     17          7           0        2.447306    0.194904   -0.589703
     18          1           0        2.367604    0.909489   -1.274333
     19          6           0        3.747560   -0.388833   -0.330502
     20          1           0        3.702138   -1.465940   -0.416559
     21          1           0        4.448493   -0.005377   -1.059210
     22          1           0        4.098813   -0.139049    0.663036
 ---------------------------------------------------------------------

 The electronic state is 1-A.
 Alpha  occ. eigenvalues --  -20.53387 -20.52241 -15.59916 -15.57886 -11.35450
 Alpha  occ. eigenvalues --  -11.34523 -11.28243 -11.26690 -11.22852 -11.21767
 Alpha  occ. eigenvalues --   -1.40461  -1.38866  -1.24561  -1.23408  -1.05510
 Alpha  occ. eigenvalues --   -0.99094  -0.96580  -0.88354  -0.80491  -0.77580
 Alpha  occ. eigenvalues --   -0.73158  -0.67419  -0.66325  -0.64124  -0.63529
 Alpha  occ. eigenvalues --   -0.62133  -0.60509  -0.58495  -0.56653  -0.56394
 Alpha  occ. eigenvalues --   -0.56274  -0.54735  -0.52288  -0.51982  -0.49894
 Alpha  occ. eigenvalues --   -0.42906  -0.41571  -0.40152  -0.38893
 Alpha virt. eigenvalues --    0.18884   0.20485   0.21124   0.23822   0.25828
 Alpha virt. eigenvalues --    0.28049   0.29986   0.30081   0.31170   0.31399
 Alpha virt. eigenvalues --    0.32174   0.33365   0.34036   0.35919   0.37217

 Mulliken atomic charges:
              1
     1  H    0.212629
     2  C   -0.590743
     3  H    0.185931
     4  H    0.195988
     5  C    0.748355
     6  O   -0.605427
     7  N   -0.812999
     8  H    0.406680
     9  C    0.000862
    10  H    0.193323
    11  C   -0.519506
    12  H    0.184795
    13  H    0.159655
    14  H    0.231523
    15  C    0.755794
    16  O   -0.630531
    17  N   -0.794633
    18  H    0.392338
    19  C   -0.272620
    20  H    0.198046
    21  H    0.171529
    22  H    0.189011
 Sum of Mulliken atomic charges =   0.00000

 Dipole moment (field-independent basis, Debye):
    X=              2.9362    Y=             -0.2872    Z=             -1.2213  Tot=              3.1930
 Quadrupole moment (field-independent basis, Debye-Ang):
   XX=            -56.7149   YY=            -61.4011   ZZ=            -61.7284
   XY=             12.1399   XZ=             -8.6339   YZ=              1.7720

 Normal termination of Gaussian 09 at Fri Feb 10 04:31:45 2017.
