 Gaussian 09, Revision A.02,
 Gaussian 09:  EM64L-G09RevA.02 11-Jun-2009

 -------------------------------------------
 # HF/6-31G* Opt=(ModRedundant) geom=nocrowd
 -------------------------------------------

 ------------------
 Phi Psi fixed scan
 ------------------
 Symbolic Z-matrix:
 Charge =  0 Multiplicity = 1

 SCF Done:  E(RHF) =  -492.843694423     A.U. after   15 cycles
 SCF Done:  E(RHF) =  -492.851536101     A.U. after   15 cycles
 SCF Done:  E(RHF) =  -492.853873281     A.U. after   12 cycles
 SCF Done:  E(RHF) =  -492.854320348     A.U. after   13 cycles
 SCF Done:  E(RHF) =  -492.855004412     A.U. after   12 cycles
 SCF Done:  E(RHF) =  -492.855111963     A.U. after   12 cycles
 SCF Done:  E(RHF) =  -492.855130694     A.U. after   12 cycles
 SCF Done:  E(RHF) =  -492.855148240     A.U. after   10 cycles
 SCF Done:  E(RHF) =  -492.855158771     A.U. after   10 cycles
 SCF Done:  E(RHF) =  -492.855171829     A.U. after   11 cycles
 SCF Done:  E(RHF) =  -492.855599590     A.U. after   13 cycles
 SCF Done:  E(RHF) =  -492.855663633     A.U. after   12 cycles
 SCF Done:  E(RHF) =  -492.855661339     A.U. after   11 cycles
 SCF Done:  E(RHF) =  -492.855671816     A.U. after   11 cycles
 SCF Done:  E(RHF) =  -492.855674336     A.U. after   10 cycles
 SCF Done:  E(RHF) =  -492.855677167     A.U. after   10 cycles
 SCF Done:  E(RHF) =  -492.855677668     A.U. after    8 cycles
 SCF Done:  E(RHF) =  -492.855678080     A.U. after    9 cycles
 SCF Done:  E(RHF) =  -492.855678161     A.U. after    8 cycles
 SCF Done:  E(RHF) =  -492.855678171     A.U. after    7 cycles
 Optimization completed.
    -- Stationary point found.

                         Standard orientation:
 ---------------------------------------------------------------------
 Center     Atomic      Atomic             Coordinates (Angstroms)
 Number     Number       Type             X           Y           Z
 ---------------------------------------------------------------------
      1          1           0       -4.248183   -0.980345   -0.108776
      2          6           0       -3.255157   -1.192843    0.260344
      3          1           0       -2.917978   -2.148618   -0.123449
      4          1           0       -3.298152   -1.257458    1.343379
      5          6           0       -2.334834   -0.053980   -0.128780
      6          8           0       -2.753255    1.057563   -0.316483
      7          7           0       -1.032599   -0.398486   -0.247503
      8          1           0       -0.760645   -1.328509   -0.015031
      9          6           0        0.077156    0.522091   -0.368351
     10          1           0        0.131598    0.906845   -1.383212
     11          6           0       -0.006090    1.703468    0.613473
     12          1           0        0.014136    1.342022    1.636469
     13          1           0        0.828634    2.381967    0.478747
     14          1           0       -0.920097    2.251734    0.455590
     15          6           0        1.345906   -0.297102   -0.092981
     16          8           0        1.298669   -1.467387    0.186231
     17          7           0        2.508396    0.377083   -0.155468
     18          1           0        2.509426    1.312156   -0.488991
     19          6           0        3.779959   -0.293926    0.023480
     20          1           0        3.770363   -0.864971    0.940492
     21          1           0        3.996896   -0.967168   -0.797929
     22          1           0        4.558488    0.454507    0.082419
 ---------------------------------------------------------------------

 The electronic state is 1-A.
 Alpha  occ. eigenvalues --  -20.53967 -20.51481 -15.59774 -15.57523 -11.35856
 Alpha  occ. eigenvalues --  -11.34228 -11.28649 -11.26707 -11.22527 -11.22202
 Alpha  occ. eigenvalues --   -1.40935  -1.38234  -1.24622  -1.23270  -1.05698
 Alpha  occ. eigenvalues --   -0.98922  -0.96134  -0.89112  -0.80862  -0.77224
 Alpha  occ. eigenvalues --   -0.73177  -0.67855  -0.66184  -0.65063  -0.63419
 Alpha  occ. eigenvalues --   -0.61807  -0.59941  -0.58553  -0.56603  -0.56282
 Alpha  occ. eigenvalues --   -0.56022  -0.54953  -0.52926  -0.52292  -0.49684
 Alpha  occ. eigenvalues --   -0.43175  -0.40979  -0.40517  -0.38231
 Alpha virt. eigenvalues --    0.18531   0.20678   0.21528   0.24670   0.25832
 Alpha virt. eigenvalues --    0.28522   0.28881   0.30420   0.31107   0.31520
 Alpha virt. eigenvalues --    0.32728   0.33414   0.34787   0.35845   0.37477

 Mulliken atomic charges:
              1
     1  H    0.209533
     2  C   -0.584122
     3  H    0.179733
     4  H    0.196716
     5  C    0.759937
     6  O   -0.618836
     7  N   -0.841794
     8  H    0.426268
     9  C   -0.004610
    10  H    0.203754
    11  C   -0.511271
    12  H    0.173078
    13  H    0.146606
    14  H    0.245519
    15  C    0.771827
    16  O   -0.631528
    17  N   -0.798392
    18  H    0.391052
    19  C   -0.271693
    20  H    0.203336
    21  H    0.183159
    22  H    0.171727
 Sum of Mulliken atomic charges =   0.00000

 Dipole moment (field-independent basis, Debye):
    X=              3.3977    Y=              0.3799    Z=             -0.0218  Tot=              3.4189
 Quadrupole moment (field-independent basis, Debye-Ang):
   XX=            -56.8136   YY=            -63.6432   ZZ=            -60.0906
   XY=             14.0461   XZ=             -4.3105   YZ=              0.0694

 Normal termination of Gaussian 09 at Fri Feb 10 04:43:54 2017.
