 Gaussian 09, Revision A.02,
 Gaussian 09:  EM64L-G09RevA.02 11-Jun-2009

 -------------------------------------------
 # HF/6-31G* Opt=(ModRedundant) geom=nocrowd
 -------------------------------------------

 ------------------
 Phi Psi fixed scan
 ------------------
 Symbolic Z-matrix:
 Charge =  0 Multiplicity = 1

 SCF Done:  E(RHF) =  -492.833162857     A.U. after   15 cycles
 SCF Done:  E(RHF) =  -492.847770249     A.U. after   15 cycles
 SCF Done:  E(RHF) =  -492.850086070     A.U. after   13 cycles
 SCF Done:  E(RHF) =  -492.850233572     A.U. after   13 cycles
 SCF Done:  E(RHF) =  -492.850541958     A.U. after   13 cycles
 SCF Done:  E(RHF) =  -492.850670779     A.U. after   12 cycles
 SCF Done:  E(RHF) =  -492.850658136     A.U. after   12 cycles
 SCF Done:  E(RHF) =  -492.850712596     A.U. after   11 cycles
 SCF Done:  E(RHF) =  -492.850715757     A.U. after    9 cycles
 SCF Done:  E(RHF) =  -492.850717350     A.U. after    9 cycles
 SCF Done:  E(RHF) =  -492.851242949     A.U. after   10 cycles
 SCF Done:  E(RHF) =  -492.851247519     A.U. after   11 cycles
 SCF Done:  E(RHF) =  -492.851254638     A.U. after   11 cycles
 SCF Done:  E(RHF) =  -492.851258187     A.U. after   11 cycles
 SCF Done:  E(RHF) =  -492.851260646     A.U. after   10 cycles
 SCF Done:  E(RHF) =  -492.851269673     A.U. after   11 cycles
 SCF Done:  E(RHF) =  -492.851269937     A.U. after    9 cycles
 SCF Done:  E(RHF) =  -492.851270081     A.U. after   10 cycles
 SCF Done:  E(RHF) =  -492.851270105     A.U. after    8 cycles
 SCF Done:  E(RHF) =  -492.851270119     A.U. after    8 cycles
 Optimization completed.
    -- Stationary point found.

                         Standard orientation:
 ---------------------------------------------------------------------
 Center     Atomic      Atomic             Coordinates (Angstroms)
 Number     Number       Type             X           Y           Z
 ---------------------------------------------------------------------
      1          1           0       -3.954017   -0.930517    1.112353
      2          6           0       -3.149923   -1.275742    0.478085
      3          1           0       -3.585894   -1.697744   -0.422162
      4          1           0       -2.591115   -2.053084    0.985394
      5          6           0       -2.290943   -0.086818    0.093512
      6          8           0       -2.763928    1.013128   -0.009545
      7          7           0       -0.994199   -0.392753   -0.142763
      8          1           0       -0.738636   -1.354941   -0.164509
      9          6           0        0.062614    0.499918   -0.593590
     10          1           0        0.014769    0.610772   -1.674781
     11          6           0        0.005218    1.891032    0.037573
     12          1           0        0.078734    1.836196    1.119048
     13          1           0        0.816241    2.503081   -0.345700
     14          1           0       -0.924361    2.375350   -0.207069
     15          6           0        1.360226   -0.278338   -0.317506
     16          8           0        1.421268   -1.445619   -0.614914
     17          7           0        2.389271    0.363924    0.253714
     18          1           0        2.284276    1.302254    0.553532
     19          6           0        3.631942   -0.324412    0.539452
     20          1           0        4.029568   -0.775956   -0.358909
     21          1           0        4.344069    0.395742    0.918768
     22          1           0        3.487336   -1.103265    1.277903
 ---------------------------------------------------------------------

 The electronic state is 1-A.
 Alpha  occ. eigenvalues --  -20.53119 -20.51680 -15.59817 -15.58105 -11.35481
 Alpha  occ. eigenvalues --  -11.34573 -11.28727 -11.26610 -11.22713 -11.22366
 Alpha  occ. eigenvalues --   -1.40329  -1.38431  -1.24481  -1.23490  -1.05870
 Alpha  occ. eigenvalues --   -0.98997  -0.96086  -0.89688  -0.80800  -0.77082
 Alpha  occ. eigenvalues --   -0.73087  -0.68489  -0.66333  -0.65258  -0.62845
 Alpha  occ. eigenvalues --   -0.61879  -0.59424  -0.58743  -0.56733  -0.56136
 Alpha  occ. eigenvalues --   -0.55874  -0.54705  -0.53352  -0.52533  -0.50119
 Alpha  occ. eigenvalues --   -0.43056  -0.40909  -0.40030  -0.38407
 Alpha virt. eigenvalues --    0.18656   0.20955   0.22128   0.24443   0.25824
 Alpha virt. eigenvalues --    0.27840   0.29191   0.29857   0.30502   0.32310
 Alpha virt. eigenvalues --    0.32569   0.33291   0.34893   0.35859   0.36992

 Mulliken atomic charges:
              1
     1  H    0.209876
     2  C   -0.584048
     3  H    0.200254
     4  H    0.177105
     5  C    0.760498
     6  O   -0.616356
     7  N   -0.841647
     8  H    0.418182
     9  C    0.024948
    10  H    0.206906
    11  C   -0.539418
    12  H    0.170477
    13  H    0.151361
    14  H    0.254485
    15  C    0.759489
    16  O   -0.636328
    17  N   -0.808071
    18  H    0.405324
    19  C   -0.270352
    20  H    0.198344
    21  H    0.170059
    22  H    0.188913
 Sum of Mulliken atomic charges =   0.00000

 Dipole moment (field-independent basis, Debye):
    X=              2.8660    Y=              0.4289    Z=              1.2759  Tot=              3.1664
 Quadrupole moment (field-independent basis, Debye-Ang):
   XX=            -59.0820   YY=            -63.0541   ZZ=            -59.7919
   XY=             14.2100   XZ=              2.7155   YZ=             -1.8387

 Normal termination of Gaussian 09 at Fri Feb 10 05:04:34 2017.
