 Gaussian 09, Revision A.02,
 Gaussian 09:  EM64L-G09RevA.02 11-Jun-2009

 -------------------------------------------
 # HF/6-31G* Opt=(ModRedundant) geom=nocrowd
 -------------------------------------------

 ------------------
 Phi Psi fixed scan
 ------------------
 Symbolic Z-matrix:
 Charge =  0 Multiplicity = 1

 SCF Done:  E(RHF) =  -492.830347752     A.U. after   15 cycles
 SCF Done:  E(RHF) =  -492.841227886     A.U. after   16 cycles
 SCF Done:  E(RHF) =  -492.844512819     A.U. after   14 cycles
 SCF Done:  E(RHF) =  -492.846092268     A.U. after   13 cycles
 SCF Done:  E(RHF) =  -492.847541680     A.U. after   13 cycles
 SCF Done:  E(RHF) =  -492.848401028     A.U. after   13 cycles
 SCF Done:  E(RHF) =  -492.848429868     A.U. after   13 cycles
 SCF Done:  E(RHF) =  -492.848698839     A.U. after   11 cycles
 SCF Done:  E(RHF) =  -492.848779954     A.U. after   11 cycles
 SCF Done:  E(RHF) =  -492.848977434     A.U. after   12 cycles
 SCF Done:  E(RHF) =  -492.849461490     A.U. after   13 cycles
 SCF Done:  E(RHF) =  -492.849475162     A.U. after   12 cycles
 SCF Done:  E(RHF) =  -492.849480532     A.U. after   11 cycles
 SCF Done:  E(RHF) =  -492.849482950     A.U. after   10 cycles
 SCF Done:  E(RHF) =  -492.849483593     A.U. after    9 cycles
 SCF Done:  E(RHF) =  -492.849483735     A.U. after    8 cycles
 SCF Done:  E(RHF) =  -492.849483850     A.U. after    8 cycles
 SCF Done:  E(RHF) =  -492.849483955     A.U. after    8 cycles
 SCF Done:  E(RHF) =  -492.849484052     A.U. after    8 cycles
 SCF Done:  E(RHF) =  -492.849484104     A.U. after    8 cycles
 Optimization completed.
    -- Stationary point found.

                         Standard orientation:
 ---------------------------------------------------------------------
 Center     Atomic      Atomic             Coordinates (Angstroms)
 Number     Number       Type             X           Y           Z
 ---------------------------------------------------------------------
      1          1           0       -3.894687   -1.473318    0.353693
      2          6           0       -2.955325   -1.537821   -0.175286
      3          1           0       -3.163481   -1.697366   -1.229387
      4          1           0       -2.386663   -2.385653    0.189934
      5          6           0       -2.207686   -0.229535   -0.003161
      6          8           0       -2.770095    0.775480    0.318875
      7          7           0       -0.864976   -0.322935   -0.252093
      8          1           0       -0.601130   -1.141276   -0.756701
      9          6           0        0.062395    0.794324   -0.410690
     10          1           0       -0.027705    1.227035   -1.401109
     11          6           0       -0.121856    1.904376    0.633145
     12          1           0       -0.086078    1.492734    1.636763
     13          1           0        0.686493    2.614458    0.517606
     14          1           0       -1.065553    2.407338    0.507554
     15          6           0        1.511912    0.311342   -0.306577
     16          8           0        2.401031    1.013581   -0.700839
     17          7           0        1.725448   -0.923841    0.207300
     18          1           0        0.995787   -1.314793    0.758497
     19          6           0        3.077716   -1.377692    0.465770
     20          1           0        3.677243   -1.242859   -0.421644
     21          1           0        3.543626   -0.831214    1.278971
     22          1           0        3.048423   -2.430113    0.715871
 ---------------------------------------------------------------------

 The electronic state is 1-A.
 Alpha  occ. eigenvalues --  -20.53471 -20.52772 -15.59660 -15.59207 -11.35969
 Alpha  occ. eigenvalues --  -11.34939 -11.28432 -11.26195 -11.24084 -11.21422
 Alpha  occ. eigenvalues --   -1.40336  -1.39715  -1.25647  -1.22933  -1.05882
 Alpha  occ. eigenvalues --   -0.99638  -0.96313  -0.88347  -0.79892  -0.77570
 Alpha  occ. eigenvalues --   -0.73634  -0.69180  -0.67489  -0.63520  -0.63135
 Alpha  occ. eigenvalues --   -0.62545  -0.60506  -0.59762  -0.57272  -0.55964
 Alpha  occ. eigenvalues --   -0.55648  -0.53866  -0.52970  -0.51902  -0.50245
 Alpha  occ. eigenvalues --   -0.43507  -0.42049  -0.40000  -0.39581
 Alpha virt. eigenvalues --    0.18434   0.19563   0.20690   0.24381   0.27126
 Alpha virt. eigenvalues --    0.27584   0.28442   0.29681   0.29971   0.31562
 Alpha virt. eigenvalues --    0.32994   0.33283   0.34213   0.35896   0.36884

 Mulliken atomic charges:
              1
     1  H    0.219615
     2  C   -0.592332
     3  H    0.197087
     4  H    0.177214
     5  C    0.753530
     6  O   -0.584718
     7  N   -0.853703
     8  H    0.383914
     9  C    0.000029
    10  H    0.214555
    11  C   -0.507569
    12  H    0.162084
    13  H    0.197761
    14  H    0.229995
    15  C    0.740406
    16  O   -0.611138
    17  N   -0.795632
    18  H    0.392322
    19  C   -0.278032
    20  H    0.207154
    21  H    0.178655
    22  H    0.168802
 Sum of Mulliken atomic charges =   0.00000

 Dipole moment (field-independent basis, Debye):
    X=             -0.2272    Y=             -4.8976    Z=              0.3771  Tot=              4.9173
 Quadrupole moment (field-independent basis, Debye-Ang):
   XX=            -71.2544   YY=            -58.6239   ZZ=            -59.4101
   XY=              0.3466   XZ=              7.3896   YZ=              0.2963

 Normal termination of Gaussian 09 at Fri Feb 10 05:34:02 2017.
