 Gaussian 09, Revision A.02,
 Gaussian 09:  EM64L-G09RevA.02 11-Jun-2009

 -------------------------------------------
 # HF/6-31G* Opt=(ModRedundant) geom=nocrowd
 -------------------------------------------

 ------------------
 Phi Psi fixed scan
 ------------------
 Symbolic Z-matrix:
 Charge =  0 Multiplicity = 1

 SCF Done:  E(RHF) =  -492.838864549     A.U. after   15 cycles
 SCF Done:  E(RHF) =  -492.847071236     A.U. after   14 cycles
 SCF Done:  E(RHF) =  -492.849295072     A.U. after   13 cycles
 SCF Done:  E(RHF) =  -492.849833533     A.U. after   13 cycles
 SCF Done:  E(RHF) =  -492.851351243     A.U. after   13 cycles
 SCF Done:  E(RHF) =  -492.852498951     A.U. after   14 cycles
 SCF Done:  E(RHF) =  -492.852774592     A.U. after   13 cycles
 SCF Done:  E(RHF) =  -492.852878846     A.U. after   12 cycles
 SCF Done:  E(RHF) =  -492.852969290     A.U. after   12 cycles
 SCF Done:  E(RHF) =  -492.852983203     A.U. after   11 cycles
 SCF Done:  E(RHF) =  -492.853225192     A.U. after   11 cycles
 SCF Done:  E(RHF) =  -492.853240876     A.U. after   11 cycles
 SCF Done:  E(RHF) =  -492.853242126     A.U. after   10 cycles
 SCF Done:  E(RHF) =  -492.853242898     A.U. after    9 cycles
 SCF Done:  E(RHF) =  -492.853246396     A.U. after   11 cycles
 SCF Done:  E(RHF) =  -492.853246729     A.U. after   10 cycles
 SCF Done:  E(RHF) =  -492.853247544     A.U. after   11 cycles
 SCF Done:  E(RHF) =  -492.853247697     A.U. after    8 cycles
 SCF Done:  E(RHF) =  -492.853247826     A.U. after    8 cycles
 SCF Done:  E(RHF) =  -492.853247977     A.U. after   10 cycles
 Optimization completed.
    -- Stationary point found.

                         Standard orientation:
 ---------------------------------------------------------------------
 Center     Atomic      Atomic             Coordinates (Angstroms)
 Number     Number       Type             X           Y           Z
 ---------------------------------------------------------------------
      1          1           0       -4.145076   -1.190699   -0.186072
      2          6           0       -3.137393   -1.351704    0.167755
      3          1           0       -2.764003   -2.298953   -0.204664
      4          1           0       -3.150618   -1.397223    1.252868
      5          6           0       -2.268752   -0.194382   -0.277084
      6          8           0       -2.730674    0.844703   -0.656210
      7          7           0       -0.926801   -0.443551   -0.242538
      8          1           0       -0.661301   -1.229826    0.311657
      9          6           0        0.065424    0.625621   -0.225892
     10          1           0        0.142983    1.035449   -1.225733
     11          6           0       -0.227577    1.759955    0.763792
     12          1           0       -0.308220    1.363158    1.768462
     13          1           0        0.586935    2.478683    0.747214
     14          1           0       -1.142169    2.268676    0.501673
     15          6           0        1.377571   -0.036923    0.191790
     16          8           0        1.461740   -0.625598    1.238716
     17          7           0        2.394556    0.042482   -0.681145
     18          1           0        2.257363    0.512647   -1.544485
     19          6           0        3.689126   -0.540097   -0.393455
     20          1           0        3.609029   -1.611686   -0.263467
     21          1           0        4.351917   -0.333361   -1.222500
     22          1           0        4.109948   -0.117042    0.509350
 ---------------------------------------------------------------------

 The electronic state is 1-A.
 Alpha  occ. eigenvalues --  -20.53224 -20.52520 -15.59882 -15.58193 -11.35322
 Alpha  occ. eigenvalues --  -11.34718 -11.28200 -11.26651 -11.23039 -11.21421
 Alpha  occ. eigenvalues --   -1.40336  -1.39114  -1.24508  -1.23505  -1.05405
 Alpha  occ. eigenvalues --   -0.99142  -0.96669  -0.88165  -0.80318  -0.77739
 Alpha  occ. eigenvalues --   -0.73145  -0.67263  -0.66412  -0.64354  -0.63325
 Alpha  occ. eigenvalues --   -0.62208  -0.60520  -0.58549  -0.56726  -0.56428
 Alpha  occ. eigenvalues --   -0.56218  -0.54530  -0.52271  -0.51701  -0.50000
 Alpha  occ. eigenvalues --   -0.42848  -0.41714  -0.40074  -0.39133
 Alpha virt. eigenvalues --    0.19085   0.20169   0.21066   0.23373   0.25811
 Alpha virt. eigenvalues --    0.28101   0.29534   0.30479   0.31056   0.31435
 Alpha virt. eigenvalues --    0.32341   0.33244   0.34000   0.36209   0.37364

 Mulliken atomic charges:
              1
     1  H    0.213824
     2  C   -0.592285
     3  H    0.186348
     4  H    0.196461
     5  C    0.747177
     6  O   -0.600252
     7  N   -0.808580
     8  H    0.399170
     9  C    0.003149
    10  H    0.191471
    11  C   -0.520434
    12  H    0.188315
    13  H    0.160954
    14  H    0.226839
    15  C    0.749339
    16  O   -0.626854
    17  N   -0.793029
    18  H    0.393475
    19  C   -0.272443
    20  H    0.192187
    21  H    0.171216
    22  H    0.193949
 Sum of Mulliken atomic charges =   0.00000

 Dipole moment (field-independent basis, Debye):
    X=              2.6840    Y=             -1.0172    Z=             -1.5748  Tot=              3.2740
 Quadrupole moment (field-independent basis, Debye-Ang):
   XX=            -57.9637   YY=            -59.8438   ZZ=            -62.5937
   XY=              9.5588   XZ=            -11.0703   YZ=              1.5523

 Normal termination of Gaussian 09 at Fri Feb 10 04:27:21 2017.
