 Gaussian 09, Revision A.02,
 Gaussian 09:  EM64L-G09RevA.02 11-Jun-2009

 -------------------------------------------
 # HF/6-31G* Opt=(ModRedundant) geom=nocrowd
 -------------------------------------------

 ------------------
 Phi Psi fixed scan
 ------------------
 Symbolic Z-matrix:
 Charge =  0 Multiplicity = 1

 SCF Done:  E(RHF) =  -492.833338994     A.U. after   15 cycles
 SCF Done:  E(RHF) =  -492.843147075     A.U. after   14 cycles
 SCF Done:  E(RHF) =  -492.845967677     A.U. after   13 cycles
 SCF Done:  E(RHF) =  -492.846591575     A.U. after   13 cycles
 SCF Done:  E(RHF) =  -492.847591133     A.U. after   13 cycles
 SCF Done:  E(RHF) =  -492.848038309     A.U. after   13 cycles
 SCF Done:  E(RHF) =  -492.848261032     A.U. after   13 cycles
 SCF Done:  E(RHF) =  -492.848319407     A.U. after   12 cycles
 SCF Done:  E(RHF) =  -492.848426115     A.U. after   12 cycles
 SCF Done:  E(RHF) =  -492.848517656     A.U. after   11 cycles
 SCF Done:  E(RHF) =  -492.848755898     A.U. after   12 cycles
 SCF Done:  E(RHF) =  -492.848780950     A.U. after   11 cycles
 SCF Done:  E(RHF) =  -492.848787626     A.U. after   10 cycles
 SCF Done:  E(RHF) =  -492.848814452     A.U. after   12 cycles
 SCF Done:  E(RHF) =  -492.848845638     A.U. after   12 cycles
 SCF Done:  E(RHF) =  -492.848857515     A.U. after   11 cycles
 SCF Done:  E(RHF) =  -492.848871571     A.U. after   11 cycles
 SCF Done:  E(RHF) =  -492.848873300     A.U. after   10 cycles
 SCF Done:  E(RHF) =  -492.848874000     A.U. after    9 cycles
 SCF Done:  E(RHF) =  -492.848874035     A.U. after    7 cycles
 Optimization completed.
    -- Stationary point found.

                         Standard orientation:
 ---------------------------------------------------------------------
 Center     Atomic      Atomic             Coordinates (Angstroms)
 Number     Number       Type             X           Y           Z
 ---------------------------------------------------------------------
      1          1           0       -3.890452   -1.557384    0.354165
      2          6           0       -2.870432   -1.464603    0.696741
      3          1           0       -2.365790   -2.420149    0.605406
      4          1           0       -2.879788   -1.185552    1.746305
      5          6           0       -2.180695   -0.380430   -0.105330
      6          8           0       -2.792987    0.440210   -0.726130
      7          7           0       -0.816648   -0.437252   -0.082854
      8          1           0       -0.433327   -1.068291    0.585773
      9          6           0        0.047119    0.695009   -0.438940
     10          1           0        0.085122    0.765842   -1.521368
     11          6           0       -0.399741    2.036477    0.136372
     12          1           0       -0.453483    1.986825    1.217003
     13          1           0        0.325458    2.797889   -0.122150
     14          1           0       -1.363823    2.314545   -0.259108
     15          6           0        1.453617    0.352196    0.073861
     16          8           0        2.028779    1.017116    0.887571
     17          7           0        1.985254   -0.775279   -0.453062
     18          1           0        1.514791   -1.207244   -1.215132
     19          6           0        3.339878   -1.187581   -0.150031
     20          1           0        3.498343   -1.168375    0.918319
     21          1           0        3.484818   -2.197547   -0.509838
     22          1           0        4.073062   -0.537858   -0.615530
 ---------------------------------------------------------------------

 The electronic state is 1-A.
 Alpha  occ. eigenvalues --  -20.53518 -20.52966 -15.59390 -15.59225 -11.35337
 Alpha  occ. eigenvalues --  -11.35299 -11.28387 -11.26523 -11.23700 -11.20477
 Alpha  occ. eigenvalues --   -1.40453  -1.39651  -1.25215  -1.23092  -1.05418
 Alpha  occ. eigenvalues --   -0.99277  -0.96808  -0.87754  -0.79616  -0.78519
 Alpha  occ. eigenvalues --   -0.73386  -0.67261  -0.66903  -0.65279  -0.62927
 Alpha  occ. eigenvalues --   -0.62512  -0.60677  -0.59188  -0.57228  -0.56219
 Alpha  occ. eigenvalues --   -0.55502  -0.53594  -0.52642  -0.51774  -0.49957
 Alpha  occ. eigenvalues --   -0.43412  -0.41702  -0.40447  -0.39170
 Alpha virt. eigenvalues --    0.18122   0.19953   0.21943   0.22680   0.26257
 Alpha virt. eigenvalues --    0.27472   0.28254   0.30235   0.30351   0.31019
 Alpha virt. eigenvalues --    0.33030   0.33240   0.33983   0.35997   0.37163

 Mulliken atomic charges:
              1
     1  H    0.217393
     2  C   -0.592769
     3  H    0.179907
     4  H    0.197625
     5  C    0.753654
     6  O   -0.593070
     7  N   -0.826720
     8  H    0.387206
     9  C   -0.006147
    10  H    0.200450
    11  C   -0.494326
    12  H    0.172274
    13  H    0.177791
    14  H    0.217902
    15  C    0.717957
    16  O   -0.593436
    17  N   -0.788465
    18  H    0.392644
    19  C   -0.273828
    20  H    0.202641
    21  H    0.170265
    22  H    0.181051
 Sum of Mulliken atomic charges =   0.00000

 Dipole moment (field-independent basis, Debye):
    X=              1.4118    Y=             -4.2884    Z=             -0.3744  Tot=              4.5303
 Quadrupole moment (field-independent basis, Debye-Ang):
   XX=            -67.0902   YY=            -58.5689   ZZ=            -60.6970
   XY=             -1.0757   XZ=            -10.9910   YZ=             -1.8190

 Normal termination of Gaussian 09 at Fri Feb 10 04:08:09 2017.
