 Gaussian 09, Revision A.02,
 Gaussian 09:  EM64L-G09RevA.02 11-Jun-2009

 -------------------------------------------
 # HF/6-31G* Opt=(ModRedundant) geom=nocrowd
 -------------------------------------------

 ------------------
 Phi Psi fixed scan
 ------------------
 Symbolic Z-matrix:
 Charge =  0 Multiplicity = 1

 SCF Done:  E(RHF) =  -492.843240786     A.U. after   15 cycles
 SCF Done:  E(RHF) =  -492.851038760     A.U. after   15 cycles
 SCF Done:  E(RHF) =  -492.853396116     A.U. after   13 cycles
 SCF Done:  E(RHF) =  -492.854085151     A.U. after   13 cycles
 SCF Done:  E(RHF) =  -492.855505098     A.U. after   13 cycles
 SCF Done:  E(RHF) =  -492.856056775     A.U. after   13 cycles
 SCF Done:  E(RHF) =  -492.856103320     A.U. after   12 cycles
 SCF Done:  E(RHF) =  -492.856162681     A.U. after   12 cycles
 SCF Done:  E(RHF) =  -492.856211328     A.U. after   11 cycles
 SCF Done:  E(RHF) =  -492.856223346     A.U. after   11 cycles
 SCF Done:  E(RHF) =  -492.856450348     A.U. after   13 cycles
 SCF Done:  E(RHF) =  -492.856477608     A.U. after   11 cycles
 SCF Done:  E(RHF) =  -492.856487301     A.U. after   11 cycles
 SCF Done:  E(RHF) =  -492.856489304     A.U. after   10 cycles
 SCF Done:  E(RHF) =  -492.856492042     A.U. after   11 cycles
 SCF Done:  E(RHF) =  -492.856494051     A.U. after   11 cycles
 SCF Done:  E(RHF) =  -492.856494381     A.U. after   10 cycles
 SCF Done:  E(RHF) =  -492.856494460     A.U. after    9 cycles
 SCF Done:  E(RHF) =  -492.856494516     A.U. after    9 cycles
 SCF Done:  E(RHF) =  -492.856494512     A.U. after    8 cycles
 Optimization completed.
    -- Stationary point found.

                         Standard orientation:
 ---------------------------------------------------------------------
 Center     Atomic      Atomic             Coordinates (Angstroms)
 Number     Number       Type             X           Y           Z
 ---------------------------------------------------------------------
      1          1           0       -4.251593   -0.956690   -0.232580
      2          6           0       -3.253339   -1.218397    0.086576
      3          1           0       -2.941600   -2.136960   -0.397192
      4          1           0       -3.264418   -1.388282    1.159228
      5          6           0       -2.319453   -0.068617   -0.227423
      6          8           0       -2.722454    1.046086   -0.419250
      7          7           0       -1.005657   -0.407594   -0.294942
      8          1           0       -0.750477   -1.302393    0.064766
      9          6           0        0.074417    0.557898   -0.240693
     10          1           0        0.148944    1.065661   -1.195753
     11          6           0       -0.069519    1.603840    0.878486
     12          1           0       -0.130955    1.108946    1.841820
     13          1           0        0.793560    2.262230    0.888627
     14          1           0       -0.957639    2.197115    0.728579
     15          6           0        1.351416   -0.234995    0.033552
     16          8           0        1.333710   -1.251003    0.679740
     17          7           0        2.482917    0.284545   -0.470686
     18          1           0        2.436857    1.117357   -1.009591
     19          6           0        3.775701   -0.317133   -0.215101
     20          1           0        3.793694   -1.342460   -0.559597
     21          1           0        4.528868    0.247395   -0.747429
     22          1           0        4.008558   -0.306817    0.842224
 ---------------------------------------------------------------------

 The electronic state is 1-A.
 Alpha  occ. eigenvalues --  -20.53616 -20.51962 -15.59864 -15.57666 -11.35584
 Alpha  occ. eigenvalues --  -11.34374 -11.28335 -11.26720 -11.22707 -11.22019
 Alpha  occ. eigenvalues --   -1.40631  -1.38627  -1.24595  -1.23333  -1.05607
 Alpha  occ. eigenvalues --   -0.99046  -0.96445  -0.88577  -0.80640  -0.77456
 Alpha  occ. eigenvalues --   -0.73160  -0.67598  -0.66243  -0.64253  -0.63547
 Alpha  occ. eigenvalues --   -0.62046  -0.60419  -0.58496  -0.56600  -0.56438
 Alpha  occ. eigenvalues --   -0.56207  -0.54862  -0.52419  -0.52201  -0.49781
 Alpha  occ. eigenvalues --   -0.42990  -0.41369  -0.40325  -0.38606
 Alpha virt. eigenvalues --    0.18764   0.20594   0.21243   0.24168   0.25812
 Alpha virt. eigenvalues --    0.28151   0.29429   0.30349   0.31184   0.31314
 Alpha virt. eigenvalues --    0.32340   0.33311   0.34467   0.35603   0.37183

 Mulliken atomic charges:
              1
     1  H    0.211570
     2  C   -0.588972
     3  H    0.184612
     4  H    0.195804
     5  C    0.751281
     6  O   -0.610534
     7  N   -0.821795
     8  H    0.414463
     9  C   -0.001624
    10  H    0.195786
    11  C   -0.516596
    12  H    0.180241
    13  H    0.157729
    14  H    0.236251
    15  C    0.761448
    16  O   -0.630851
    17  N   -0.797370
    18  H    0.391531
    19  C   -0.270757
    20  H    0.196263
    21  H    0.171292
    22  H    0.190228
 Sum of Mulliken atomic charges =   0.00000

 Dipole moment (field-independent basis, Debye):
    X=              3.1225    Y=              0.1000    Z=             -0.7650  Tot=              3.2164
 Quadrupole moment (field-independent basis, Debye-Ang):
   XX=            -56.2575   YY=            -62.5739   ZZ=            -61.0031
   XY=             13.3454   XZ=             -6.7808   YZ=              1.4143

 Normal termination of Gaussian 09 at Fri Feb 10 04:35:55 2017.
