 Gaussian 09, Revision A.02,
 Gaussian 09:  EM64L-G09RevA.02 11-Jun-2009

 -------------------------------------------
 # HF/6-31G* Opt=(ModRedundant) geom=nocrowd
 -------------------------------------------

 ------------------
 Phi Psi fixed scan
 ------------------
 Symbolic Z-matrix:
 Charge =  0 Multiplicity = 1

 SCF Done:  E(RHF) =  -492.828038974     A.U. after   15 cycles
 SCF Done:  E(RHF) =  -492.838111026     A.U. after   14 cycles
 SCF Done:  E(RHF) =  -492.841359506     A.U. after   13 cycles
 SCF Done:  E(RHF) =  -492.843583814     A.U. after   13 cycles
 SCF Done:  E(RHF) =  -492.845734125     A.U. after   14 cycles
 SCF Done:  E(RHF) =  -492.847109608     A.U. after   13 cycles
 SCF Done:  E(RHF) =  -492.847554724     A.U. after   13 cycles
 SCF Done:  E(RHF) =  -492.847676660     A.U. after   13 cycles
 SCF Done:  E(RHF) =  -492.847843049     A.U. after   12 cycles
 SCF Done:  E(RHF) =  -492.848022376     A.U. after   12 cycles
 SCF Done:  E(RHF) =  -492.848220218     A.U. after   12 cycles
 SCF Done:  E(RHF) =  -492.848393025     A.U. after   12 cycles
 SCF Done:  E(RHF) =  -492.848552655     A.U. after   12 cycles
 SCF Done:  E(RHF) =  -492.848583833     A.U. after   12 cycles
 SCF Done:  E(RHF) =  -492.848607066     A.U. after   11 cycles
 SCF Done:  E(RHF) =  -492.848611518     A.U. after   10 cycles
 SCF Done:  E(RHF) =  -492.848613365     A.U. after    9 cycles
 SCF Done:  E(RHF) =  -492.848614802     A.U. after   10 cycles
 SCF Done:  E(RHF) =  -492.848616154     A.U. after   10 cycles
 SCF Done:  E(RHF) =  -492.848616543     A.U. after    9 cycles
 Optimization completed.
    -- Stationary point found.

                         Standard orientation:
 ---------------------------------------------------------------------
 Center     Atomic      Atomic             Coordinates (Angstroms)
 Number     Number       Type             X           Y           Z
 ---------------------------------------------------------------------
      1          1           0       -3.899757   -1.510041    0.331333
      2          6           0       -2.855929   -1.485309    0.607055
      3          1           0       -2.394104   -2.439469    0.378319
      4          1           0       -2.782024   -1.322038    1.678431
      5          6           0       -2.181146   -0.345164   -0.126842
      6          8           0       -2.802045    0.535074   -0.646372
      7          7           0       -0.812800   -0.431755   -0.177688
      8          1           0       -0.438437   -1.075515    0.485755
      9          6           0        0.041743    0.742482   -0.395320
     10          1           0        0.030839    0.972624   -1.456090
     11          6           0       -0.381261    1.987220    0.386789
     12          1           0       -0.392719    1.780576    1.452413
     13          1           0        0.330773    2.780711    0.211059
     14          1           0       -1.363216    2.310453    0.079533
     15          6           0        1.488667    0.382943   -0.028189
     16          8           0        2.252232    1.201327    0.397057
     17          7           0        1.845315   -0.916600   -0.207021
     18          1           0        1.277667   -1.463042   -0.815324
     19          6           0        3.230370   -1.317038   -0.051469
     20          1           0        3.595199   -0.987002    0.909418
     21          1           0        3.285500   -2.396629   -0.097739
     22          1           0        3.866518   -0.894161   -0.821757
 ---------------------------------------------------------------------

 The electronic state is 1-A.
 Alpha  occ. eigenvalues --  -20.53553 -20.53458 -15.59448 -15.59278 -11.35603
 Alpha  occ. eigenvalues --  -11.35469 -11.28466 -11.26412 -11.23949 -11.20727
 Alpha  occ. eigenvalues --   -1.40611  -1.40048  -1.25605  -1.22918  -1.05458
 Alpha  occ. eigenvalues --   -0.99441  -0.96709  -0.87849  -0.79790  -0.78264
 Alpha  occ. eigenvalues --   -0.73659  -0.67501  -0.66250  -0.65452  -0.63151
 Alpha  occ. eigenvalues --   -0.62785  -0.60394  -0.59437  -0.57569  -0.56226
 Alpha  occ. eigenvalues --   -0.55719  -0.54148  -0.52543  -0.51754  -0.49980
 Alpha  occ. eigenvalues --   -0.43526  -0.42057  -0.40265  -0.40072
 Alpha virt. eigenvalues --    0.17905   0.19551   0.21785   0.23852   0.27131
 Alpha virt. eigenvalues --    0.27310   0.28442   0.29557   0.30153   0.30977
 Alpha virt. eigenvalues --    0.32941   0.33335   0.33761   0.35402   0.36955

 Mulliken atomic charges:
              1
     1  H    0.219077
     2  C   -0.594608
     3  H    0.182882
     4  H    0.194904
     5  C    0.751625
     6  O   -0.584600
     7  N   -0.835324
     8  H    0.383173
     9  C   -0.023215
    10  H    0.220030
    11  C   -0.504735
    12  H    0.156525
    13  H    0.199617
    14  H    0.219228
    15  C    0.741623
    16  O   -0.596766
    17  N   -0.800421
    18  H    0.393034
    19  C   -0.277134
    20  H    0.205934
    21  H    0.170152
    22  H    0.179001
 Sum of Mulliken atomic charges =   0.00000

 Dipole moment (field-independent basis, Debye):
    X=              0.7896    Y=             -4.7097    Z=              0.4156  Tot=              4.7935
 Quadrupole moment (field-independent basis, Debye-Ang):
   XX=            -69.4184   YY=            -58.9870   ZZ=            -59.8256
   XY=             -1.8674   XZ=             -8.1060   YZ=             -0.7874

 Normal termination of Gaussian 09 at Fri Feb 10 04:02:50 2017.
