 Gaussian 09, Revision A.02,
 Gaussian 09:  EM64L-G09RevA.02 11-Jun-2009

 -------------------------------------------
 # HF/6-31G* Opt=(ModRedundant) geom=nocrowd
 -------------------------------------------

 ------------------
 Phi Psi fixed scan
 ------------------
 Symbolic Z-matrix:
 Charge =  0 Multiplicity = 1

 SCF Done:  E(RHF) =  -492.830044312     A.U. after   15 cycles
 SCF Done:  E(RHF) =  -492.842602081     A.U. after   16 cycles
 SCF Done:  E(RHF) =  -492.845268611     A.U. after   13 cycles
 SCF Done:  E(RHF) =  -492.845809348     A.U. after   13 cycles
 SCF Done:  E(RHF) =  -492.846221633     A.U. after   12 cycles
 SCF Done:  E(RHF) =  -492.846580347     A.U. after   13 cycles
 SCF Done:  E(RHF) =  -492.846826067     A.U. after   13 cycles
 SCF Done:  E(RHF) =  -492.846893727     A.U. after   12 cycles
 SCF Done:  E(RHF) =  -492.846913109     A.U. after   11 cycles
 SCF Done:  E(RHF) =  -492.846923476     A.U. after   11 cycles
 SCF Done:  E(RHF) =  -492.847336437     A.U. after   13 cycles
 SCF Done:  E(RHF) =  -492.847379541     A.U. after   11 cycles
 SCF Done:  E(RHF) =  -492.847389596     A.U. after   11 cycles
 SCF Done:  E(RHF) =  -492.847401693     A.U. after   12 cycles
 SCF Done:  E(RHF) =  -492.847396321     A.U. after   12 cycles
 SCF Done:  E(RHF) =  -492.847411916     A.U. after   11 cycles
 SCF Done:  E(RHF) =  -492.847413608     A.U. after   11 cycles
 SCF Done:  E(RHF) =  -492.847414334     A.U. after   11 cycles
 SCF Done:  E(RHF) =  -492.847414354     A.U. after    8 cycles
 SCF Done:  E(RHF) =  -492.847414361     A.U. after    7 cycles
 Optimization completed.
    -- Stationary point found.

                         Standard orientation:
 ---------------------------------------------------------------------
 Center     Atomic      Atomic             Coordinates (Angstroms)
 Number     Number       Type             X           Y           Z
 ---------------------------------------------------------------------
      1          1           0        3.867552   -1.245713   -0.953025
      2          6           0        2.998834   -1.471676   -0.352140
      3          1           0        3.333891   -1.852983    0.607980
      4          1           0        2.407987   -2.241026   -0.835859
      5          6           0        2.211657   -0.194489   -0.133868
      6          8           0        2.721354    0.884781   -0.242728
      7          7           0        0.906510   -0.396808    0.196297
      8          1           0        0.665152   -1.327992    0.457438
      9          6           0       -0.045066    0.614779    0.654572
     10          1           0        0.076802    0.778673    1.718943
     11          6           0        0.067002    1.957044   -0.070002
     12          1           0        0.118684    1.835901   -1.146369
     13          1           0       -0.799468    2.563719    0.172243
     14          1           0        0.957944    2.481410    0.232682
     15          6           0       -1.418464   -0.053659    0.510842
     16          8           0       -1.854500   -0.727773    1.406988
     17          7           0       -2.062911    0.096755   -0.660288
     18          1           0       -1.613782    0.577355   -1.402842
     19          6           0       -3.307584   -0.591787   -0.928682
     20          1           0       -4.006078   -0.423226   -0.121651
     21          1           0       -3.727708   -0.202273   -1.846207
     22          1           0       -3.159282   -1.660814   -1.033800
 ---------------------------------------------------------------------

 The electronic state is 1-A.
 Alpha  occ. eigenvalues --  -20.52906 -20.52696 -15.59162 -15.59160 -11.35360
 Alpha  occ. eigenvalues --  -11.34868 -11.28404 -11.26302 -11.23466 -11.22289
 Alpha  occ. eigenvalues --   -1.39968  -1.39330  -1.24637  -1.23423  -1.05933
 Alpha  occ. eigenvalues --   -0.99451  -0.95949  -0.89465  -0.79882  -0.77742
 Alpha  occ. eigenvalues --   -0.72887  -0.69010  -0.66792  -0.64582  -0.62766
 Alpha  occ. eigenvalues --   -0.62231  -0.59554  -0.59009  -0.56925  -0.56381
 Alpha  occ. eigenvalues --   -0.55639  -0.54194  -0.53897  -0.52157  -0.50949
 Alpha  occ. eigenvalues --   -0.43053  -0.41617  -0.39620  -0.38903
 Alpha virt. eigenvalues --    0.19262   0.19983   0.21709   0.22828   0.25767
 Alpha virt. eigenvalues --    0.27607   0.28589   0.29817   0.30347   0.31582
 Alpha virt. eigenvalues --    0.32732   0.33322   0.34379   0.35151   0.37478

 Mulliken atomic charges:
              1
     1  H    0.215340
     2  C   -0.590512
     3  H    0.199026
     4  H    0.180291
     5  C    0.753507
     6  O   -0.600043
     7  N   -0.833820
     8  H    0.396718
     9  C    0.014822
    10  H    0.211933
    11  C   -0.509509
    12  H    0.159786
    13  H    0.169945
    14  H    0.230669
    15  C    0.726868
    16  O   -0.614618
    17  N   -0.788349
    18  H    0.397743
    19  C   -0.270585
    20  H    0.202380
    21  H    0.169899
    22  H    0.178509
 Sum of Mulliken atomic charges =   0.00000

 Dipole moment (field-independent basis, Debye):
    X=             -1.1247    Y=             -1.2334    Z=             -2.4974  Tot=              3.0039
 Quadrupole moment (field-independent basis, Debye-Ang):
   XX=            -64.8629   YY=            -59.3578   ZZ=            -61.5457
   XY=            -10.6018   XZ=              9.0129   YZ=              2.8444

 Normal termination of Gaussian 09 at Fri Feb 10 05:17:12 2017.
