 Gaussian 09, Revision A.02,
 Gaussian 09:  EM64L-G09RevA.02 11-Jun-2009

 -------------------------------------------
 # HF/6-31G* Opt=(ModRedundant) geom=nocrowd
 -------------------------------------------

 ------------------
 Phi Psi fixed scan
 ------------------
 Symbolic Z-matrix:
 Charge =  0 Multiplicity = 1

 SCF Done:  E(RHF) =  -492.835920440     A.U. after   15 cycles
 SCF Done:  E(RHF) =  -492.844132275     A.U. after   17 cycles
 SCF Done:  E(RHF) =  -492.846708641     A.U. after   13 cycles
 SCF Done:  E(RHF) =  -492.846785025     A.U. after   13 cycles
 SCF Done:  E(RHF) =  -492.847905893     A.U. after   13 cycles
 SCF Done:  E(RHF) =  -492.848098324     A.U. after   12 cycles
 SCF Done:  E(RHF) =  -492.848196491     A.U. after   13 cycles
 SCF Done:  E(RHF) =  -492.848271907     A.U. after   12 cycles
 SCF Done:  E(RHF) =  -492.848339644     A.U. after   12 cycles
 SCF Done:  E(RHF) =  -492.848372308     A.U. after   12 cycles
 SCF Done:  E(RHF) =  -492.848604330     A.U. after   13 cycles
 SCF Done:  E(RHF) =  -492.848666079     A.U. after   11 cycles
 SCF Done:  E(RHF) =  -492.848716735     A.U. after   12 cycles
 SCF Done:  E(RHF) =  -492.848693289     A.U. after   11 cycles
 SCF Done:  E(RHF) =  -492.848728068     A.U. after   11 cycles
 SCF Done:  E(RHF) =  -492.848730971     A.U. after   11 cycles
 SCF Done:  E(RHF) =  -492.848731352     A.U. after   10 cycles
 SCF Done:  E(RHF) =  -492.848731477     A.U. after   10 cycles
 SCF Done:  E(RHF) =  -492.848731659     A.U. after    8 cycles
 SCF Done:  E(RHF) =  -492.848731700     A.U. after    8 cycles
 Optimization completed.
    -- Stationary point found.

                         Standard orientation:
 ---------------------------------------------------------------------
 Center     Atomic      Atomic             Coordinates (Angstroms)
 Number     Number       Type             X           Y           Z
 ---------------------------------------------------------------------
      1          1           0        3.870948   -1.481433   -0.438799
      2          6           0        2.985902   -1.514177    0.179513
      3          1           0        3.294544   -1.592154    1.217840
      4          1           0        2.398969   -2.391726   -0.067216
      5          6           0        2.208357   -0.226977   -0.014217
      6          8           0        2.733192    0.768587   -0.423307
      7          7           0        0.890958   -0.314216    0.325977
      8          1           0        0.633944   -1.133307    0.831394
      9          6           0       -0.053803    0.796714    0.430555
     10          1           0        0.067033    1.299531    1.382071
     11          6           0        0.054206    1.829286   -0.696607
     12          1           0        0.035770    1.357695   -1.672158
     13          1           0       -0.791111    2.505893   -0.626457
     14          1           0        0.966842    2.395815   -0.616005
     15          6           0       -1.468523    0.210584    0.463030
     16          8           0       -2.212826    0.429769    1.379511
     17          7           0       -1.830488   -0.516404   -0.613318
     18          1           0       -1.143131   -0.731111   -1.297292
     19          6           0       -3.140152   -1.123575   -0.713777
     20          1           0       -3.907818   -0.385628   -0.528191
     21          1           0       -3.263605   -1.516513   -1.714042
     22          1           0       -3.264530   -1.930709   -0.000381
 ---------------------------------------------------------------------

 The electronic state is 1-A.
 Alpha  occ. eigenvalues --  -20.53111 -20.52865 -15.59646 -15.58959 -11.35749
 Alpha  occ. eigenvalues --  -11.34701 -11.28301 -11.26279 -11.23906 -11.22007
 Alpha  occ. eigenvalues --   -1.40074  -1.39527  -1.25226  -1.23047  -1.06011
 Alpha  occ. eigenvalues --   -0.99704  -0.96072  -0.88968  -0.79707  -0.78129
 Alpha  occ. eigenvalues --   -0.73202  -0.68933  -0.67201  -0.63928  -0.63139
 Alpha  occ. eigenvalues --   -0.62398  -0.59814  -0.59312  -0.57258  -0.56256
 Alpha  occ. eigenvalues --   -0.55783  -0.54424  -0.53551  -0.51829  -0.50943
 Alpha  occ. eigenvalues --   -0.43352  -0.41372  -0.40057  -0.38949
 Alpha virt. eigenvalues --    0.18894   0.19476   0.21299   0.23300   0.26101
 Alpha virt. eigenvalues --    0.27217   0.28397   0.29562   0.30086   0.31842
 Alpha virt. eigenvalues --    0.32563   0.33452   0.34042   0.35486   0.36913

 Mulliken atomic charges:
              1
     1  H    0.217703
     2  C   -0.590980
     3  H    0.199928
     4  H    0.176686
     5  C    0.753085
     6  O   -0.593696
     7  N   -0.841491
     8  H    0.387491
     9  C   -0.007426
    10  H    0.218918
    11  C   -0.495003
    12  H    0.160112
    13  H    0.176205
    14  H    0.229105
    15  C    0.721330
    16  O   -0.605823
    17  N   -0.779154
    18  H    0.394232
    19  C   -0.269486
    20  H    0.201169
    21  H    0.169327
    22  H    0.177769
 Sum of Mulliken atomic charges =   0.00000

 Dipole moment (field-independent basis, Debye):
    X=             -0.1108    Y=             -3.7976    Z=             -1.5918  Tot=              4.1192
 Quadrupole moment (field-independent basis, Debye-Ang):
   XX=            -69.0702   YY=            -57.2234   ZZ=            -62.2087
   XY=             -3.6889   XZ=             11.2378   YZ=             -0.0112

 Normal termination of Gaussian 09 at Fri Feb 10 05:25:36 2017.
