 Gaussian 09, Revision A.02,
 Gaussian 09:  EM64L-G09RevA.02 11-Jun-2009

 -------------------------------------------
 # HF/6-31G* Opt=(ModRedundant) geom=nocrowd
 -------------------------------------------

 ------------------
 Phi Psi fixed scan
 ------------------
 Symbolic Z-matrix:
 Charge =  0 Multiplicity = 1

 SCF Done:  E(RHF) =  -492.823117870     A.U. after   15 cycles
 SCF Done:  E(RHF) =  -492.835409346     A.U. after   14 cycles
 SCF Done:  E(RHF) =  -492.838272012     A.U. after   13 cycles
 SCF Done:  E(RHF) =  -492.838685530     A.U. after   13 cycles
 SCF Done:  E(RHF) =  -492.839482084     A.U. after   13 cycles
 SCF Done:  E(RHF) =  -492.840989007     A.U. after   14 cycles
 SCF Done:  E(RHF) =  -492.842242865     A.U. after   14 cycles
 SCF Done:  E(RHF) =  -492.843895782     A.U. after   13 cycles
 SCF Done:  E(RHF) =  -492.845531185     A.U. after   13 cycles
 SCF Done:  E(RHF) =  -492.845857271     A.U. after   13 cycles
 SCF Done:  E(RHF) =  -492.846237418     A.U. after   12 cycles
 SCF Done:  E(RHF) =  -492.846476536     A.U. after   12 cycles
 SCF Done:  E(RHF) =  -492.846690739     A.U. after   11 cycles
 SCF Done:  E(RHF) =  -492.846851281     A.U. after   12 cycles
 SCF Done:  E(RHF) =  -492.846871721     A.U. after   11 cycles
 SCF Done:  E(RHF) =  -492.846874559     A.U. after   10 cycles
 SCF Done:  E(RHF) =  -492.846878471     A.U. after   10 cycles
 SCF Done:  E(RHF) =  -492.846880069     A.U. after   10 cycles
 SCF Done:  E(RHF) =  -492.846880500     A.U. after    8 cycles
 SCF Done:  E(RHF) =  -492.846880588     A.U. after    8 cycles
 Optimization completed.
    -- Stationary point found.

                         Standard orientation:
 ---------------------------------------------------------------------
 Center     Atomic      Atomic             Coordinates (Angstroms)
 Number     Number       Type             X           Y           Z
 ---------------------------------------------------------------------
      1          1           0       -3.921474   -1.472202    0.294268
      2          6           0       -2.866189   -1.497140    0.521982
      3          1           0       -2.442194   -2.438912    0.191355
      4          1           0       -2.739532   -1.428928    1.598776
      5          6           0       -2.191442   -0.317124   -0.145595
      6          8           0       -2.809262    0.609317   -0.580050
      7          7           0       -0.824039   -0.425396   -0.247933
      8          1           0       -0.458865   -1.095867    0.394704
      9          6           0        0.035928    0.758214   -0.371905
     10          1           0       -0.011492    1.100319   -1.399667
     11          6           0       -0.349708    1.917260    0.554198
     12          1           0       -0.329609    1.596112    1.591925
     13          1           0        0.363121    2.720426    0.438441
     14          1           0       -1.338619    2.277040    0.318039
     15          6           0        1.498704    0.383885   -0.094840
     16          8           0        2.310056    1.229694    0.150455
     17          7           0        1.816341   -0.940857   -0.103375
     18          1           0        1.239091   -1.532255   -0.658830
     19          6           0        3.207180   -1.336180    0.023999
     20          1           0        3.623733   -0.899272    0.918733
     21          1           0        3.252774   -2.414292    0.103806
     22          1           0        3.803756   -1.013980   -0.822669
 ---------------------------------------------------------------------

 The electronic state is 1-A.
 Alpha  occ. eigenvalues --  -20.53677 -20.53547 -15.59558 -15.59282 -11.35704
 Alpha  occ. eigenvalues --  -11.35559 -11.28459 -11.26369 -11.24045 -11.20978
 Alpha  occ. eigenvalues --   -1.40693  -1.40207  -1.25690  -1.22958  -1.05482
 Alpha  occ. eigenvalues --   -0.99542  -0.96607  -0.87974  -0.79918  -0.78105
 Alpha  occ. eigenvalues --   -0.73781  -0.67633  -0.65821  -0.65496  -0.63403
 Alpha  occ. eigenvalues --   -0.62906  -0.60171  -0.59452  -0.57709  -0.56412
 Alpha  occ. eigenvalues --   -0.55748  -0.54513  -0.52604  -0.51620  -0.49991
 Alpha  occ. eigenvalues --   -0.43628  -0.42326  -0.40486  -0.40123
 Alpha virt. eigenvalues --    0.17889   0.19360   0.21395   0.24092   0.27081
 Alpha virt. eigenvalues --    0.27649   0.28556   0.29344   0.30217   0.30963
 Alpha virt. eigenvalues --    0.32738   0.33279   0.34136   0.35086   0.36888

 Mulliken atomic charges:
              1
     1  H    0.219865
     2  C   -0.595806
     3  H    0.184767
     4  H    0.193507
     5  C    0.749097
     6  O   -0.580816
     7  N   -0.830911
     8  H    0.379134
     9  C   -0.027749
    10  H    0.226892
    11  C   -0.513992
    12  H    0.152884
    13  H    0.207351
    14  H    0.220803
    15  C    0.750802
    16  O   -0.597077
    17  N   -0.805788
    18  H    0.390416
    19  C   -0.279258
    20  H    0.206296
    21  H    0.170030
    22  H    0.179552
 Sum of Mulliken atomic charges =   0.00000

 Dipole moment (field-independent basis, Debye):
    X=              0.6014    Y=             -4.8705    Z=              0.7402  Tot=              4.9630
 Quadrupole moment (field-independent basis, Debye-Ang):
   XX=            -69.8738   YY=            -58.9961   ZZ=            -59.8400
   XY=             -1.7631   XZ=             -6.2849   YZ=             -0.0528

 Normal termination of Gaussian 09 at Fri Feb 10 04:00:28 2017.
