 Gaussian 09, Revision A.02,
 Gaussian 09:  EM64L-G09RevA.02 11-Jun-2009

 -------------------------------------------
 # HF/6-31G* Opt=(ModRedundant) geom=nocrowd
 -------------------------------------------

 ------------------
 Phi Psi fixed scan
 ------------------
 Symbolic Z-matrix:
 Charge =  0 Multiplicity = 1

 SCF Done:  E(RHF) =  -492.834755747     A.U. after   15 cycles
 SCF Done:  E(RHF) =  -492.843881354     A.U. after   14 cycles
 SCF Done:  E(RHF) =  -492.846394885     A.U. after   13 cycles
 SCF Done:  E(RHF) =  -492.846489881     A.U. after   13 cycles
 SCF Done:  E(RHF) =  -492.847581285     A.U. after   12 cycles
 SCF Done:  E(RHF) =  -492.848055728     A.U. after   13 cycles
 SCF Done:  E(RHF) =  -492.848313189     A.U. after   14 cycles
 SCF Done:  E(RHF) =  -492.848717811     A.U. after   13 cycles
 SCF Done:  E(RHF) =  -492.848884896     A.U. after   13 cycles
 SCF Done:  E(RHF) =  -492.848791942     A.U. after   14 cycles
 SCF Done:  E(RHF) =  -492.849220831     A.U. after   12 cycles
 SCF Done:  E(RHF) =  -492.849273726     A.U. after   11 cycles
 SCF Done:  E(RHF) =  -492.849224005     A.U. after   12 cycles
 SCF Done:  E(RHF) =  -492.849272685     A.U. after   12 cycles
 SCF Done:  E(RHF) =  -492.849319570     A.U. after   12 cycles
 SCF Done:  E(RHF) =  -492.849306133     A.U. after   12 cycles
 SCF Done:  E(RHF) =  -492.849329154     A.U. after   12 cycles
 SCF Done:  E(RHF) =  -492.849321699     A.U. after   11 cycles
 SCF Done:  E(RHF) =  -492.849330280     A.U. after   11 cycles
 SCF Done:  E(RHF) =  -492.849330315     A.U. after    8 cycles
 Optimization completed.
    -- Stationary point found.

                         Standard orientation:
 ---------------------------------------------------------------------
 Center     Atomic      Atomic             Coordinates (Angstroms)
 Number     Number       Type             X           Y           Z
 ---------------------------------------------------------------------
      1          1           0       -3.977441   -1.456843    0.256145
      2          6           0       -2.962307   -1.409182    0.621678
      3          1           0       -2.499399   -2.386905    0.547124
      4          1           0       -2.981198   -1.122868    1.669245
      5          6           0       -2.202764   -0.367308   -0.172067
      6          8           0       -2.756159    0.458632   -0.839025
      7          7           0       -0.840385   -0.470764   -0.093203
      8          1           0       -0.522536   -1.042350    0.660320
      9          6           0        0.050916    0.653092   -0.401743
     10          1           0        0.110408    0.746931   -1.479463
     11          6           0       -0.372787    1.992864    0.199131
     12          1           0       -0.433781    1.918198    1.276987
     13          1           0        0.369720    2.747157   -0.040918
     14          1           0       -1.325668    2.304684   -0.199173
     15          6           0        1.415757    0.250101    0.167939
     16          8           0        1.714447    0.472081    1.310049
     17          7           0        2.219903   -0.422200   -0.677199
     18          1           0        1.882623   -0.645805   -1.584261
     19          6           0        3.498293   -0.952589   -0.253230
     20          1           0        4.075914   -0.181942    0.237273
     21          1           0        3.378250   -1.780479    0.436501
     22          1           0        4.037522   -1.296611   -1.125411
 ---------------------------------------------------------------------

 The electronic state is 1-A.
 Alpha  occ. eigenvalues --  -20.53247 -20.52988 -15.59531 -15.58941 -11.35184
 Alpha  occ. eigenvalues --  -11.35180 -11.28236 -11.26517 -11.23498 -11.20793
 Alpha  occ. eigenvalues --   -1.40307  -1.39570  -1.24695  -1.23460  -1.05356
 Alpha  occ. eigenvalues --   -0.99284  -0.96731  -0.87882  -0.79818  -0.78195
 Alpha  occ. eigenvalues --   -0.73178  -0.67169  -0.66683  -0.64973  -0.62962
 Alpha  occ. eigenvalues --   -0.62394  -0.60616  -0.58883  -0.57054  -0.56374
 Alpha  occ. eigenvalues --   -0.55876  -0.54006  -0.52431  -0.51601  -0.50034
 Alpha  occ. eigenvalues --   -0.43104  -0.41670  -0.40525  -0.39100
 Alpha virt. eigenvalues --    0.19017   0.19887   0.21340   0.22317   0.25845
 Alpha virt. eigenvalues --    0.27946   0.28479   0.30511   0.30864   0.31171
 Alpha virt. eigenvalues --    0.32871   0.33005   0.34135   0.36282   0.37333

 Mulliken atomic charges:
              1
     1  H    0.216502
     2  C   -0.594215
     3  H    0.184553
     4  H    0.197352
     5  C    0.749039
     6  O   -0.592453
     7  N   -0.812134
     8  H    0.388331
     9  C   -0.001909
    10  H    0.192897
    11  C   -0.508851
    12  H    0.187367
    13  H    0.165016
    14  H    0.219378
    15  C    0.729377
    16  O   -0.606940
    17  N   -0.788791
    18  H    0.393986
    19  C   -0.272139
    20  H    0.202622
    21  H    0.179738
    22  H    0.171275
 Sum of Mulliken atomic charges =   0.00000

 Dipole moment (field-independent basis, Debye):
    X=              1.9195    Y=             -3.0739    Z=             -1.0358  Tot=              3.7691
 Quadrupole moment (field-independent basis, Debye-Ang):
   XX=            -62.5755   YY=            -57.9753   ZZ=            -62.8507
   XY=              1.8130   XZ=            -13.0578   YZ=             -1.0295

 Normal termination of Gaussian 09 at Fri Feb 10 04:18:59 2017.
