 Gaussian 09, Revision A.02,
 Gaussian 09:  EM64L-G09RevA.02 11-Jun-2009

 -------------------------------------------
 # HF/6-31G* Opt=(ModRedundant) geom=nocrowd
 -------------------------------------------

 ------------------
 Phi Psi fixed scan
 ------------------
 Symbolic Z-matrix:
 Charge =  0 Multiplicity = 1

 SCF Done:  E(RHF) =  -492.844341369     A.U. after   15 cycles
 SCF Done:  E(RHF) =  -492.851871707     A.U. after   15 cycles
 SCF Done:  E(RHF) =  -492.854304257     A.U. after   13 cycles
 SCF Done:  E(RHF) =  -492.854800945     A.U. after   13 cycles
 SCF Done:  E(RHF) =  -492.855936677     A.U. after   12 cycles
 SCF Done:  E(RHF) =  -492.856204541     A.U. after   12 cycles
 SCF Done:  E(RHF) =  -492.856184431     A.U. after   12 cycles
 SCF Done:  E(RHF) =  -492.856281767     A.U. after   12 cycles
 SCF Done:  E(RHF) =  -492.856296086     A.U. after   10 cycles
 SCF Done:  E(RHF) =  -492.856305306     A.U. after   11 cycles
 SCF Done:  E(RHF) =  -492.856474510     A.U. after   14 cycles
 SCF Done:  E(RHF) =  -492.856438267     A.U. after   12 cycles
 SCF Done:  E(RHF) =  -492.856403841     A.U. after   12 cycles
 SCF Done:  E(RHF) =  -492.856575972     A.U. after   12 cycles
 SCF Done:  E(RHF) =  -492.856628988     A.U. after   11 cycles
 SCF Done:  E(RHF) =  -492.856643136     A.U. after   11 cycles
 SCF Done:  E(RHF) =  -492.856657400     A.U. after   11 cycles
 SCF Done:  E(RHF) =  -492.856659794     A.U. after   10 cycles
 SCF Done:  E(RHF) =  -492.856660431     A.U. after   10 cycles
 SCF Done:  E(RHF) =  -492.856660508     A.U. after    8 cycles
 Optimization completed.
    -- Stationary point found.

                         Standard orientation:
 ---------------------------------------------------------------------
 Center     Atomic      Atomic             Coordinates (Angstroms)
 Number     Number       Type             X           Y           Z
 ---------------------------------------------------------------------
      1          1           0       -4.260637   -0.945663   -0.177563
      2          6           0       -3.265677   -1.194150    0.162219
      3          1           0       -2.949594   -2.131456   -0.280830
      4          1           0       -3.290066   -1.320298    1.240566
      5          6           0       -2.330410   -0.053988   -0.183007
      6          8           0       -2.733217    1.062839   -0.368607
      7          7           0       -1.024456   -0.403124   -0.277137
      8          1           0       -0.761656   -1.316417    0.024729
      9          6           0        0.076212    0.536511   -0.298439
     10          1           0        0.143562    0.998717   -1.278071
     11          6           0       -0.028235    1.636882    0.772907
     12          1           0       -0.056439    1.190360    1.761643
     13          1           0        0.829703    2.298608    0.724691
     14          1           0       -0.924227    2.218057    0.625611
     15          6           0        1.346622   -0.275219   -0.031267
     16          8           0        1.306282   -1.384129    0.435930
     17          7           0        2.504124    0.346394   -0.316757
     18          1           0        2.480819    1.225371   -0.778642
     19          6           0        3.784478   -0.297368   -0.105322
     20          1           0        3.854197   -0.666542    0.908105
     21          1           0        3.926929   -1.129791   -0.784241
     22          1           0        4.567277    0.430468   -0.269870
 ---------------------------------------------------------------------

 The electronic state is 1-A.
 Alpha  occ. eigenvalues --  -20.53856 -20.51696 -15.59797 -15.57540 -11.35742
 Alpha  occ. eigenvalues --  -11.34270 -11.28473 -11.26725 -11.22597 -11.22114
 Alpha  occ. eigenvalues --   -1.40819  -1.38406  -1.24616  -1.23284  -1.05656
 Alpha  occ. eigenvalues --   -0.98985  -0.96275  -0.88812  -0.80752  -0.77344
 Alpha  occ. eigenvalues --   -0.73144  -0.67746  -0.66175  -0.64646  -0.63539
 Alpha  occ. eigenvalues --   -0.61894  -0.60181  -0.58517  -0.56524  -0.56430
 Alpha  occ. eigenvalues --   -0.56122  -0.54922  -0.52681  -0.52267  -0.49695
 Alpha  occ. eigenvalues --   -0.43078  -0.41155  -0.40502  -0.38347
 Alpha virt. eigenvalues --    0.18597   0.20677   0.21395   0.24447   0.25848
 Alpha virt. eigenvalues --    0.28516   0.28910   0.30545   0.31049   0.31441
 Alpha virt. eigenvalues --    0.32585   0.33175   0.34987   0.35286   0.37166

 Mulliken atomic charges:
              1
     1  H    0.210549
     2  C   -0.586857
     3  H    0.182428
     4  H    0.196047
     5  C    0.755479
     6  O   -0.615048
     7  N   -0.832457
     8  H    0.421304
     9  C   -0.003519
    10  H    0.198418
    11  C   -0.512877
    12  H    0.175327
    13  H    0.155029
    14  H    0.240236
    15  C    0.766917
    16  O   -0.630414
    17  N   -0.798144
    18  H    0.390180
    19  C   -0.270622
    20  H    0.200654
    21  H    0.185831
    22  H    0.171540
 Sum of Mulliken atomic charges =   0.00000

 Dipole moment (field-independent basis, Debye):
    X=              3.2780    Y=              0.2554    Z=             -0.4069  Tot=              3.3130
 Quadrupole moment (field-independent basis, Debye-Ang):
   XX=            -56.3978   YY=            -63.3626   ZZ=            -60.3750
   XY=             13.7570   XZ=             -5.5951   YZ=              0.7663

 Normal termination of Gaussian 09 at Fri Feb 10 04:40:03 2017.
