 Gaussian 09, Revision A.02,
 Gaussian 09:  EM64L-G09RevA.02 11-Jun-2009

 -------------------------------------------
 # HF/6-31G* Opt=(ModRedundant) geom=nocrowd
 -------------------------------------------

 ------------------
 Phi Psi fixed scan
 ------------------
 Symbolic Z-matrix:
 Charge =  0 Multiplicity = 1

 SCF Done:  E(RHF) =  -492.823715217     A.U. after   15 cycles
 SCF Done:  E(RHF) =  -492.836969983     A.U. after   14 cycles
 SCF Done:  E(RHF) =  -492.840196677     A.U. after   13 cycles
 SCF Done:  E(RHF) =  -492.841544629     A.U. after   13 cycles
 SCF Done:  E(RHF) =  -492.843686502     A.U. after   14 cycles
 SCF Done:  E(RHF) =  -492.845105140     A.U. after   13 cycles
 SCF Done:  E(RHF) =  -492.845883537     A.U. after   13 cycles
 SCF Done:  E(RHF) =  -492.846098108     A.U. after   13 cycles
 SCF Done:  E(RHF) =  -492.846213747     A.U. after   12 cycles
 SCF Done:  E(RHF) =  -492.846382082     A.U. after   12 cycles
 SCF Done:  E(RHF) =  -492.846750353     A.U. after   13 cycles
 SCF Done:  E(RHF) =  -492.847020296     A.U. after   13 cycles
 SCF Done:  E(RHF) =  -492.847123865     A.U. after   12 cycles
 SCF Done:  E(RHF) =  -492.847141507     A.U. after   11 cycles
 SCF Done:  E(RHF) =  -492.847153780     A.U. after   11 cycles
 SCF Done:  E(RHF) =  -492.847154698     A.U. after    9 cycles
 SCF Done:  E(RHF) =  -492.847155420     A.U. after    9 cycles
 SCF Done:  E(RHF) =  -492.847157179     A.U. after   10 cycles
 SCF Done:  E(RHF) =  -492.847157849     A.U. after   10 cycles
 SCF Done:  E(RHF) =  -492.847157917     A.U. after    8 cycles
 Optimization completed.
    -- Stationary point found.

                         Standard orientation:
 ---------------------------------------------------------------------
 Center     Atomic      Atomic             Coordinates (Angstroms)
 Number     Number       Type             X           Y           Z
 ---------------------------------------------------------------------
      1          1           0       -3.909573   -1.479703    0.351834
      2          6           0       -2.937817   -1.573972   -0.109633
      3          1           0       -3.075397   -1.820303   -1.158728
      4          1           0       -2.386930   -2.382145    0.358372
      5          6           0       -2.210756   -0.247920    0.008351
      6          8           0       -2.793461    0.765521    0.255858
      7          7           0       -0.856473   -0.344245   -0.189814
      8          1           0       -0.592580   -1.174891   -0.674798
      9          6           0        0.060379    0.771256   -0.419755
     10          1           0       -0.000823    1.102698   -1.452139
     11          6           0       -0.188072    1.973236    0.499411
     12          1           0       -0.201893    1.659595    1.538098
     13          1           0        0.619444    2.677869    0.357944
     14          1           0       -1.128426    2.448446    0.278067
     15          6           0        1.517428    0.329844   -0.229127
     16          8           0        2.403130    1.103272   -0.463553
     17          7           0        1.751730   -0.964743    0.108819
     18          1           0        1.033171   -1.424830    0.620088
     19          6           0        3.112136   -1.395259    0.371157
     20          1           0        3.737560   -1.138775   -0.470262
     21          1           0        3.526106   -0.928655    1.258717
     22          1           0        3.115395   -2.469846    0.498896
 ---------------------------------------------------------------------

 The electronic state is 1-A.
 Alpha  occ. eigenvalues --  -20.53605 -20.52965 -15.59653 -15.59225 -11.36016
 Alpha  occ. eigenvalues --  -11.35039 -11.28519 -11.26142 -11.24111 -11.21042
 Alpha  occ. eigenvalues --   -1.40446  -1.39898  -1.25654  -1.22929  -1.05762
 Alpha  occ. eigenvalues --   -0.99560  -0.96289  -0.88152  -0.79971  -0.77167
 Alpha  occ. eigenvalues --   -0.73610  -0.69329  -0.67517  -0.63772  -0.63145
 Alpha  occ. eigenvalues --   -0.62473  -0.60654  -0.59693  -0.57277  -0.55925
 Alpha  occ. eigenvalues --   -0.55204  -0.53568  -0.52739  -0.51914  -0.50239
 Alpha  occ. eigenvalues --   -0.43611  -0.42471  -0.39960  -0.39692
 Alpha virt. eigenvalues --    0.18260   0.19382   0.20385   0.24571   0.27088
 Alpha virt. eigenvalues --    0.28141   0.28367   0.29906   0.30333   0.31299
 Alpha virt. eigenvalues --    0.33019   0.33244   0.34631   0.35305   0.37162

 Mulliken atomic charges:
              1
     1  H    0.220415
     2  C   -0.593686
     3  H    0.194614
     4  H    0.179363
     5  C    0.752105
     6  O   -0.579833
     7  N   -0.849872
     8  H    0.380551
     9  C   -0.008080
    10  H    0.212137
    11  C   -0.506227
    12  H    0.164515
    13  H    0.202432
    14  H    0.224748
    15  C    0.751271
    16  O   -0.606654
    17  N   -0.800855
    18  H    0.389145
    19  C   -0.280018
    20  H    0.206565
    21  H    0.178781
    22  H    0.168580
 Sum of Mulliken atomic charges =   0.00000

 Dipole moment (field-independent basis, Debye):
    X=             -0.1553    Y=             -5.0996    Z=              0.0200  Tot=              5.1020
 Quadrupole moment (field-independent basis, Debye-Ang):
   XX=            -71.2607   YY=            -58.7936   ZZ=            -59.0501
   XY=             -0.0120   XZ=              5.6005   YZ=             -0.2229

 Normal termination of Gaussian 09 at Fri Feb 10 03:58:01 2017.
