 Gaussian 09, Revision A.02,
 Gaussian 09:  EM64L-G09RevA.02 11-Jun-2009

 -------------------
 #SP MP2/aug-cc-pVDZ
 -------------------

 -------------------------------
 Single Point calculation at MP2
 -------------------------------
 Symbolic Z-matrix:
 Charge =  0 Multiplicity = 1

                         Standard orientation:
 ---------------------------------------------------------------------
 Center     Atomic      Atomic             Coordinates (Angstroms)
 Number     Number       Type             X           Y           Z
 ---------------------------------------------------------------------
      1          1           0        3.974293   -1.106540   -0.253209
      2          6           0        3.063991   -1.210930    0.339491
      3          1           0        3.312892   -1.158932    1.405291
      4          1           0        2.629080   -2.196825    0.135291
      5          6           0        2.072404   -0.136818   -0.089409
      6          8           0        2.122710    0.389381   -1.188909
      7          7           0        1.152507    0.197492    0.890791
      8          1           0        1.126600   -0.451408    1.667791
      9          6           0       -0.137886    0.822807    0.623491
     10          1           0       -0.524182    1.126911    1.606491
     11          6           0       -0.054771    2.084906   -0.251509
     12          1           0        0.257326    1.838802   -1.265109
     13          1           0       -1.032766    2.579417   -0.277309
     14          1           0        0.673537    2.782297    0.173191
     15          6           0       -1.127997   -0.215282    0.035591
     16          8           0       -0.756508   -1.189986   -0.602109
     17          7           0       -2.439595    0.028033    0.341191
     18          1           0       -2.670185    0.887535    0.819991
     19          6           0       -3.527904   -0.766555   -0.203109
     20          1           0       -3.088314   -1.666460   -0.635009
     21          1           0       -4.231207   -1.049647    0.587491
     22          1           0       -4.074097   -0.227749   -0.987909
 ---------------------------------------------------------------------

 SCF Done:  E(RHF) =  -492.916235422     A.U. after   14 cycles
 E2 =    -0.1601044154D+01 EUMP2 =    -0.49451727957525D+03

 The electronic state is 1-A.
 Alpha  occ. eigenvalues --  -20.53346 -20.52357 -15.60025 -15.59091 -11.36058
 Alpha  occ. eigenvalues --  -11.35590 -11.29816 -11.27151 -11.23775 -11.23175
 Alpha  occ. eigenvalues --   -1.38948  -1.37525  -1.23775  -1.23191  -1.05295
 Alpha  occ. eigenvalues --   -0.98515  -0.95743  -0.87971  -0.79961  -0.76812
 Alpha  occ. eigenvalues --   -0.71546  -0.69625  -0.65548  -0.62772  -0.62460
 Alpha  occ. eigenvalues --   -0.61883  -0.59207  -0.58429  -0.56326  -0.55671
 Alpha  occ. eigenvalues --   -0.55001  -0.53255  -0.53048  -0.50435  -0.50360
 Alpha  occ. eigenvalues --   -0.43875  -0.41335  -0.39621  -0.38747
 Alpha virt. eigenvalues --    0.02364   0.03686   0.04199   0.04577   0.05758
 Alpha virt. eigenvalues --    0.05917   0.06207   0.06925   0.07691   0.08183
 Alpha virt. eigenvalues --    0.08628   0.09065   0.11217   0.11498   0.13023

 Mulliken atomic charges:
              1
     1  H   -0.037067
     2  C    0.320344
     3  H   -0.039081
     4  H    0.069963
     5  C    0.716474
     6  O   -0.807561
     7  N   -0.435024
     8  H   -0.072974
     9  C   -0.319751
    10  H   -0.224710
    11  C    0.721690
    12  H    0.052941
    13  H   -0.100128
    14  H   -0.016915
    15  C    1.231011
    16  O   -0.840731
    17  N   -0.475232
    18  H   -0.122206
    19  C    0.740292
    20  H   -0.138775
    21  H   -0.130404
    22  H   -0.092160
 Sum of Mulliken atomic charges =   0.00000

 Dipole moment (field-independent basis, Debye):
    X=             -2.9479    Y=              1.0055    Z=              4.6963  Tot=              5.6352
 Quadrupole moment (field-independent basis, Debye-Ang):
   XX=            -52.2418   YY=            -61.0247   ZZ=            -63.2225
   XY=             -7.0658   XZ=              4.5265   YZ=             -0.8281

 Normal termination of Gaussian 09 at Tue Feb 14 03:06:31 2017.
