 Gaussian 09, Revision A.02,
 Gaussian 09:  EM64L-G09RevA.02 11-Jun-2009

 -------------------
 #SP MP2/aug-cc-pVDZ
 -------------------

 -------------------------------
 Single Point calculation at MP2
 -------------------------------
 Symbolic Z-matrix:
 Charge =  0 Multiplicity = 1

                         Standard orientation:
 ---------------------------------------------------------------------
 Center     Atomic      Atomic             Coordinates (Angstroms)
 Number     Number       Type             X           Y           Z
 ---------------------------------------------------------------------
      1          1           0        3.940991   -1.227923   -0.150199
      2          6           0        2.995191   -1.321921    0.386001
      3          1           0        3.185791   -1.329621    1.465001
      4          1           0        2.536889   -2.279720    0.111101
      5          6           0        2.073093   -0.187019   -0.045299
      6          8           0        2.209494    0.385680   -1.112899
      7          7           0        1.115694    0.142282    0.901201
      8          1           0        1.040393   -0.524817    1.659501
      9          6           0       -0.142005    0.831385    0.615701
     10          1           0       -0.543404    1.117486    1.597701
     11          6           0        0.024098    2.113285   -0.214699
     12          1           0        0.368097    1.880284   -1.220999
     13          1           0       -0.936501    2.639286   -0.265399
     14          1           0        0.757699    2.772383    0.259301
     15          6           0       -1.147707   -0.131213   -0.060999
     16          8           0       -0.818308   -0.907414   -0.945899
     17          7           0       -2.418007   -0.065811    0.446601
     18          1           0       -2.627005    0.644990    1.133301
     19          6           0       -3.525408   -0.809009   -0.130699
     20          1           0       -3.099509   -1.557809   -0.799899
     21          1           0       -4.103809   -1.309408    0.653401
     22          1           0       -4.196507   -0.159607   -0.707099
 ---------------------------------------------------------------------

 SCF Done:  E(RHF) =  -492.914303402     A.U. after   14 cycles
 E2 =    -0.1601497029D+01 EUMP2 =    -0.49451580043162D+03

 The electronic state is 1-A.
 Alpha  occ. eigenvalues --  -20.53172 -20.52360 -15.60185 -15.59308 -11.36022
 Alpha  occ. eigenvalues --  -11.35662 -11.29849 -11.27188 -11.23928 -11.22895
 Alpha  occ. eigenvalues --   -1.38849  -1.37536  -1.23872  -1.23183  -1.05294
 Alpha  occ. eigenvalues --   -0.98549  -0.95885  -0.87784  -0.80040  -0.76945
 Alpha  occ. eigenvalues --   -0.71489  -0.69624  -0.65534  -0.63055  -0.62376
 Alpha  occ. eigenvalues --   -0.61812  -0.59287  -0.58480  -0.56253  -0.55622
 Alpha  occ. eigenvalues --   -0.55033  -0.53195  -0.52549  -0.50503  -0.50432
 Alpha  occ. eigenvalues --   -0.44187  -0.41280  -0.39653  -0.38488
 Alpha virt. eigenvalues --    0.02232   0.03662   0.04096   0.04562   0.05824
 Alpha virt. eigenvalues --    0.05855   0.06123   0.06782   0.07789   0.08047
 Alpha virt. eigenvalues --    0.08576   0.09171   0.11034   0.11774   0.12922

 Mulliken atomic charges:
              1
     1  H   -0.037166
     2  C    0.313737
     3  H   -0.044738
     4  H    0.065021
     5  C    0.719586
     6  O   -0.792027
     7  N   -0.406078
     8  H   -0.075889
     9  C   -0.363332
    10  H   -0.293818
    11  C    0.747461
    12  H    0.060912
    13  H   -0.079769
    14  H   -0.017961
    15  C    1.261241
    16  O   -0.849887
    17  N   -0.463038
    18  H   -0.120352
    19  C    0.740614
    20  H   -0.140424
    21  H   -0.131662
    22  H   -0.092431
 Sum of Mulliken atomic charges =   0.00000

 Dipole moment (field-independent basis, Debye):
    X=             -3.0649    Y=              0.3182    Z=              5.3715  Tot=              6.1926
 Quadrupole moment (field-independent basis, Debye-Ang):
   XX=            -53.4088   YY=            -59.7599   ZZ=            -63.6656
   XY=             -6.5837   XZ=              3.1863   YZ=             -1.1954

 Normal termination of Gaussian 09 at Tue Feb 14 03:12:26 2017.
