 Gaussian 09, Revision A.02,
 Gaussian 09:  EM64L-G09RevA.02 11-Jun-2009

 -------------------
 #SP MP2/aug-cc-pVDZ
 -------------------

 -------------------------------
 Single Point calculation at MP2
 -------------------------------
 Symbolic Z-matrix:
 Charge =  0 Multiplicity = 1

                         Standard orientation:
 ---------------------------------------------------------------------
 Center     Atomic      Atomic             Coordinates (Angstroms)
 Number     Number       Type             X           Y           Z
 ---------------------------------------------------------------------
      1          1           0       -3.312234   -1.909339    0.721205
      2          6           0       -3.086824   -1.215442   -0.091195
      3          1           0       -3.918414   -0.504330   -0.164195
      4          1           0       -3.021832   -1.767943   -1.034395
      5          6           0       -1.808013   -0.462061    0.252905
      6          8           0       -1.500009   -0.183565    1.400405
      7          7           0       -1.014208   -0.140272   -0.830895
      8          1           0       -1.458210   -0.237766   -1.735495
      9          6           0        0.047206    0.884412   -0.762795
     10          1           0        0.374908    1.014107   -1.801495
     11          6           0       -0.417874    2.231219   -0.209295
     12          1           0       -0.723675    2.130423    0.832305
     13          1           0        0.401736    2.953207   -0.256395
     14          1           0       -1.257268    2.610731   -0.802795
     15          6           0        1.282599    0.350694    0.006305
     16          8           0        1.783407    0.953287    0.942105
     17          7           0        1.849283   -0.760414   -0.564095
     18          1           0        1.245675   -1.310405   -1.161895
     19          6           0        2.953272   -1.451730    0.083505
     20          1           0        3.561583   -0.706139    0.597305
     21          1           0        2.611162   -2.187125    0.824205
     22          1           0        3.561665   -1.960939   -0.670095
 ---------------------------------------------------------------------

 SCF Done:  E(RHF) =  -492.916863889     A.U. after   14 cycles
 E2 =    -0.1602280325D+01 EUMP2 =    -0.49451914421397D+03

 The electronic state is 1-A.
 Alpha  occ. eigenvalues --  -20.53947 -20.52764 -15.60721 -15.58762 -11.36982
 Alpha  occ. eigenvalues --  -11.35376 -11.29728 -11.26240 -11.25500 -11.22094
 Alpha  occ. eigenvalues --   -1.39417  -1.37980  -1.24744  -1.22159  -1.05326
 Alpha  occ. eigenvalues --   -0.99465  -0.95438  -0.87346  -0.80527  -0.76696
 Alpha  occ. eigenvalues --   -0.71119  -0.69913  -0.65119  -0.64340  -0.62240
 Alpha  occ. eigenvalues --   -0.61154  -0.60204  -0.58866  -0.57176  -0.55879
 Alpha  occ. eigenvalues --   -0.54136  -0.52472  -0.52329  -0.51183  -0.50662
 Alpha  occ. eigenvalues --   -0.43876  -0.42538  -0.39776  -0.38790
 Alpha virt. eigenvalues --    0.02035   0.03674   0.03707   0.04605   0.05658
 Alpha virt. eigenvalues --    0.05996   0.06281   0.06469   0.07433   0.07997
 Alpha virt. eigenvalues --    0.08697   0.09325   0.10809   0.12184   0.12611

 Mulliken atomic charges:
              1
     1  H    0.002284
     2  C    0.349263
     3  H    0.055823
     4  H   -0.090508
     5  C    0.674238
     6  O   -0.807977
     7  N   -0.393698
     8  H   -0.104831
     9  C   -0.230849
    10  H   -0.145520
    11  C    0.726140
    12  H    0.044816
    13  H   -0.072275
    14  H   -0.010610
    15  C    1.029343
    16  O   -0.787128
    17  N   -0.565937
    18  H   -0.057681
    19  C    0.745636
    20  H   -0.123349
    21  H   -0.076705
    22  H   -0.160476
 Sum of Mulliken atomic charges =   0.00000

 Dipole moment (field-independent basis, Debye):
    X=             -2.2591    Y=             -2.5738    Z=             -5.9684  Tot=              6.8811
 Quadrupole moment (field-independent basis, Debye-Ang):
   XX=            -56.4782   YY=            -58.3076   ZZ=            -64.6165
   XY=             -3.3299   XZ=              2.2741   YZ=             -1.5406

 Normal termination of Gaussian 09 at Tue Feb 14 04:41:08 2017.
