 Gaussian 09, Revision A.02,
 Gaussian 09:  EM64L-G09RevA.02 11-Jun-2009

 -------------------
 #SP MP2/aug-cc-pVDZ
 -------------------

 -------------------------------
 Single Point calculation at MP2
 -------------------------------
 Symbolic Z-matrix:
 Charge =  0 Multiplicity = 1

                         Standard orientation:
 ---------------------------------------------------------------------
 Center     Atomic      Atomic             Coordinates (Angstroms)
 Number     Number       Type             X           Y           Z
 ---------------------------------------------------------------------
      1          1           0       -3.419474   -1.810252    0.126703
      2          6           0       -3.198389   -0.838249   -0.319297
      3          1           0       -3.942299   -0.123660    0.052303
      4          1           0       -3.300188   -0.904951   -1.407497
      5          6           0       -1.814095   -0.394328    0.132303
      6          8           0       -1.374091   -0.661922    1.246503
      7          7           0       -1.088406    0.304982   -0.795297
      8          1           0       -1.544909    0.502776   -1.674697
      9          6           0        0.101182    1.118200   -0.495997
     10          1           0        0.323574    1.648904   -1.428397
     11          6           0       -0.145934    2.163597    0.602703
     12          1           0       -0.417726    1.675092    1.541103
     13          1           0        0.768658    2.741210    0.753103
     14          1           0       -0.954544    2.840684    0.307503
     15          6           0        1.404594    0.337620   -0.205997
     16          8           0        2.440884    0.971135   -0.037097
     17          7           0        1.350014   -1.021681   -0.249697
     18          1           0        0.444320   -1.439895   -0.087497
     19          6           0        2.519526   -1.812364    0.102903
     20          1           0        3.407618   -1.292050   -0.257897
     21          1           0        2.616128   -1.946662    1.188503
     22          1           0        2.451940   -2.794865   -0.373197
 ---------------------------------------------------------------------

 SCF Done:  E(RHF) =  -492.921762973     A.U. after   14 cycles
 E2 =    -0.1602984023D+01 EUMP2 =    -0.49452474699609D+03

 The electronic state is 1-A.
 Alpha  occ. eigenvalues --  -20.54585 -20.52427 -15.61137 -15.58461 -11.37784
 Alpha  occ. eigenvalues --  -11.35417 -11.29913 -11.26040 -11.25919 -11.22670
 Alpha  occ. eigenvalues --   -1.39966  -1.37814  -1.25187  -1.22103  -1.05753
 Alpha  occ. eigenvalues --   -0.99975  -0.95109  -0.88158  -0.80712  -0.77188
 Alpha  occ. eigenvalues --   -0.72163  -0.70350  -0.65430  -0.63407  -0.62534
 Alpha  occ. eigenvalues --   -0.61424  -0.60283  -0.59233  -0.57701  -0.55918
 Alpha  occ. eigenvalues --   -0.54343  -0.53940  -0.52130  -0.51827  -0.49700
 Alpha  occ. eigenvalues --   -0.44017  -0.43477  -0.40146  -0.38276
 Alpha virt. eigenvalues --    0.02271   0.03819   0.04095   0.04604   0.05881
 Alpha virt. eigenvalues --    0.06251   0.06314   0.06707   0.07368   0.08269
 Alpha virt. eigenvalues --    0.08931   0.09189   0.11462   0.11884   0.12358

 Mulliken atomic charges:
              1
     1  H    0.007365
     2  C    0.378351
     3  H    0.053285
     4  H   -0.083390
     5  C    0.586212
     6  O   -0.817748
     7  N   -0.069263
     8  H   -0.139626
     9  C   -0.447687
    10  H   -0.046969
    11  C    0.768949
    12  H   -0.015460
    13  H   -0.046397
    14  H   -0.058696
    15  C    0.994746
    16  O   -0.864639
    17  N   -0.510826
    18  H   -0.053952
    19  C    0.731593
    20  H   -0.128642
    21  H   -0.066517
    22  H   -0.170690
 Sum of Mulliken atomic charges =   0.00000

 Dipole moment (field-independent basis, Debye):
    X=             -4.2716    Y=             -1.0347    Z=             -3.3560  Tot=              5.5299
 Quadrupole moment (field-independent basis, Debye-Ang):
   XX=            -62.1599   YY=            -58.4426   ZZ=            -62.6625
   XY=             -7.1377   XZ=              5.9519   YZ=              0.1023

 Normal termination of Gaussian 09 at Tue Feb 14 02:36:37 2017.
