 Gaussian 09, Revision A.02,
 Gaussian 09:  EM64L-G09RevA.02 11-Jun-2009

 ----------------------------------------------------------------------
 #MP2/cc-pvTZ density=MP2, maxdisk=16GB, pop=(minimal, MK), 5d, punch=m
 o
 ----------------------------------------------------------------------

 -----------------
 Generated by mdgx
 -----------------
 Symbolic Z-matrix:
 Charge =  0 Multiplicity = 1

                         Standard orientation:
 ---------------------------------------------------------------------
 Center     Atomic      Atomic             Coordinates (Angstroms)
 Number     Number       Type             X           Y           Z
 ---------------------------------------------------------------------
      1          1           0       -3.702727   -1.574252    0.328141
      2          6           0       -3.296278   -0.583032    0.529092
      3          1           0       -3.093172   -0.561843    1.599793
      4          1           0       -3.995011    0.228404    0.325514
      5          6           0       -2.047332   -0.415054   -0.323187
      6          8           0       -1.769148   -1.249408   -1.131844
      7          7           0       -1.320255    0.626044   -0.025337
      8          1           0       -1.687631    1.311886    0.618679
      9          6           0        0.082867    0.918143   -0.298634
     10          1           0        0.215163    0.731094   -1.364284
     11          6           0        0.283262    2.324364    0.009801
     12          1           0        0.140163    2.491456    1.077369
     13          1           0        1.224112    2.745451   -0.344580
     14          1           0       -0.508952    2.872574   -0.500066
     15          6           0        1.121551   -0.061164    0.296477
     16          8           0        0.796189   -0.755830    1.287799
     17          7           0        2.330709   -0.084740   -0.357752
     18          1           0        2.619617    0.764916   -0.821127
     19          6           0        3.508142   -1.022177   -0.104078
     20          1           0        3.975893   -1.396371   -1.014730
     21          1           0        4.335458   -0.459871    0.328888
     22          1           0        3.274311   -1.867156    0.543559
 ---------------------------------------------------------------------

 SCF Done:  E(RHF) =  -492.995938104     A.U. after   14 cycles
 E2 =    -0.1883487220D+01 EUMP2 =    -0.49487942532403D+03

 The electronic state is 1-A.
 Alpha  occ. eigenvalues --  -20.51877 -20.49846 -15.59721 -15.57864 -11.35888
 Alpha  occ. eigenvalues --  -11.32817 -11.28741 -11.27597 -11.24385 -11.21964
 Alpha  occ. eigenvalues --   -1.38535  -1.35641  -1.24961  -1.21912  -1.07888
 Alpha  occ. eigenvalues --   -0.98089  -0.96601  -0.88886  -0.81503  -0.77801
 Alpha  occ. eigenvalues --   -0.71710  -0.67449  -0.66694  -0.62346  -0.62079
 Alpha  occ. eigenvalues --   -0.61659  -0.60267  -0.58191  -0.57532  -0.56406
 Alpha  occ. eigenvalues --   -0.56188  -0.54270  -0.53365  -0.50929  -0.49504
 Alpha  occ. eigenvalues --   -0.42555  -0.40941  -0.39701  -0.38848
 Alpha virt. eigenvalues --    0.11534   0.13540   0.14979   0.16179   0.17534
 Alpha virt. eigenvalues --    0.18814   0.19520   0.20440   0.21509   0.22351
 Alpha virt. eigenvalues --    0.23179   0.23258   0.23344   0.25092   0.28381

 Mulliken atomic charges:
              1
     1  H    0.144222
     2  C   -0.407673
     3  H    0.127530
     4  H    0.119271
     5  C    0.162768
     6  O   -0.310715
     7  N   -0.115352
     8  H    0.164229
     9  C   -0.035340
    10  H    0.149762
    11  C   -0.389146
    12  H    0.128482
    13  H    0.126908
    14  H    0.135132
    15  C    0.191118
    16  O   -0.313576
    17  N   -0.196784
    18  H    0.178870
    19  C   -0.267576
    20  H    0.131758
    21  H    0.118132
    22  H    0.157977
 Sum of Mulliken atomic charges =   0.00000

 Dipole moment (field-independent basis, Debye):
    X=              2.6316    Y=              4.4865    Z=             -0.0098  Tot=              5.2014
 Quadrupole moment (field-independent basis, Debye-Ang):
   XX=            -47.2410   YY=            -60.1687   ZZ=            -66.6295
   XY=             -3.7951   XZ=             -8.1195   YZ=             -1.5358

 Normal termination of Gaussian 09 at Sun Mar 19 13:22:31 2017.
