 Gaussian 09, Revision A.02,
 Gaussian 09:  EM64L-G09RevA.02 11-Jun-2009

 -------------------
 #SP MP2/aug-cc-pVDZ
 -------------------

 -------------------------------
 Single Point calculation at MP2
 -------------------------------
 Symbolic Z-matrix:
 Charge =  0 Multiplicity = 1

                         Standard orientation:
 ---------------------------------------------------------------------
 Center     Atomic      Atomic             Coordinates (Angstroms)
 Number     Number       Type             X           Y           Z
 ---------------------------------------------------------------------
      1          1           0       -3.620295   -1.611828    0.053391
      2          6           0       -3.128603   -0.723323    0.453391
      3          1           0       -2.918701   -0.894622    1.516191
      4          1           0       -3.801010    0.137471    0.369191
      5          6           0       -1.813504   -0.514612   -0.276909
      6          8           0       -1.202297   -1.422507   -0.818609
      7          7           0       -1.369616    0.796092   -0.330909
      8          1           0       -1.849921    1.423488    0.304191
      9          6           0        0.056582    1.086504   -0.469609
     10          1           0        0.297881    1.149906   -1.540109
     11          6           0        0.369670    2.434807    0.190191
     12          1           0        0.194770    2.373206    1.270091
     13          1           0        1.416867    2.705616    0.029091
     14          1           0       -0.259837    3.227002   -0.230909
     15          6           0        0.939291   -0.007788    0.175891
     16          8           0        0.651295   -0.510290    1.252791
     17          7           0        2.156693   -0.170777   -0.426809
     18          1           0        2.227690    0.086623   -1.402409
     19          6           0        3.104801   -1.158069    0.067791
     20          1           0        3.023401   -1.190370    1.154991
     21          1           0        2.898310   -2.162771   -0.323309
     22          1           0        4.119899   -0.863660   -0.214309
 ---------------------------------------------------------------------

 SCF Done:  E(RHF) =  -492.919121405     A.U. after   15 cycles
 E2 =    -0.1603359415D+01 EUMP2 =    -0.49452248082017D+03

 The electronic state is 1-A.
 Alpha  occ. eigenvalues --  -20.52890 -20.52589 -15.59242 -15.59222 -11.35777
 Alpha  occ. eigenvalues --  -11.35594 -11.29591 -11.26318 -11.24819 -11.24163
 Alpha  occ. eigenvalues --   -1.38963  -1.37371  -1.23584  -1.22756  -1.05580
 Alpha  occ. eigenvalues --   -0.98980  -0.95483  -0.87463  -0.79824  -0.77546
 Alpha  occ. eigenvalues --   -0.70873  -0.68092  -0.66860  -0.63171  -0.62297
 Alpha  occ. eigenvalues --   -0.61196  -0.59335  -0.57880  -0.57254  -0.55432
 Alpha  occ. eigenvalues --   -0.54349  -0.54137  -0.53261  -0.51980  -0.48788
 Alpha  occ. eigenvalues --   -0.43147  -0.42050  -0.39522  -0.39086
 Alpha virt. eigenvalues --    0.02924   0.03631   0.04454   0.04640   0.05716
 Alpha virt. eigenvalues --    0.06135   0.06217   0.06985   0.07450   0.07847
 Alpha virt. eigenvalues --    0.09024   0.09291   0.10801   0.11947   0.12829

 Mulliken atomic charges:
              1
     1  H   -0.031319
     2  C    0.300092
     3  H    0.085384
     4  H   -0.042810
     5  C    0.706934
     6  O   -0.859736
     7  N   -0.551001
     8  H    0.026943
     9  C    0.019383
    10  H   -0.279247
    11  C    0.674263
    12  H    0.021633
    13  H   -0.091149
    14  H   -0.044577
    15  C    1.249195
    16  O   -0.923882
    17  N   -0.525639
    18  H   -0.102403
    19  C    0.713956
    20  H   -0.109579
    21  H   -0.055952
    22  H   -0.180492
 Sum of Mulliken atomic charges =   0.00000

 Dipole moment (field-independent basis, Debye):
    X=              0.4037    Y=              3.8167    Z=             -0.9543  Tot=              3.9549
 Quadrupole moment (field-independent basis, Debye-Ang):
   XX=            -47.8511   YY=            -62.0210   ZZ=            -64.2171
   XY=             -3.3561   XZ=             -7.5616   YZ=             -0.8788

 Normal termination of Gaussian 09 at Mon Feb 13 20:03:33 2017.
