 Gaussian 09, Revision A.02,
 Gaussian 09:  EM64L-G09RevA.02 11-Jun-2009

 -------------------
 #SP MP2/aug-cc-pVDZ
 -------------------

 -------------------------------
 Single Point calculation at MP2
 -------------------------------
 Symbolic Z-matrix:
 Charge =  0 Multiplicity = 1

                         Standard orientation:
 ---------------------------------------------------------------------
 Center     Atomic      Atomic             Coordinates (Angstroms)
 Number     Number       Type             X           Y           Z
 ---------------------------------------------------------------------
      1          1           0       -3.684292   -1.280824    0.668500
      2          6           0       -2.951897   -0.521620    0.946900
      3          1           0       -2.381794   -0.881516    1.811900
      4          1           0       -3.472403    0.398377    1.239100
      5          6           0       -1.997798   -0.304314   -0.217200
      6          8           0       -1.912993   -1.072113   -1.154200
      7          7           0       -1.304306    0.922091   -0.181600
      8          1           0       -1.511709    1.409889    0.686100
      9          6           0        0.134493    1.038300   -0.456600
     10          1           0        0.257893    1.150300   -1.544800
     11          6           0        0.638885    2.326003    0.210800
     12          1           0        0.647086    2.228003    1.302700
     13          1           0        1.650584    2.591509   -0.107200
     14          1           0       -0.018320    3.157999   -0.062400
     15          6           0        0.958101   -0.224895   -0.073100
     16          8           0        0.453708   -1.269798    0.305000
     17          7           0        2.315800   -0.018487   -0.018100
     18          1           0        2.695395    0.782316   -0.504000
     19          6           0        3.226007   -1.129781    0.223900
     20          1           0        3.441111   -1.702980   -0.687700
     21          1           0        4.163905   -0.745175    0.634300
     22          1           0        2.759611   -1.799984    0.946800
 ---------------------------------------------------------------------

 SCF Done:  E(RHF) =  -492.901789572     A.U. after   15 cycles
 E2 =    -0.1604249831D+01 EUMP2 =    -0.49450603940319D+03

 The electronic state is 1-A.
 Alpha  occ. eigenvalues --  -20.53510 -20.52136 -15.59798 -15.58639 -11.36323
 Alpha  occ. eigenvalues --  -11.35144 -11.30230 -11.26979 -11.25746 -11.23670
 Alpha  occ. eigenvalues --   -1.39349  -1.37080  -1.23564  -1.22714  -1.05578
 Alpha  occ. eigenvalues --   -0.98595  -0.95689  -0.88499  -0.79412  -0.77645
 Alpha  occ. eigenvalues --   -0.70963  -0.67000  -0.66415  -0.64063  -0.62550
 Alpha  occ. eigenvalues --   -0.61270  -0.59171  -0.57614  -0.57200  -0.56280
 Alpha  occ. eigenvalues --   -0.55170  -0.54761  -0.53665  -0.51436  -0.48530
 Alpha  occ. eigenvalues --   -0.44624  -0.41330  -0.39803  -0.38304
 Alpha virt. eigenvalues --    0.02494   0.03561   0.04039   0.04720   0.05581
 Alpha virt. eigenvalues --    0.05810   0.06092   0.06837   0.07564   0.08065
 Alpha virt. eigenvalues --    0.08791   0.10066   0.10722   0.11794   0.12259

 Mulliken atomic charges:
              1
     1  H   -0.070495
     2  C    0.303498
     3  H    0.069998
     4  H   -0.003723
     5  C    0.770424
     6  O   -0.845466
     7  N   -0.698492
     8  H    0.074397
     9  C    0.234241
    10  H   -0.084474
    11  C    0.720155
    12  H    0.003132
    13  H   -0.176149
    14  H   -0.048582
    15  C    0.790184
    16  O   -0.766296
    17  N   -0.535923
    18  H   -0.108651
    19  C    0.721973
    20  H   -0.058348
    21  H   -0.180077
    22  H   -0.111327
 Sum of Mulliken atomic charges =   0.00000

 Dipole moment (field-independent basis, Debye):
    X=              3.1370    Y=              4.7300    Z=              2.1912  Tot=              6.0840
 Quadrupole moment (field-independent basis, Debye-Ang):
   XX=            -51.2762   YY=            -63.2219   ZZ=            -63.0939
   XY=             -2.0039   XZ=             -9.3231   YZ=             -2.2687

 Normal termination of Gaussian 09 at Mon Feb 13 20:31:37 2017.
