 Gaussian 09, Revision A.02,
 Gaussian 09:  EM64L-G09RevA.02 11-Jun-2009

 -------------------
 #SP MP2/aug-cc-pVDZ
 -------------------

 -------------------------------
 Single Point calculation at MP2
 -------------------------------
 Symbolic Z-matrix:
 Charge =  0 Multiplicity = 1

                         Standard orientation:
 ---------------------------------------------------------------------
 Center     Atomic      Atomic             Coordinates (Angstroms)
 Number     Number       Type             X           Y           Z
 ---------------------------------------------------------------------
      1          1           0        3.283913   -1.627170   -0.787812
      2          6           0        3.192501   -0.655571   -0.296012
      3          1           0        3.558591    0.126134   -0.969612
      4          1           0        3.831501   -0.676563    0.593688
      5          6           0        1.745698   -0.464689    0.141788
      6          8           0        1.104810   -1.366298    0.665488
      7          7           0        1.231682    0.785504   -0.084912
      8          1           0        1.844774    1.480812   -0.488512
      9          6           0       -0.091224    1.258187    0.337688
     10          1           0       -0.031728    1.622788    1.370388
     11          6           0       -0.543238    2.406982   -0.571412
     12          1           0       -0.643034    2.078780   -1.610912
     13          1           0       -1.512643    2.785569   -0.234712
     14          1           0        0.172351    3.238291   -0.533912
     15          6           0       -1.167010    0.150574    0.413188
     16          8           0       -1.851808    0.027765    1.416188
     17          7           0       -1.421101   -0.506930   -0.762612
     18          1           0       -0.652401   -0.535520   -1.420512
     19          6           0       -2.297087   -1.670841   -0.755812
     20          1           0       -3.173989   -1.438652   -0.150012
     21          1           0       -2.611684   -1.893045   -1.779412
     22          1           0       -1.801575   -2.551034   -0.326012
 ---------------------------------------------------------------------

 SCF Done:  E(RHF) =  -492.917332150     A.U. after   14 cycles
 E2 =    -0.1603182380D+01 EUMP2 =    -0.49452051452997D+03

 The electronic state is 1-A.
 Alpha  occ. eigenvalues --  -20.53846 -20.52461 -15.61059 -15.58096 -11.37308
 Alpha  occ. eigenvalues --  -11.35294 -11.29632 -11.25652 -11.25469 -11.25010
 Alpha  occ. eigenvalues --   -1.39507  -1.37633  -1.25047  -1.21825  -1.06271
 Alpha  occ. eigenvalues --   -1.00016  -0.94581  -0.88285  -0.81482  -0.77043
 Alpha  occ. eigenvalues --   -0.70397  -0.69541  -0.67411  -0.62989  -0.62026
 Alpha  occ. eigenvalues --   -0.61832  -0.59667  -0.58242  -0.57953  -0.56023
 Alpha  occ. eigenvalues --   -0.55028  -0.54048  -0.53592  -0.51469  -0.50433
 Alpha  occ. eigenvalues --   -0.43115  -0.42010  -0.40350  -0.38430
 Alpha virt. eigenvalues --    0.02214   0.03749   0.03908   0.04692   0.05607
 Alpha virt. eigenvalues --    0.05979   0.06131   0.06710   0.07425   0.08375
 Alpha virt. eigenvalues --    0.08442   0.09237   0.11378   0.11744   0.12261

 Mulliken atomic charges:
              1
     1  H    0.019073
     2  C    0.437720
     3  H   -0.152283
     4  H    0.066918
     5  C    0.464986
     6  O   -0.835219
     7  N   -0.396666
     8  H   -0.090090
     9  C    0.367142
    10  H   -0.228460
    11  C    0.660013
    12  H   -0.030820
    13  H   -0.045277
    14  H   -0.101635
    15  C    1.062112
    16  O   -0.908447
    17  N   -0.604959
    18  H   -0.034241
    19  C    0.712572
    20  H   -0.111233
    21  H   -0.190356
    22  H   -0.060851
 Sum of Mulliken atomic charges =   0.00000

 Dipole moment (field-independent basis, Debye):
    X=              3.8105    Y=              2.8291    Z=             -4.6510  Tot=              6.6449
 Quadrupole moment (field-independent basis, Debye-Ang):
   XX=            -56.6143   YY=            -58.6971   ZZ=            -65.3371
   XY=              4.2462   XZ=              3.5293   YZ=              3.4837

 Normal termination of Gaussian 09 at Mon Feb 13 21:13:08 2017.
