 Gaussian 09, Revision A.02,
 Gaussian 09:  EM64L-G09RevA.02 11-Jun-2009

 -------------------
 #SP MP2/aug-cc-pVDZ
 -------------------

 -------------------------------
 Single Point calculation at MP2
 -------------------------------
 Symbolic Z-matrix:
 Charge =  0 Multiplicity = 1

                         Standard orientation:
 ---------------------------------------------------------------------
 Center     Atomic      Atomic             Coordinates (Angstroms)
 Number     Number       Type             X           Y           Z
 ---------------------------------------------------------------------
      1          1           0       -3.511843   -1.777824   -0.022513
      2          6           0       -3.100322   -0.853934    0.388287
      3          1           0       -2.976725   -0.987337    1.469787
      4          1           0       -3.805103   -0.032718    0.219987
      5          6           0       -1.738316   -0.600565   -0.234713
      6          8           0       -1.011337   -1.502581   -0.628313
      7          7           0       -1.381686    0.724527   -0.359313
      8          1           0       -1.950571    1.380640    0.162087
      9          6           0        0.022423    1.111996   -0.502613
     10          1           0        0.270323    1.134290   -1.573213
     11          6           0        0.232954    2.509291    0.087687
     12          1           0        0.058854    2.484195    1.168387
     13          1           0        1.259662    2.844468   -0.086613
     14          1           0       -0.446329    3.234906   -0.374513
     15          6           0        0.963400    0.116274    0.214887
     16          8           0        0.807494   -0.156122    1.397287
     17          7           0        2.061792   -0.254950   -0.508113
     18          1           0        1.973092   -0.220648   -1.515013
     19          6           0        2.999170   -1.227872    0.034187
     20          1           0        3.137274   -1.015675    1.095287
     21          1           0        2.627546   -2.255863   -0.065913
     22          1           0        3.957972   -1.136993   -0.483913
 ---------------------------------------------------------------------

 SCF Done:  E(RHF) =  -492.921662071     A.U. after   15 cycles
 E2 =    -0.1603081792D+01 EUMP2 =    -0.49452474386329D+03

 The electronic state is 1-A.
 Alpha  occ. eigenvalues --  -20.53242 -20.52405 -15.59625 -15.58859 -11.36177
 Alpha  occ. eigenvalues --  -11.35392 -11.29522 -11.25965 -11.24530 -11.24516
 Alpha  occ. eigenvalues --   -1.39068  -1.37406  -1.23827  -1.22510  -1.05632
 Alpha  occ. eigenvalues --   -0.99196  -0.95299  -0.87292  -0.80125  -0.77371
 Alpha  occ. eigenvalues --   -0.70808  -0.68538  -0.67014  -0.63138  -0.61978
 Alpha  occ. eigenvalues --   -0.61288  -0.59393  -0.58108  -0.57301  -0.55137
 Alpha  occ. eigenvalues --   -0.54134  -0.54039  -0.53068  -0.51939  -0.49151
 Alpha  occ. eigenvalues --   -0.42984  -0.42372  -0.39696  -0.38858
 Alpha virt. eigenvalues --    0.02965   0.03683   0.04438   0.04653   0.05684
 Alpha virt. eigenvalues --    0.06215   0.06327   0.06991   0.07430   0.07841
 Alpha virt. eigenvalues --    0.09093   0.09208   0.10886   0.12055   0.13011

 Mulliken atomic charges:
              1
     1  H   -0.020035
     2  C    0.316501
     3  H    0.083538
     4  H   -0.063933
     5  C    0.665993
     6  O   -0.859121
     7  N   -0.507853
     8  H    0.009430
     9  C    0.066532
    10  H   -0.300497
    11  C    0.654446
    12  H    0.023547
    13  H   -0.088511
    14  H   -0.057482
    15  C    1.294454
    16  O   -0.952476
    17  N   -0.558972
    18  H   -0.084057
    19  C    0.719804
    20  H   -0.107398
    21  H   -0.050927
    22  H   -0.182983
 Sum of Mulliken atomic charges =   0.00000

 Dipole moment (field-independent basis, Debye):
    X=             -0.7115    Y=              3.1060    Z=             -1.7832  Tot=              3.6515
 Quadrupole moment (field-independent basis, Debye-Ang):
   XX=            -48.5122   YY=            -61.3007   ZZ=            -64.4956
   XY=             -3.7477   XZ=             -6.8517   YZ=             -1.0098

 Normal termination of Gaussian 09 at Mon Feb 13 19:52:36 2017.
