 Gaussian 09, Revision A.02,
 Gaussian 09:  EM64L-G09RevA.02 11-Jun-2009

 -------------------
 #SP MP2/aug-cc-pVDZ
 -------------------

 -------------------------------
 Single Point calculation at MP2
 -------------------------------
 Symbolic Z-matrix:
 Charge =  0 Multiplicity = 1

                         Standard orientation:
 ---------------------------------------------------------------------
 Center     Atomic      Atomic             Coordinates (Angstroms)
 Number     Number       Type             X           Y           Z
 ---------------------------------------------------------------------
      1          1           0       -3.534357   -1.056563    1.105009
      2          6           0       -3.362167   -0.390260    0.254109
      3          1           0       -3.723983    0.610834    0.507209
      4          1           0       -3.947361   -0.777770   -0.585191
      5          6           0       -1.886466   -0.453637   -0.119691
      6          8           0       -1.384749   -1.531329   -0.446291
      7          7           0       -1.233585    0.738673   -0.069891
      8          1           0       -1.803797    1.510264    0.247809
      9          6           0        0.155609    1.165695   -0.362291
     10          1           0        0.197305    1.428395   -1.428891
     11          6           0        0.416889    2.446299    0.445809
     12          1           0        0.369792    2.240198    1.521109
     13          1           0        1.410783    2.822214    0.203209
     14          1           0       -0.322624    3.219687    0.203309
     15          6           0        1.380323    0.225014   -0.180191
     16          8           0        2.480916    0.722231   -0.412091
     17          7           0        1.211743   -1.039689    0.260409
     18          1           0        0.290450   -1.458303    0.121409
     19          6           0        2.369257   -1.915471    0.367409
     20          1           0        3.152349   -1.422358    0.948409
     21          1           0        2.065771   -2.834675    0.874309
     22          1           0        2.788561   -2.167864   -0.615191
 ---------------------------------------------------------------------

 SCF Done:  E(RHF) =  -492.914694381     A.U. after   14 cycles
 E2 =    -0.1604569567D+01 EUMP2 =    -0.49451926394769D+03

 The electronic state is 1-A.
 Alpha  occ. eigenvalues --  -20.54726 -20.52044 -15.61855 -15.57309 -11.38512
 Alpha  occ. eigenvalues --  -11.35442 -11.30504 -11.26079 -11.25441 -11.24297
 Alpha  occ. eigenvalues --   -1.40191  -1.37536  -1.25612  -1.21677  -1.06508
 Alpha  occ. eigenvalues --   -1.00190  -0.94898  -0.87945  -0.82197  -0.77069
 Alpha  occ. eigenvalues --   -0.71387  -0.70176  -0.67326  -0.63108  -0.62275
 Alpha  occ. eigenvalues --   -0.61935  -0.59985  -0.58836  -0.58051  -0.55888
 Alpha  occ. eigenvalues --   -0.54496  -0.53595  -0.53520  -0.52160  -0.49670
 Alpha  occ. eigenvalues --   -0.44187  -0.42581  -0.40580  -0.37917
 Alpha virt. eigenvalues --    0.02355   0.04024   0.04321   0.04613   0.05714
 Alpha virt. eigenvalues --    0.06164   0.06455   0.06675   0.07212   0.08001
 Alpha virt. eigenvalues --    0.09193   0.09927   0.11692   0.11800   0.12526

 Mulliken atomic charges:
              1
     1  H    0.038542
     2  C    0.429662
     3  H   -0.212492
     4  H    0.050677
     5  C    0.510590
     6  O   -0.911887
     7  N   -0.522588
     8  H    0.002604
     9  C    0.268179
    10  H    0.006273
    11  C    0.600144
    12  H   -0.020340
    13  H   -0.074872
    14  H   -0.090151
    15  C    0.798287
    16  O   -0.877629
    17  N   -0.373136
    18  H   -0.012688
    19  C    0.738948
    20  H   -0.113451
    21  H   -0.196987
    22  H   -0.037687
 Sum of Mulliken atomic charges =   0.00000

 Dipole moment (field-independent basis, Debye):
    X=             -4.6175    Y=              1.6727    Z=              1.5167  Tot=              5.1400
 Quadrupole moment (field-independent basis, Debye-Ang):
   XX=            -62.1973   YY=            -59.9476   ZZ=            -61.7615
   XY=             -9.6466   XZ=              0.5145   YZ=             -1.2394

 Normal termination of Gaussian 09 at Mon Feb 13 19:56:56 2017.
