 Gaussian 09, Revision A.02,
 Gaussian 09:  EM64L-G09RevA.02 11-Jun-2009

 -------------------
 #SP MP2/aug-cc-pVDZ
 -------------------

 -------------------------------
 Single Point calculation at MP2
 -------------------------------
 Symbolic Z-matrix:
 Charge =  0 Multiplicity = 1

                         Standard orientation:
 ---------------------------------------------------------------------
 Center     Atomic      Atomic             Coordinates (Angstroms)
 Number     Number       Type             X           Y           Z
 ---------------------------------------------------------------------
      1          1           0       -3.924897   -0.729525   -0.684703
      2          6           0       -3.362599   -0.419321    0.201597
      3          1           0       -3.555894   -1.159322    0.983797
      4          1           0       -3.733207    0.555577    0.532597
      5          6           0       -1.877599   -0.447409   -0.137603
      6          8           0       -1.342691   -1.499405   -0.490403
      7          7           0       -1.239508    0.748796   -0.019303
      8          1           0       -1.818814    1.509991    0.307897
      9          6           0        0.138588    1.182006   -0.331503
     10          1           0        0.152386    1.518706   -1.376403
     11          6           0        0.460779    2.392309    0.560697
     12          1           0        0.471581    2.100809    1.616597
     13          1           0        1.442676    2.783016    0.290097
     14          1           0       -0.281427    3.189003    0.423597
     15          6           0        1.346296    0.211815   -0.252303
     16          8           0        2.411393    0.643724   -0.684803
     17          7           0        1.222405   -0.974686    0.392797
     18          1           0        0.302608   -1.409393    0.329197
     19          6           0        2.376012   -1.863077    0.449997
     20          1           0        3.240907   -1.311670    0.824597
     21          1           0        2.149118   -2.687778    1.130297
     22          1           0        2.636215   -2.270675   -0.535703
 ---------------------------------------------------------------------

 SCF Done:  E(RHF) =  -492.915219557     A.U. after   14 cycles
 E2 =    -0.1604100790D+01 EUMP2 =    -0.49451932034675D+03

 The electronic state is 1-A.
 Alpha  occ. eigenvalues --  -20.54573 -20.52360 -15.61742 -15.57398 -11.38361
 Alpha  occ. eigenvalues --  -11.35510 -11.30333 -11.26048 -11.25399 -11.24507
 Alpha  occ. eigenvalues --   -1.40092  -1.37747  -1.25545  -1.21689  -1.06518
 Alpha  occ. eigenvalues --   -1.00220  -0.94727  -0.88044  -0.82168  -0.76832
 Alpha  occ. eigenvalues --   -0.71182  -0.70262  -0.67194  -0.63066  -0.62361
 Alpha  occ. eigenvalues --   -0.62182  -0.59963  -0.58636  -0.57934  -0.56065
 Alpha  occ. eigenvalues --   -0.54725  -0.53664  -0.53453  -0.52004  -0.49707
 Alpha  occ. eigenvalues --   -0.44202  -0.42358  -0.40834  -0.38135
 Alpha virt. eigenvalues --    0.02331   0.04000   0.04243   0.04652   0.05733
 Alpha virt. eigenvalues --    0.06100   0.06439   0.06821   0.07130   0.08019
 Alpha virt. eigenvalues --    0.08999   0.10165   0.11616   0.11915   0.12372

 Mulliken atomic charges:
              1
     1  H    0.054689
     2  C    0.429755
     3  H    0.039813
     4  H   -0.204434
     5  C    0.492176
     6  O   -0.891852
     7  N   -0.491389
     8  H   -0.007557
     9  C    0.376898
    10  H   -0.030400
    11  C    0.537046
    12  H   -0.021038
    13  H   -0.057191
    14  H   -0.104195
    15  C    0.853764
    16  O   -0.893855
    17  N   -0.457209
    18  H   -0.019533
    19  C    0.752006
    20  H   -0.119682
    21  H   -0.194521
    22  H   -0.043292
 Sum of Mulliken atomic charges =   0.00000

 Dipole moment (field-independent basis, Debye):
    X=             -4.5637    Y=              1.8168    Z=              2.1254  Tot=              5.3521
 Quadrupole moment (field-independent basis, Debye-Ang):
   XX=            -61.0019   YY=            -59.4822   ZZ=            -62.8064
   XY=             -8.7950   XZ=              2.0218   YZ=             -1.1136

 Normal termination of Gaussian 09 at Mon Feb 13 21:31:02 2017.
