 Gaussian 09, Revision A.02,
 Gaussian 09:  EM64L-G09RevA.02 11-Jun-2009

 -------------------
 #SP MP2/aug-cc-pVDZ
 -------------------

 -------------------------------
 Single Point calculation at MP2
 -------------------------------
 Symbolic Z-matrix:
 Charge =  0 Multiplicity = 1

                         Standard orientation:
 ---------------------------------------------------------------------
 Center     Atomic      Atomic             Coordinates (Angstroms)
 Number     Number       Type             X           Y           Z
 ---------------------------------------------------------------------
      1          1           0        3.716904   -1.343315   -0.414606
      2          6           0        3.051907   -0.547912   -0.754506
      3          1           0        2.602306   -0.849411   -1.708206
      4          1           0        3.631610    0.367486   -0.921806
      5          6           0        1.944808   -0.356608    0.268694
      6          8           0        1.667205   -1.188907    1.111394
      7          7           0        1.326412    0.900994    0.233794
      8          1           0        1.620214    1.431193   -0.581306
      9          6           0       -0.115287    1.050299    0.444694
     10          1           0       -0.295287    1.166300    1.523794
     11          6           0       -0.579483    2.332101   -0.263206
     12          1           0       -0.491383    2.225700   -1.351006
     13          1           0       -1.622882    2.563305   -0.035906
     14          1           0        0.036120    3.179099    0.058294
     15          6           0       -0.940592   -0.180298   -0.021106
     16          8           0       -0.471295   -1.086900   -0.690906
     17          7           0       -2.292891   -0.041893    0.175994
     18          1           0       -2.596589    0.606608    0.890894
     19          6           0       -3.208495   -1.123490   -0.160306
     20          1           0       -2.844097   -1.604891   -1.068506
     21          1           0       -3.270398   -1.882290    0.630794
     22          1           0       -4.205594   -0.711586   -0.340406
 ---------------------------------------------------------------------

 SCF Done:  E(RHF) =  -492.908528655     A.U. after   15 cycles
 E2 =    -0.1604004044D+01 EUMP2 =    -0.49451253269840D+03

 The electronic state is 1-A.
 Alpha  occ. eigenvalues --  -20.53411 -20.52228 -15.59631 -15.58736 -11.36112
 Alpha  occ. eigenvalues --  -11.35229 -11.29995 -11.26836 -11.25437 -11.23678
 Alpha  occ. eigenvalues --   -1.39238  -1.37153  -1.23493  -1.22817  -1.05539
 Alpha  occ. eigenvalues --   -0.98634  -0.95631  -0.88075  -0.79454  -0.77590
 Alpha  occ. eigenvalues --   -0.70942  -0.67291  -0.66541  -0.63622  -0.62706
 Alpha  occ. eigenvalues --   -0.61234  -0.59131  -0.57444  -0.57280  -0.56021
 Alpha  occ. eigenvalues --   -0.54940  -0.54561  -0.53551  -0.51664  -0.48486
 Alpha  occ. eigenvalues --   -0.44228  -0.41472  -0.39787  -0.38557
 Alpha virt. eigenvalues --    0.02645   0.03595   0.04182   0.04729   0.05628
 Alpha virt. eigenvalues --    0.05874   0.06195   0.06886   0.07632   0.07907
 Alpha virt. eigenvalues --    0.08794   0.09747   0.10683   0.11827   0.12229

 Mulliken atomic charges:
              1
     1  H   -0.059374
     2  C    0.303488
     3  H    0.077388
     4  H   -0.013751
     5  C    0.749202
     6  O   -0.861672
     7  N   -0.647224
     8  H    0.072721
     9  C    0.073145
    10  H   -0.134252
    11  C    0.730368
    12  H   -0.013963
    13  H   -0.149664
    14  H   -0.052486
    15  C    1.002023
    16  O   -0.817917
    17  N   -0.533537
    18  H   -0.096357
    19  C    0.723750
    20  H   -0.108252
    21  H   -0.058496
    22  H   -0.185139
 Sum of Mulliken atomic charges =   0.00000

 Dipole moment (field-independent basis, Debye):
    X=             -2.3798    Y=              4.5783    Z=             -1.1664  Tot=              5.2900
 Quadrupole moment (field-independent basis, Debye-Ang):
   XX=            -49.5065   YY=            -63.1003   ZZ=            -63.4889
   XY=              2.5355   XZ=             -9.0595   YZ=              1.5784

 Normal termination of Gaussian 09 at Mon Feb 13 20:13:53 2017.
