 Gaussian 09, Revision A.02,
 Gaussian 09:  EM64L-G09RevA.02 11-Jun-2009

 -------------------
 #SP MP2/aug-cc-pVDZ
 -------------------

 -------------------------------
 Single Point calculation at MP2
 -------------------------------
 Symbolic Z-matrix:
 Charge =  0 Multiplicity = 1

                         Standard orientation:
 ---------------------------------------------------------------------
 Center     Atomic      Atomic             Coordinates (Angstroms)
 Number     Number       Type             X           Y           Z
 ---------------------------------------------------------------------
      1          1           0       -2.782696   -0.863912    1.600112
      2          6           0       -3.111397   -0.615913    0.583712
      3          1           0       -3.736899    0.282585    0.633512
      4          1           0       -3.699495   -1.449615    0.196712
      5          6           0       -1.883998   -0.427010   -0.290488
      6          8           0       -1.427195   -1.309009   -0.996788
      7          7           0       -1.349401    0.859891   -0.284888
      8          1           0       -1.733402    1.438590    0.455012
      9          6           0        0.089099    1.065795   -0.447188
     10          1           0        0.308498    1.163496   -1.520188
     11          6           0        0.491095    2.369496    0.256712
     12          1           0        0.346795    2.276996    1.339612
     13          1           0        1.543495    2.602399    0.075812
     14          1           0       -0.116407    3.203595   -0.111488
     15          6           0        0.931602   -0.110803    0.107412
     16          8           0        0.535403   -0.833604    1.009612
     17          7           0        2.234902   -0.098099   -0.316688
     18          1           0        2.436600    0.375801   -1.187388
     19          6           0        3.173104   -1.125497    0.111012
     20          1           0        2.905505   -1.422698    1.125612
     21          1           0        3.137606   -2.015497   -0.530688
     22          1           0        4.189203   -0.719794    0.104812
 ---------------------------------------------------------------------

 SCF Done:  E(RHF) =  -492.914584365     A.U. after   15 cycles
 E2 =    -0.1603735694D+01 EUMP2 =    -0.49451832005948D+03

 The electronic state is 1-A.
 Alpha  occ. eigenvalues --  -20.52998 -20.52516 -15.59462 -15.58938 -11.35857
 Alpha  occ. eigenvalues --  -11.35446 -11.29760 -11.26616 -11.25132 -11.23858
 Alpha  occ. eigenvalues --   -1.39023  -1.37290  -1.23468  -1.22876  -1.05545
 Alpha  occ. eigenvalues --   -0.98784  -0.95605  -0.87716  -0.79603  -0.77587
 Alpha  occ. eigenvalues --   -0.70923  -0.67659  -0.66695  -0.63241  -0.62658
 Alpha  occ. eigenvalues --   -0.61206  -0.59254  -0.57602  -0.57274  -0.55726
 Alpha  occ. eigenvalues --   -0.54628  -0.54319  -0.53462  -0.51853  -0.48569
 Alpha  occ. eigenvalues --   -0.43634  -0.41744  -0.39659  -0.38849
 Alpha virt. eigenvalues --    0.02796   0.03619   0.04327   0.04702   0.05672
 Alpha virt. eigenvalues --    0.06000   0.06221   0.06919   0.07583   0.07883
 Alpha virt. eigenvalues --    0.08856   0.09512   0.10752   0.11809   0.12528

 Mulliken atomic charges:
              1
     1  H    0.083994
     2  C    0.296224
     3  H   -0.028339
     4  H   -0.043823
     5  C    0.738045
     6  O   -0.867141
     7  N   -0.600591
     8  H    0.053648
     9  C   -0.007542
    10  H   -0.213638
    11  C    0.704776
    12  H    0.003598
    13  H   -0.110785
    14  H   -0.042476
    15  C    1.164362
    16  O   -0.879060
    17  N   -0.512258
    18  H   -0.103307
    19  C    0.716732
    20  H   -0.112737
    21  H   -0.059491
    22  H   -0.180189
 Sum of Mulliken atomic charges =   0.00000

 Dipole moment (field-independent basis, Debye):
    X=              1.4703    Y=              4.3121    Z=              0.1181  Tot=              4.5574
 Quadrupole moment (field-independent basis, Debye-Ang):
   XX=            -48.2559   YY=            -62.6613   ZZ=            -63.8893
   XY=             -2.9205   XZ=             -8.3398   YZ=             -1.0980

 Normal termination of Gaussian 09 at Mon Feb 13 19:48:08 2017.
