 Gaussian 09, Revision A.02,
 Gaussian 09:  EM64L-G09RevA.02 11-Jun-2009

 -------------------
 #SP MP2/aug-cc-pVDZ
 -------------------

 -------------------------------
 Single Point calculation at MP2
 -------------------------------
 Symbolic Z-matrix:
 Charge =  0 Multiplicity = 1

                         Standard orientation:
 ---------------------------------------------------------------------
 Center     Atomic      Atomic             Coordinates (Angstroms)
 Number     Number       Type             X           Y           Z
 ---------------------------------------------------------------------
      1          1           0        3.773780   -1.343336   -0.771497
      2          6           0        3.418888   -0.430233   -0.290897
      3          1           0        3.754595    0.438764   -0.867997
      4          1           0        3.869688   -0.370537    0.707403
      5          6           0        1.899787   -0.506321   -0.162397
      6          8           0        1.301178   -1.567016   -0.155497
      7          7           0        1.282997    0.730284   -0.106397
      8          1           0        1.926103    1.511379   -0.050797
      9          6           0       -0.025800    1.062395    0.483903
     10          1           0        0.106301    1.201094    1.565903
     11          6           0       -0.506290    2.388299   -0.117397
     12          1           0       -0.601990    2.329300   -1.207797
     13          1           0       -1.469387    2.682507    0.309103
     14          1           0        0.214317    3.186393    0.100103
     15          6           0       -1.061510   -0.094197    0.437703
     16          8           0       -1.095216   -0.926996    1.328403
     17          7           0       -2.059309    0.024612   -0.494597
     18          1           0       -1.873804    0.586710   -1.313897
     19          6           0       -3.054017   -1.030280   -0.631097
     20          1           0       -3.361820   -1.343678    0.367403
     21          1           0       -3.918614   -0.640173   -1.175297
     22          1           0       -2.659024   -1.908584   -1.157797
 ---------------------------------------------------------------------

 SCF Done:  E(RHF) =  -492.903281821     A.U. after   14 cycles
 E2 =    -0.1603662088D+01 EUMP2 =    -0.49450694390881D+03

 The electronic state is 1-A.
 Alpha  occ. eigenvalues --  -20.52923 -20.52077 -15.59967 -15.58922 -11.36194
 Alpha  occ. eigenvalues --  -11.35456 -11.29970 -11.26026 -11.25186 -11.24727
 Alpha  occ. eigenvalues --   -1.38621  -1.37391  -1.24035  -1.22281  -1.05953
 Alpha  occ. eigenvalues --   -0.99235  -0.94805  -0.88604  -0.80443  -0.77263
 Alpha  occ. eigenvalues --   -0.69905  -0.68796  -0.66468  -0.63637  -0.61869
 Alpha  occ. eigenvalues --   -0.61010  -0.59481  -0.57722  -0.57535  -0.56034
 Alpha  occ. eigenvalues --   -0.55027  -0.54382  -0.53461  -0.51634  -0.49925
 Alpha  occ. eigenvalues --   -0.42544  -0.40982  -0.39671  -0.38501
 Alpha virt. eigenvalues --    0.02447   0.03517   0.04132   0.04553   0.05567
 Alpha virt. eigenvalues --    0.05875   0.06337   0.06750   0.07228   0.07905
 Alpha virt. eigenvalues --    0.08791   0.09505   0.10833   0.11977   0.12173

 Mulliken atomic charges:
              1
     1  H   -0.035255
     2  C    0.393826
     3  H   -0.059947
     4  H    0.059217
     5  C    0.573626
     6  O   -0.768897
     7  N   -0.636342
     8  H   -0.069711
     9  C    0.287446
    10  H   -0.146912
    11  C    0.732818
    12  H    0.006063
    13  H   -0.034731
    14  H   -0.158181
    15  C    1.024062
    16  O   -0.872941
    17  N   -0.593820
    18  H   -0.095089
    19  C    0.734163
    20  H   -0.107924
    21  H   -0.188081
    22  H   -0.043392
 Sum of Mulliken atomic charges =   0.00000

 Dipole moment (field-independent basis, Debye):
    X=              1.1310    Y=              5.5329    Z=             -2.5589  Tot=              6.2000
 Quadrupole moment (field-independent basis, Debye-Ang):
   XX=            -48.6599   YY=            -64.0938   ZZ=            -63.0255
   XY=              3.3168   XZ=              5.2960   YZ=              3.2494

 Normal termination of Gaussian 09 at Mon Feb 13 20:31:29 2017.
