 Gaussian 09, Revision A.02,
 Gaussian 09:  EM64L-G09RevA.02 11-Jun-2009

 -------------------
 #SP MP2/aug-cc-pVDZ
 -------------------

 -------------------------------
 Single Point calculation at MP2
 -------------------------------
 Symbolic Z-matrix:
 Charge =  0 Multiplicity = 1

                         Standard orientation:
 ---------------------------------------------------------------------
 Center     Atomic      Atomic             Coordinates (Angstroms)
 Number     Number       Type             X           Y           Z
 ---------------------------------------------------------------------
      1          1           0        4.073486   -1.021405   -0.562705
      2          6           0        3.549787   -0.178004   -0.110805
      3          1           0        3.826688    0.743296   -0.636905
      4          1           0        3.877787   -0.083705    0.931995
      5          6           0        2.045586   -0.458702   -0.162305
      6          8           0        1.609685   -1.577501   -0.340505
      7          7           0        1.286388    0.700399   -0.045505
      8          1           0        1.861389    1.517098    0.123495
      9          6           0       -0.080111    0.949901    0.447595
     10          1           0       -0.039711    1.033301    1.545895
     11          6           0       -0.523909    2.311602   -0.105605
     12          1           0       -0.613609    2.289902   -1.197905
     13          1           0       -1.474509    2.625804    0.335495
     14          1           0        0.216092    3.081301    0.143995
     15          6           0       -1.093213   -0.212397    0.264195
     16          8           0       -0.893515   -1.313897    0.744195
     17          7           0       -2.329213    0.152305   -0.213905
     18          1           0       -2.400211    0.970905   -0.800605
     19          6           0       -3.371114   -0.854494   -0.357605
     20          1           0       -3.369515   -1.484594    0.533195
     21          1           0       -4.339413   -0.355592   -0.452605
     22          1           0       -3.210215   -1.501494   -1.229805
 ---------------------------------------------------------------------

 SCF Done:  E(RHF) =  -492.892437570     A.U. after   14 cycles
 E2 =    -0.1604533946D+01 EUMP2 =    -0.49449697151653D+03

 The electronic state is 1-A.
 Alpha  occ. eigenvalues --  -20.52245 -20.52197 -15.59489 -15.59230 -11.35722
 Alpha  occ. eigenvalues --  -11.35613 -11.30532 -11.26348 -11.25484 -11.24221
 Alpha  occ. eigenvalues --   -1.38388  -1.37217  -1.23678  -1.22499  -1.06057
 Alpha  occ. eigenvalues --   -0.98729  -0.95005  -0.88982  -0.80171  -0.77332
 Alpha  occ. eigenvalues --   -0.69722  -0.68443  -0.66032  -0.64127  -0.61641
 Alpha  occ. eigenvalues --   -0.60792  -0.59664  -0.57639  -0.57213  -0.56233
 Alpha  occ. eigenvalues --   -0.55235  -0.54186  -0.53879  -0.51653  -0.49521
 Alpha  occ. eigenvalues --   -0.42832  -0.40053  -0.39215  -0.38621
 Alpha virt. eigenvalues --    0.02419   0.03396   0.04155   0.04492   0.05587
 Alpha virt. eigenvalues --    0.05693   0.06308   0.06692   0.07338   0.07832
 Alpha virt. eigenvalues --    0.09042   0.09452   0.10909   0.11400   0.12559

 Mulliken atomic charges:
              1
     1  H   -0.063770
     2  C    0.311150
     3  H   -0.028954
     4  H    0.054124
     5  C    0.606309
     6  O   -0.735973
     7  N   -0.694573
     8  H   -0.059551
     9  C    0.362808
    10  H   -0.053336
    11  C    0.727731
    12  H    0.030892
    13  H    0.005896
    14  H   -0.221755
    15  C    0.806693
    16  O   -0.807392
    17  N   -0.529873
    18  H   -0.126539
    19  C    0.767618
    20  H   -0.097431
    21  H   -0.200486
    22  H   -0.053587
 Sum of Mulliken atomic charges =   0.00000

 Dipole moment (field-independent basis, Debye):
    X=             -0.4458    Y=              6.5669    Z=             -0.6854  Tot=              6.6176
 Quadrupole moment (field-independent basis, Debye-Ang):
   XX=            -47.2598   YY=            -66.1277   ZZ=            -61.4291
   XY=              3.5907   XZ=              4.7426   YZ=              1.3509

 Normal termination of Gaussian 09 at Mon Feb 13 19:51:36 2017.
