 Gaussian 09, Revision A.02,
 Gaussian 09:  EM64L-G09RevA.02 11-Jun-2009

 -------------------
 #SP MP2/aug-cc-pVDZ
 -------------------

 -------------------------------
 Single Point calculation at MP2
 -------------------------------
 Symbolic Z-matrix:
 Charge =  0 Multiplicity = 1

                         Standard orientation:
 ---------------------------------------------------------------------
 Center     Atomic      Atomic             Coordinates (Angstroms)
 Number     Number       Type             X           Y           Z
 ---------------------------------------------------------------------
      1          1           0        3.941004   -1.184894   -0.642386
      2          6           0        3.489303   -0.304095   -0.183986
      3          1           0        3.813202    0.592806   -0.724786
      4          1           0        3.851403   -0.225994    0.848714
      5          6           0        1.970903   -0.477596   -0.188786
      6          8           0        1.445104   -1.565097   -0.325186
      7          7           0        1.284502    0.725003   -0.087586
      8          1           0        1.899301    1.517003    0.061314
      9          6           0       -0.049999    1.004501    0.474014
     10          1           0        0.049001    1.106201    1.565214
     11          6           0       -0.524000    2.351201   -0.086786
     12          1           0       -0.615400    2.322301   -1.178986
     13          1           0       -1.483500    2.641700    0.350614
     14          1           0        0.200799    3.138302    0.154414
     15          6           0       -1.066997   -0.163800    0.362814
     16          8           0       -0.952096   -1.155900    1.062114
     17          7           0       -2.210098    0.097999   -0.348786
     18          1           0       -2.178598    0.813899   -1.060686
     19          6           0       -3.229596   -0.931702   -0.489386
     20          1           0       -3.351596   -1.428903    0.474014
     21          1           0       -4.173497   -0.464503   -0.783586
     22          1           0       -2.954696   -1.692002   -1.231986
 ---------------------------------------------------------------------

 SCF Done:  E(RHF) =  -492.897661649     A.U. after   14 cycles
 E2 =    -0.1604240480D+01 EUMP2 =    -0.49450190212833D+03

 The electronic state is 1-A.
 Alpha  occ. eigenvalues --  -20.52584 -20.52115 -15.59658 -15.59140 -11.35856
 Alpha  occ. eigenvalues --  -11.35586 -11.30230 -11.26222 -11.25282 -11.24449
 Alpha  occ. eigenvalues --   -1.38433  -1.37346  -1.23785  -1.22438  -1.05955
 Alpha  occ. eigenvalues --   -0.98972  -0.94928  -0.88777  -0.80214  -0.77327
 Alpha  occ. eigenvalues --   -0.69823  -0.68577  -0.66197  -0.63907  -0.61741
 Alpha  occ. eigenvalues --   -0.60886  -0.59557  -0.57630  -0.57347  -0.56129
 Alpha  occ. eigenvalues --   -0.55176  -0.54270  -0.53690  -0.51723  -0.49627
 Alpha  occ. eigenvalues --   -0.42619  -0.40598  -0.39433  -0.38512
 Alpha virt. eigenvalues --    0.02463   0.03451   0.04177   0.04507   0.05585
 Alpha virt. eigenvalues --    0.05805   0.06340   0.06712   0.07301   0.07814
 Alpha virt. eigenvalues --    0.09028   0.09407   0.10848   0.11716   0.12362

 Mulliken atomic charges:
              1
     1  H   -0.055144
     2  C    0.352516
     3  H   -0.036942
     4  H    0.054413
     5  C    0.601166
     6  O   -0.748567
     7  N   -0.691129
     8  H   -0.063514
     9  C    0.307190
    10  H   -0.096384
    11  C    0.732547
    12  H    0.036495
    13  H   -0.017330
    14  H   -0.197491
    15  C    0.903889
    16  O   -0.839395
    17  N   -0.539774
    18  H   -0.117387
    19  C    0.755700
    20  H   -0.103268
    21  H   -0.191870
    22  H   -0.045722
 Sum of Mulliken atomic charges =   0.00000

 Dipole moment (field-independent basis, Debye):
    X=              0.2432    Y=              6.1032    Z=             -1.4638  Tot=              6.2810
 Quadrupole moment (field-independent basis, Debye-Ang):
   XX=            -47.4365   YY=            -65.2564   ZZ=            -62.2646
   XY=              3.3450   XZ=              5.2773   YZ=              2.2938

 Normal termination of Gaussian 09 at Mon Feb 13 20:35:57 2017.
