 Gaussian 09, Revision A.02,
 Gaussian 09:  EM64L-G09RevA.02 11-Jun-2009

 -------------------
 #SP MP2/aug-cc-pVDZ
 -------------------

 -------------------------------
 Single Point calculation at MP2
 -------------------------------
 Symbolic Z-matrix:
 Charge =  0 Multiplicity = 1

                         Standard orientation:
 ---------------------------------------------------------------------
 Center     Atomic      Atomic             Coordinates (Angstroms)
 Number     Number       Type             X           Y           Z
 ---------------------------------------------------------------------
      1          1           0       -3.753101   -0.730587    1.005095
      2          6           0       -3.399700   -0.429988    0.014095
      3          1           0       -3.806497    0.557814   -0.222505
      4          1           0       -3.789903   -1.156986   -0.704305
      5          6           0       -1.877201   -0.510293    0.001895
      6          8           0       -1.335204   -1.590695    0.245395
      7          7           0       -1.253896    0.663204   -0.289905
      8          1           0       -1.898694    1.424507   -0.455205
      9          6           0        0.144405    1.163599   -0.386805
     10          1           0        0.277707    1.464899   -1.435705
     11          6           0        0.240110    2.427799    0.483095
     12          1           0        0.082709    2.179600    1.538195
     13          1           0        1.230412    2.869096    0.368995
     14          1           0       -0.515887    3.164702    0.184695
     15          6           0        1.400502    0.282095   -0.125805
     16          8           0        2.475104    0.880891   -0.071605
     17          7           0        1.298397   -1.056905   -0.087705
     18          1           0        0.368796   -1.474701    0.012395
     19          6           0        2.488895   -1.869209    0.100995
     20          1           0        3.256196   -1.587912   -0.625705
     21          1           0        2.915495   -1.741610    1.103895
     22          1           0        2.219991   -2.918508   -0.041705
 ---------------------------------------------------------------------

 SCF Done:  E(RHF) =  -492.910500787     A.U. after   14 cycles
 E2 =    -0.1605089714D+01 EUMP2 =    -0.49451559050045D+03

 The electronic state is 1-A.
 Alpha  occ. eigenvalues --  -20.54787 -20.51800 -15.61970 -15.57149 -11.38679
 Alpha  occ. eigenvalues --  -11.35461 -11.30746 -11.26067 -11.25433 -11.23708
 Alpha  occ. eigenvalues --   -1.40206  -1.37362  -1.25662  -1.21636  -1.06383
 Alpha  occ. eigenvalues --   -1.00072  -0.94962  -0.87928  -0.82282  -0.77013
 Alpha  occ. eigenvalues --   -0.71193  -0.70695  -0.66411  -0.63356  -0.62499
 Alpha  occ. eigenvalues --   -0.60934  -0.60310  -0.59327  -0.58216  -0.56119
 Alpha  occ. eigenvalues --   -0.54096  -0.53793  -0.52749  -0.52078  -0.49940
 Alpha  occ. eigenvalues --   -0.43977  -0.41776  -0.40963  -0.37663
 Alpha virt. eigenvalues --    0.02341   0.04058   0.04337   0.04508   0.05601
 Alpha virt. eigenvalues --    0.06236   0.06500   0.06647   0.07405   0.08025
 Alpha virt. eigenvalues --    0.09176   0.09443   0.11559   0.11818   0.12740

 Mulliken atomic charges:
              1
     1  H    0.041414
     2  C    0.483165
     3  H   -0.183799
     4  H    0.040079
     5  C    0.557675
     6  O   -0.947368
     7  N   -0.461439
     8  H   -0.040082
     9  C    0.018089
    10  H   -0.007758
    11  C    0.675923
    12  H   -0.054984
    13  H   -0.029607
    14  H   -0.098568
    15  C    0.778325
    16  O   -0.853969
    17  N   -0.286610
    18  H    0.008197
    19  C    0.706862
    20  H   -0.089115
    21  H   -0.043909
    22  H   -0.212519
 Sum of Mulliken atomic charges =   0.00000

 Dipole moment (field-independent basis, Debye):
    X=             -4.7814    Y=              1.3559    Z=             -0.6783  Tot=              5.0160
 Quadrupole moment (field-independent basis, Debye-Ang):
   XX=            -61.5259   YY=            -61.4184   ZZ=            -60.8626
   XY=            -10.6564   XZ=              1.5602   YZ=             -0.2737

 Normal termination of Gaussian 09 at Sun Feb 12 14:10:48 2017.
