 Gaussian 09, Revision A.02,
 Gaussian 09:  EM64L-G09RevA.02 11-Jun-2009

 -------------------
 #SP MP2/aug-cc-pVDZ
 -------------------

 -------------------------------
 Single Point calculation at MP2
 -------------------------------
 Symbolic Z-matrix:
 Charge =  0 Multiplicity = 1

                         Standard orientation:
 ---------------------------------------------------------------------
 Center     Atomic      Atomic             Coordinates (Angstroms)
 Number     Number       Type             X           Y           Z
 ---------------------------------------------------------------------
      1          1           0       -3.348381   -2.013846    0.000392
      2          6           0       -3.124192   -0.960344    0.178792
      3          1           0       -3.346295   -0.741646    1.230092
      4          1           0       -3.774399   -0.339351   -0.446608
      5          6           0       -1.640995   -0.725928   -0.075208
      6          8           0       -0.802086   -1.590419    0.135792
      7          7           0       -1.334008    0.512175   -0.589308
      8          1           0       -2.105215    1.165867   -0.644008
      9          6           0       -0.014015    1.161690   -0.543508
     10          1           0        0.316283    1.330493   -1.578708
     11          6           0       -0.114729    2.511689    0.170892
     12          1           0       -0.333028    2.352386    1.229692
     13          1           0        0.833165    3.053799    0.093792
     14          1           0       -0.896936    3.135580   -0.279008
     15          6           0        1.053594    0.290801    0.167692
     16          8           0        1.168294    0.295802    1.383892
     17          7           0        1.953301   -0.308089   -0.671408
     18          1           0        1.630903   -0.481293   -1.614908
     19          6           0        2.896311   -1.276279   -0.127308
     20          1           0        3.352007   -0.851774    0.768492
     21          1           0        2.397921   -2.213985    0.149792
     22          1           0        3.673413   -1.477671   -0.869608
 ---------------------------------------------------------------------

 SCF Done:  E(RHF) =  -492.914048789     A.U. after   14 cycles
 E2 =    -0.1604141687D+01 EUMP2 =    -0.49451819047543D+03

 The electronic state is 1-A.
 Alpha  occ. eigenvalues --  -20.53303 -20.52260 -15.60261 -15.58478 -11.36675
 Alpha  occ. eigenvalues --  -11.35422 -11.29790 -11.25489 -11.24965 -11.23823
 Alpha  occ. eigenvalues --   -1.39066  -1.37408  -1.24241  -1.22136  -1.05611
 Alpha  occ. eigenvalues --   -0.99313  -0.95023  -0.87155  -0.80846  -0.76808
 Alpha  occ. eigenvalues --   -0.69944  -0.69198  -0.66750  -0.63101  -0.61928
 Alpha  occ. eigenvalues --   -0.61193  -0.59774  -0.58196  -0.57452  -0.55116
 Alpha  occ. eigenvalues --   -0.53869  -0.53565  -0.53279  -0.51234  -0.50007
 Alpha  occ. eigenvalues --   -0.42467  -0.42141  -0.39758  -0.38560
 Alpha virt. eigenvalues --    0.02599   0.03689   0.04224   0.04739   0.05643
 Alpha virt. eigenvalues --    0.06036   0.06573   0.06979   0.07342   0.08380
 Alpha virt. eigenvalues --    0.09013   0.09171   0.11183   0.11809   0.12310

 Mulliken atomic charges:
              1
     1  H   -0.007025
     2  C    0.375614
     3  H    0.063877
     4  H   -0.088714
     5  C    0.689079
     6  O   -0.837625
     7  N   -0.438176
     8  H   -0.051811
     9  C   -0.239366
    10  H   -0.282951
    11  C    0.672946
    12  H    0.021620
    13  H   -0.029141
    14  H   -0.053223
    15  C    1.270880
    16  O   -0.900408
    17  N   -0.498971
    18  H   -0.070757
    19  C    0.734070
    20  H   -0.105249
    21  H   -0.036803
    22  H   -0.187865
 Sum of Mulliken atomic charges =   0.00000

 Dipole moment (field-independent basis, Debye):
    X=             -2.4065    Y=              2.2355    Z=             -3.7077  Tot=              4.9534
 Quadrupole moment (field-independent basis, Debye-Ang):
   XX=            -49.8431   YY=            -61.4952   ZZ=            -63.8341
   XY=             -4.4467   XZ=             -4.2864   YZ=             -0.1067

 Normal termination of Gaussian 09 at Sun Feb 12 13:50:42 2017.
