 Gaussian 09, Revision A.02,
 Gaussian 09:  EM64L-G09RevA.02 11-Jun-2009

 -------------------
 #SP MP2/aug-cc-pVDZ
 -------------------

 -------------------------------
 Single Point calculation at MP2
 -------------------------------
 Symbolic Z-matrix:
 Charge =  0 Multiplicity = 1

                         Standard orientation:
 ---------------------------------------------------------------------
 Center     Atomic      Atomic             Coordinates (Angstroms)
 Number     Number       Type             X           Y           Z
 ---------------------------------------------------------------------
      1          1           0       -3.883811    0.103446   -0.295809
      2          6           0       -3.262000   -0.603044    0.265991
      3          1           0       -3.673584   -1.608350    0.164291
      4          1           0       -3.296904   -0.318944    1.324891
      5          6           0       -1.815099   -0.614822   -0.209209
      6          8           0       -1.159784   -1.638711   -0.291209
      7          7           0       -1.334419    0.624786   -0.607509
      8          1           0       -1.988030    1.380176   -0.435109
      9          6           0        0.057774    1.079607   -0.490509
     10          1           0        0.423870    1.330613   -1.497109
     11          6           0        0.121055    2.344208    0.378891
     12          1           0       -0.174341    2.100904    1.403491
     13          1           0        1.139349    2.745824    0.394991
     14          1           0       -0.542357    3.122898   -0.017309
     15          6           0        1.009290    0.037722    0.137991
     16          8           0        0.819597   -0.408481    1.259091
     17          7           0        2.200993   -0.096060   -0.524809
     18          1           0        2.209389    0.110241   -1.514709
     19          6           0        3.221307   -1.007944   -0.028609
     20          1           0        3.030023   -2.046947   -0.326409
     21          1           0        4.199902   -0.698529   -0.406509
     22          1           0        3.218006   -0.959244    1.061191
 ---------------------------------------------------------------------

 SCF Done:  E(RHF) =  -492.907478476     A.U. after   15 cycles
 E2 =    -0.1605102725D+01 EUMP2 =    -0.49451258120094D+03

 The electronic state is 1-A.
 Alpha  occ. eigenvalues --  -20.52727 -20.52305 -15.59366 -15.59292 -11.35839
 Alpha  occ. eigenvalues --  -11.35673 -11.29924 -11.26231 -11.24494 -11.24353
 Alpha  occ. eigenvalues --   -1.38712  -1.37274  -1.23626  -1.22613  -1.05553
 Alpha  occ. eigenvalues --   -0.98953  -0.95479  -0.87461  -0.80341  -0.77211
 Alpha  occ. eigenvalues --   -0.69612  -0.68545  -0.66608  -0.63353  -0.62124
 Alpha  occ. eigenvalues --   -0.61178  -0.59443  -0.57954  -0.57422  -0.54926
 Alpha  occ. eigenvalues --   -0.54689  -0.54231  -0.53343  -0.51722  -0.49025
 Alpha  occ. eigenvalues --   -0.42433  -0.41711  -0.39309  -0.38829
 Alpha virt. eigenvalues --    0.02695   0.03512   0.04471   0.04530   0.05742
 Alpha virt. eigenvalues --    0.06064   0.06450   0.06868   0.07279   0.08222
 Alpha virt. eigenvalues --    0.09006   0.09207   0.11258   0.12085   0.12453

 Mulliken atomic charges:
              1
     1  H   -0.028552
     2  C    0.315414
     3  H   -0.041545
     4  H    0.062759
     5  C    0.698799
     6  O   -0.807421
     7  N   -0.546819
     8  H    0.021105
     9  C   -0.056295
    10  H   -0.299379
    11  C    0.617839
    12  H    0.027737
    13  H   -0.070097
    14  H   -0.066714
    15  C    1.294728
    16  O   -0.891226
    17  N   -0.527151
    18  H   -0.102144
    19  C    0.736876
    20  H   -0.050160
    21  H   -0.180337
    22  H   -0.107417
 Sum of Mulliken atomic charges =   0.00000

 Dipole moment (field-independent basis, Debye):
    X=             -0.2270    Y=              4.2370    Z=             -2.3849  Tot=              4.8674
 Quadrupole moment (field-independent basis, Debye-Ang):
   XX=            -46.5929   YY=            -63.4366   ZZ=            -63.3162
   XY=             -4.4625   XZ=             -5.5734   YZ=             -0.1042

 Normal termination of Gaussian 09 at Sun Feb 12 13:57:52 2017.
