 Gaussian 09, Revision A.02,
 Gaussian 09:  EM64L-G09RevA.02 11-Jun-2009

 -------------------
 #SP MP2/aug-cc-pVDZ
 -------------------

 -------------------------------
 Single Point calculation at MP2
 -------------------------------
 Symbolic Z-matrix:
 Charge =  0 Multiplicity = 1

                         Standard orientation:
 ---------------------------------------------------------------------
 Center     Atomic      Atomic             Coordinates (Angstroms)
 Number     Number       Type             X           Y           Z
 ---------------------------------------------------------------------
      1          1           0       -3.499398   -1.845801    0.088299
      2          6           0       -3.191996   -0.805401    0.206599
      3          1           0       -3.330896   -0.523801    1.257499
      4          1           0       -3.834395   -0.163600   -0.406501
      5          6           0       -1.718296   -0.685004   -0.156101
      6          8           0       -0.948398   -1.630206   -0.090001
      7          7           0       -1.338994    0.561095   -0.616601
      8          1           0       -2.060892    1.268896   -0.549301
      9          6           0        0.015907    1.124092   -0.516101
     10          1           0        0.375208    1.335192   -1.533901
     11          6           0       -0.018190    2.436692    0.274899
     12          1           0       -0.285391    2.230593    1.314699
     13          1           0        0.965611    2.916990    0.258299
     14          1           0       -0.741689    3.137194   -0.160201
     15          6           0        1.018905    0.168990    0.174299
     16          8           0        0.961205   -0.049610    1.375099
     17          7           0        2.087905   -0.188612   -0.601101
     18          1           0        1.949405   -0.179712   -1.603001
     19          6           0        3.079003   -1.121214   -0.082901
     20          1           0        3.306903   -0.843214    0.947299
     21          1           0        2.711401   -2.155213   -0.086101
     22          1           0        3.987303   -1.055316   -0.688101
 ---------------------------------------------------------------------

 SCF Done:  E(RHF) =  -492.911521846     A.U. after   15 cycles
 E2 =    -0.1604655995D+01 EUMP2 =    -0.49451617784196D+03

 The electronic state is 1-A.
 Alpha  occ. eigenvalues --  -20.53060 -20.52144 -15.59776 -15.58948 -11.36239
 Alpha  occ. eigenvalues --  -11.35507 -11.29790 -11.25896 -11.24654 -11.24124
 Alpha  occ. eigenvalues --   -1.38868  -1.37301  -1.23883  -1.22405  -1.05533
 Alpha  occ. eigenvalues --   -0.99138  -0.95286  -0.87266  -0.80516  -0.77087
 Alpha  occ. eigenvalues --   -0.69730  -0.68885  -0.66668  -0.63242  -0.61862
 Alpha  occ. eigenvalues --   -0.61304  -0.59557  -0.58105  -0.57420  -0.54928
 Alpha  occ. eigenvalues --   -0.54304  -0.53947  -0.53295  -0.51466  -0.49433
 Alpha  occ. eigenvalues --   -0.42287  -0.42013  -0.39468  -0.38786
 Alpha virt. eigenvalues --    0.02688   0.03583   0.04387   0.04610   0.05704
 Alpha virt. eigenvalues --    0.06055   0.06560   0.06909   0.07330   0.08249
 Alpha virt. eigenvalues --    0.09051   0.09122   0.11214   0.12080   0.12235

 Mulliken atomic charges:
              1
     1  H   -0.028830
     2  C    0.349302
     3  H    0.065279
     4  H   -0.052446
     5  C    0.682807
     6  O   -0.817975
     7  N   -0.486384
     8  H   -0.006224
     9  C   -0.164683
    10  H   -0.305216
    11  C    0.652140
    12  H    0.020218
    13  H   -0.051093
    14  H   -0.066144
    15  C    1.332352
    16  O   -0.913012
    17  N   -0.527466
    18  H   -0.089085
    19  C    0.736147
    20  H   -0.102353
    21  H   -0.042136
    22  H   -0.185201
 Sum of Mulliken atomic charges =   0.00000

 Dipole moment (field-independent basis, Debye):
    X=             -1.3019    Y=              3.2331    Z=             -3.1690  Tot=              4.7107
 Quadrupole moment (field-independent basis, Debye-Ang):
   XX=            -47.6909   YY=            -62.4249   ZZ=            -63.7112
   XY=             -4.3519   XZ=             -5.0101   YZ=             -0.0446

 Normal termination of Gaussian 09 at Sun Feb 12 14:06:59 2017.
