 Gaussian 09, Revision A.02,
 Gaussian 09:  EM64L-G09RevA.02 11-Jun-2009

 -------------------
 #SP MP2/aug-cc-pVDZ
 -------------------

 -------------------------------
 Single Point calculation at MP2
 -------------------------------
 Symbolic Z-matrix:
 Charge =  0 Multiplicity = 1

                         Standard orientation:
 ---------------------------------------------------------------------
 Center     Atomic      Atomic             Coordinates (Angstroms)
 Number     Number       Type             X           Y           Z
 ---------------------------------------------------------------------
      1          1           0       -4.090902   -1.065079   -0.090191
      2          6           0       -3.428099   -0.350981   -0.580391
      3          1           0       -3.902395    0.638221   -0.579991
      4          1           0       -3.289800   -0.656382   -1.625091
      5          6           0       -2.084899   -0.351987    0.152309
      6          8           0       -1.802603   -1.199488    0.971409
      7          7           0       -1.306494    0.766809   -0.162391
      8          1           0       -1.794392    1.373512   -0.810391
      9          6           0        0.142807    0.988003   -0.316191
     10          1           0        0.306808    1.269103   -1.366491
     11          6           0        0.532812    2.192502    0.571009
     12          1           0        0.481511    1.914502    1.628009
     13          1           0        1.535614    2.580297    0.356809
     14          1           0       -0.171084    3.014305    0.404809
     15          6           0        1.078902   -0.228501   -0.099991
     16          8           0        0.711797   -1.380999    0.029309
     17          7           0        2.407103    0.093794   -0.268591
     18          1           0        2.689007    1.061892   -0.241191
     19          6           0        3.447199   -0.911711   -0.123891
     20          1           0        4.275000   -0.687115   -0.803591
     21          1           0        3.834298   -0.967513    0.902409
     22          1           0        3.016194   -1.880009   -0.381091
 ---------------------------------------------------------------------

 SCF Done:  E(RHF) =  -492.887966317     A.U. after   14 cycles
 E2 =    -0.1603945220D+01 EUMP2 =    -0.49449191153647D+03

 The electronic state is 1-A.
 Alpha  occ. eigenvalues --  -20.52736 -20.51998 -15.59132 -15.58943 -11.36124
 Alpha  occ. eigenvalues --  -11.35366 -11.30807 -11.26516 -11.24975 -11.23978
 Alpha  occ. eigenvalues --   -1.38708  -1.37032  -1.23376  -1.22488  -1.05782
 Alpha  occ. eigenvalues --   -0.98523  -0.95179  -0.88551  -0.80235  -0.77000
 Alpha  occ. eigenvalues --   -0.69905  -0.68491  -0.65105  -0.63924  -0.61253
 Alpha  occ. eigenvalues --   -0.61019  -0.60522  -0.57717  -0.57068  -0.56522
 Alpha  occ. eigenvalues --   -0.54823  -0.54116  -0.53478  -0.51506  -0.49190
 Alpha  occ. eigenvalues --   -0.42922  -0.40502  -0.39129  -0.38107
 Alpha virt. eigenvalues --    0.02322   0.03435   0.04139   0.04589   0.05564
 Alpha virt. eigenvalues --    0.05683   0.06432   0.06850   0.07208   0.07995
 Alpha virt. eigenvalues --    0.09052   0.09157   0.11139   0.11700   0.12552

 Mulliken atomic charges:
              1
     1  H   -0.061770
     2  C    0.263933
     3  H   -0.019808
     4  H    0.038731
     5  C    0.769054
     6  O   -0.729248
     7  N   -0.588279
     8  H   -0.052376
     9  C    0.190288
    10  H   -0.072105
    11  C    0.669087
    12  H   -0.018450
    13  H   -0.140699
    14  H   -0.095125
    15  C    0.881967
    16  O   -0.751085
    17  N   -0.540358
    18  H   -0.110333
    19  C    0.725067
    20  H   -0.164930
    21  H   -0.071298
    22  H   -0.122263
 Sum of Mulliken atomic charges =   0.00000

 Dipole moment (field-independent basis, Debye):
    X=              1.6099    Y=              5.7154    Z=             -3.0701  Tot=              6.6846
 Quadrupole moment (field-independent basis, Debye-Ang):
   XX=            -47.9210   YY=            -64.1461   ZZ=            -62.5151
   XY=             -1.9240   XZ=              5.7668   YZ=              1.7399

 Normal termination of Gaussian 09 at Sun Feb 12 13:49:27 2017.
