 Gaussian 09, Revision A.02,
 Gaussian 09:  EM64L-G09RevA.02 11-Jun-2009

 -------------------
 #SP MP2/aug-cc-pVDZ
 -------------------

 -------------------------------
 Single Point calculation at MP2
 -------------------------------
 Symbolic Z-matrix:
 Charge =  0 Multiplicity = 1

                         Standard orientation:
 ---------------------------------------------------------------------
 Center     Atomic      Atomic             Coordinates (Angstroms)
 Number     Number       Type             X           Y           Z
 ---------------------------------------------------------------------
      1          1           0       -3.851090   -1.624509   -0.388110
      2          6           0       -3.149191   -1.283508    0.376190
      3          1           0       -2.631289   -2.146907    0.805790
      4          1           0       -3.731991   -0.796709    1.166990
      5          6           0       -2.204692   -0.266707   -0.247510
      6          8           0       -2.575793    0.546193   -1.078310
      7          7           0       -0.887292   -0.351505    0.181590
      8          1           0       -0.773291   -0.809105    1.080990
      9          6           0        0.028607    0.770196   -0.054810
     10          1           0       -0.283294    1.205896   -1.007210
     11          6           0       -0.064395    1.852096    1.032990
     12          1           0        0.185006    1.440996    2.019390
     13          1           0        0.638804    2.658397    0.810490
     14          1           0       -1.078795    2.261095    1.066790
     15          6           0        1.492507    0.333898   -0.225710
     16          8           0        2.336806    1.145799   -0.581310
     17          7           0        1.799609   -0.941301    0.170290
     18          1           0        1.038910   -1.607802    0.140990
     19          6           0        3.149110   -1.458900   -0.006210
     20          1           0        3.854109   -0.657699    0.219790
     21          1           0        3.311011   -2.293499    0.681790
     22          1           0        3.335910   -1.798899   -1.033510
 ---------------------------------------------------------------------

 SCF Done:  E(RHF) =  -492.921905199     A.U. after   14 cycles
 E2 =    -0.1601374272D+01 EUMP2 =    -0.49452327947119D+03

 The electronic state is 1-A.
 Alpha  occ. eigenvalues --  -20.54582 -20.53390 -15.60849 -15.59967 -11.37549
 Alpha  occ. eigenvalues --  -11.36176 -11.29115 -11.27123 -11.25849 -11.23673
 Alpha  occ. eigenvalues --   -1.39940  -1.38763  -1.25504  -1.22837  -1.05744
 Alpha  occ. eigenvalues --   -0.99980  -0.96124  -0.88055  -0.80381  -0.78563
 Alpha  occ. eigenvalues --   -0.73339  -0.68294  -0.66047  -0.63595  -0.63179
 Alpha  occ. eigenvalues --   -0.62758  -0.59546  -0.59213  -0.58550  -0.56954
 Alpha  occ. eigenvalues --   -0.55075  -0.54523  -0.52726  -0.52095  -0.49817
 Alpha  occ. eigenvalues --   -0.44141  -0.43846  -0.40156  -0.40042
 Alpha virt. eigenvalues --    0.02136   0.03688   0.04129   0.04787   0.05578
 Alpha virt. eigenvalues --    0.05917   0.06405   0.06690   0.07395   0.08197
 Alpha virt. eigenvalues --    0.08384   0.09020   0.11189   0.12410   0.12549

 Mulliken atomic charges:
              1
     1  H    0.008366
     2  C    0.343926
     3  H   -0.107183
     4  H    0.050244
     5  C    0.583937
     6  O   -0.823472
     7  N   -0.275248
     8  H   -0.066465
     9  C   -0.235119
    10  H   -0.016053
    11  C    0.732955
    12  H   -0.047641
    13  H   -0.033699
    14  H   -0.074780
    15  C    1.052799
    16  O   -0.873543
    17  N   -0.582493
    18  H   -0.075587
    19  C    0.767386
    20  H   -0.109785
    21  H   -0.167587
    22  H   -0.050957
 Sum of Mulliken atomic charges =   0.00000

 Dipole moment (field-independent basis, Debye):
    X=             -0.9284    Y=             -4.7036    Z=              3.7450  Tot=              6.0836
 Quadrupole moment (field-independent basis, Debye-Ang):
   XX=            -67.9111   YY=            -59.0970   ZZ=            -63.3215
   XY=             -1.9472   XZ=             -4.6491   YZ=              2.4791

 Normal termination of Gaussian 09 at Mon Feb 13 05:17:49 2017.
