 Gaussian 09, Revision A.02,
 Gaussian 09:  EM64L-G09RevA.02 11-Jun-2009

 -------------------
 #SP MP2/aug-cc-pVDZ
 -------------------

 -------------------------------
 Single Point calculation at MP2
 -------------------------------
 Symbolic Z-matrix:
 Charge =  0 Multiplicity = 1

                         Standard orientation:
 ---------------------------------------------------------------------
 Center     Atomic      Atomic             Coordinates (Angstroms)
 Number     Number       Type             X           Y           Z
 ---------------------------------------------------------------------
      1          1           0        3.728820   -1.769176   -0.004905
      2          6           0        3.104417   -1.167880   -0.669505
      3          1           0        2.598321   -1.822983   -1.386005
      4          1           0        3.766313   -0.492076   -1.223805
      5          6           0        2.144312   -0.343185    0.174795
      6          8           0        2.469709    0.147317    1.245395
      7          7           0        0.873311   -0.202892   -0.349005
      8          1           0        0.758313   -0.430993   -1.329905
      9          6           0       -0.053094    0.797702    0.189395
     10          1           0        0.171505    0.846504    1.260995
     11          6           0        0.153998    2.185803   -0.422905
     12          1           0        0.008998    2.162203   -1.509305
     13          1           0       -0.570506    2.888899   -0.007005
     14          1           0        1.167196    2.537209   -0.206805
     15          6           0       -1.518392    0.338094    0.045095
     16          8           0       -2.432796    1.146089   -0.065505
     17          7           0       -1.703484   -1.012407    0.085595
     18          1           0       -0.884781   -1.587802    0.226995
     19          6           0       -3.020280   -1.622115    0.077595
     20          1           0       -3.744785   -0.833019   -0.128905
     21          1           0       -3.090776   -2.391215   -0.700105
     22          1           0       -3.258478   -2.078216    1.046695
 ---------------------------------------------------------------------

 SCF Done:  E(RHF) =  -492.924567132     A.U. after   14 cycles
 E2 =    -0.1601399301D+01 EUMP2 =    -0.49452596643302D+03

 The electronic state is 1-A.
 Alpha  occ. eigenvalues --  -20.54385 -20.53200 -15.60831 -15.59649 -11.37499
 Alpha  occ. eigenvalues --  -11.36182 -11.29244 -11.27031 -11.25822 -11.22812
 Alpha  occ. eigenvalues --   -1.39796  -1.38571  -1.25482  -1.22755  -1.05605
 Alpha  occ. eigenvalues --   -0.99795  -0.96386  -0.87575  -0.80401  -0.78784
 Alpha  occ. eigenvalues --   -0.73401  -0.68159  -0.66032  -0.64626  -0.62575
 Alpha  occ. eigenvalues --   -0.62207  -0.60116  -0.59448  -0.58205  -0.56159
 Alpha  occ. eigenvalues --   -0.54971  -0.53825  -0.52516  -0.52138  -0.50198
 Alpha  occ. eigenvalues --   -0.43736  -0.43506  -0.40435  -0.39205
 Alpha virt. eigenvalues --    0.02312   0.03718   0.04242   0.04626   0.05606
 Alpha virt. eigenvalues --    0.06045   0.06400   0.06557   0.07146   0.08213
 Alpha virt. eigenvalues --    0.08363   0.09200   0.11187   0.12322   0.12659

 Mulliken atomic charges:
              1
     1  H    0.015498
     2  C    0.326988
     3  H   -0.118218
     4  H    0.052176
     5  C    0.616084
     6  O   -0.839230
     7  N   -0.310416
     8  H   -0.091460
     9  C   -0.358286
    10  H   -0.052508
    11  C    0.832950
    12  H   -0.060955
    13  H   -0.020050
    14  H   -0.068990
    15  C    1.132919
    16  O   -0.825794
    17  N   -0.541804
    18  H   -0.070486
    19  C    0.727330
    20  H   -0.148824
    21  H   -0.111088
    22  H   -0.085837
 Sum of Mulliken atomic charges =   0.00000

 Dipole moment (field-independent basis, Debye):
    X=              1.2117    Y=             -3.8653    Z=             -2.9955  Tot=              5.0381
 Quadrupole moment (field-independent basis, Debye-Ang):
   XX=            -69.0332   YY=            -58.8627   ZZ=            -62.5701
   XY=              4.6411   XZ=             -9.3621   YZ=              0.3123

 Normal termination of Gaussian 09 at Mon Feb 13 05:23:10 2017.
