 Gaussian 09, Revision A.02,
 Gaussian 09:  EM64L-G09RevA.02 11-Jun-2009

 -------------------
 #SP MP2/aug-cc-pVDZ
 -------------------

 -------------------------------
 Single Point calculation at MP2
 -------------------------------
 Symbolic Z-matrix:
 Charge =  0 Multiplicity = 1

                         Standard orientation:
 ---------------------------------------------------------------------
 Center     Atomic      Atomic             Coordinates (Angstroms)
 Number     Number       Type             X           Y           Z
 ---------------------------------------------------------------------
      1          1           0       -4.217507   -0.655502    0.670103
      2          6           0       -3.343107   -1.133901    0.219703
      3          1           0       -3.677107   -1.623202   -0.701497
      4          1           0       -2.956207   -1.893301    0.905703
      5          6           0       -2.324108   -0.061301   -0.134397
      6          8           0       -2.623908    0.934099   -0.786297
      7          7           0       -1.058208   -0.271800    0.342703
      8          1           0       -0.780807   -1.211300    0.610703
      9          6           0        0.047692    0.545200   -0.132097
     10          1           0       -0.133208    0.792400   -1.188997
     11          6           0        0.137591    1.864500    0.653303
     12          1           0        0.378192    1.682500    1.705603
     13          1           0        0.884791    2.549100    0.233103
     14          1           0       -0.831509    2.365100    0.591103
     15          6           0        1.310892   -0.337599   -0.060897
     16          8           0        1.227393   -1.555099    0.090703
     17          7           0        2.498292    0.316401   -0.156597
     18          1           0        2.489592    1.314801   -0.301997
     19          6           0        3.777292   -0.374098   -0.170897
     20          1           0        3.590593   -1.418598    0.079903
     21          1           0        4.249692   -0.323698   -1.159497
     22          1           0        4.457492    0.060702    0.569503
 ---------------------------------------------------------------------

 SCF Done:  E(RHF) =  -492.926564394     A.U. after   14 cycles
 E2 =    -0.1601082781D+01 EUMP2 =    -0.49452764717481D+03

 The electronic state is 1-A.
 Alpha  occ. eigenvalues --  -20.54380 -20.52685 -15.60708 -15.58656 -11.37259
 Alpha  occ. eigenvalues --  -11.35779 -11.29457 -11.27686 -11.24174 -11.23948
 Alpha  occ. eigenvalues --   -1.39928  -1.37900  -1.24536  -1.23329  -1.05509
 Alpha  occ. eigenvalues --   -0.99042  -0.96132  -0.88831  -0.80542  -0.77863
 Alpha  occ. eigenvalues --   -0.73099  -0.67459  -0.65889  -0.65465  -0.62904
 Alpha  occ. eigenvalues --   -0.61688  -0.59547  -0.58868  -0.56602  -0.56417
 Alpha  occ. eigenvalues --   -0.55470  -0.54418  -0.53452  -0.52430  -0.49094
 Alpha  occ. eigenvalues --   -0.43599  -0.42126  -0.40747  -0.39265
 Alpha virt. eigenvalues --    0.02805   0.03979   0.04350   0.04452   0.05848
 Alpha virt. eigenvalues --    0.06036   0.06358   0.06740   0.07408   0.07918
 Alpha virt. eigenvalues --    0.09173   0.10410   0.11343   0.11738   0.12749

 Mulliken atomic charges:
              1
     1  H    0.033816
     2  C    0.386630
     3  H    0.058729
     4  H   -0.133615
     5  C    0.493655
     6  O   -0.859343
     7  N   -0.352858
     8  H   -0.045183
     9  C    0.017770
    10  H   -0.038689
    11  C    0.698403
    12  H   -0.029672
    13  H   -0.085522
    14  H   -0.076658
    15  C    1.099064
    16  O   -0.885477
    17  N   -0.519158
    18  H   -0.111578
    19  C    0.698881
    20  H   -0.148650
    21  H   -0.086554
    22  H   -0.113991
 Sum of Mulliken atomic charges =   0.00000

 Dipole moment (field-independent basis, Debye):
    X=              3.0596    Y=              0.6086    Z=              1.0098  Tot=              3.2789
 Quadrupole moment (field-independent basis, Debye-Ang):
   XX=            -55.4768   YY=            -64.1685   ZZ=            -62.6039
   XY=             13.2821   XZ=             -6.0617   YZ=              1.3749

 Normal termination of Gaussian 09 at Mon Feb 13 04:20:31 2017.
