 Gaussian 09, Revision A.02,
 Gaussian 09:  EM64L-G09RevA.02 11-Jun-2009

 -------------------
 #SP MP2/aug-cc-pVDZ
 -------------------

 -------------------------------
 Single Point calculation at MP2
 -------------------------------
 Symbolic Z-matrix:
 Charge =  0 Multiplicity = 1

                         Standard orientation:
 ---------------------------------------------------------------------
 Center     Atomic      Atomic             Coordinates (Angstroms)
 Number     Number       Type             X           Y           Z
 ---------------------------------------------------------------------
      1          1           0        3.898904   -1.152218   -0.993603
      2          6           0        3.077803   -1.463816   -0.341803
      3          1           0        3.522602   -1.880817    0.567597
      4          1           0        2.500501   -2.247215   -0.843303
      5          6           0        2.257406   -0.238114    0.033497
      6          8           0        2.766908    0.765484    0.516397
      7          7           0        0.912306   -0.330111   -0.207603
      8          1           0        0.526204   -1.199810   -0.545903
      9          6           0       -0.012592    0.727491    0.213497
     10          1           0        0.347709    1.107790    1.172097
     11          6           0       -0.050089    1.890191   -0.789903
     12          1           0       -0.315390    1.558892   -1.801803
     13          1           0       -0.766487    2.656393   -0.473203
     14          1           0        0.943812    2.342189   -0.839503
     15          6           0       -1.379693    0.085494    0.512697
     16          8           0       -1.757194   -0.128105    1.655797
     17          7           0       -2.103794   -0.277504   -0.593803
     18          1           0       -1.808993    0.074395   -1.493503
     19          6           0       -3.436296   -0.850901   -0.488903
     20          1           0       -3.545597   -1.248201    0.520897
     21          1           0       -4.218894   -0.099599   -0.655803
     22          1           0       -3.560898   -1.659600   -1.216203
 ---------------------------------------------------------------------

 SCF Done:  E(RHF) =  -492.918989486     A.U. after   14 cycles
 E2 =    -0.1601612372D+01 EUMP2 =    -0.49452060185857D+03

 The electronic state is 1-A.
 Alpha  occ. eigenvalues --  -20.54047 -20.53176 -15.60547 -15.60352 -11.36773
 Alpha  occ. eigenvalues --  -11.36622 -11.29350 -11.27600 -11.25069 -11.24119
 Alpha  occ. eigenvalues --   -1.39457  -1.38558  -1.25011  -1.23299  -1.05874
 Alpha  occ. eigenvalues --   -0.99568  -0.96227  -0.89046  -0.79867  -0.79644
 Alpha  occ. eigenvalues --   -0.73283  -0.67672  -0.66435  -0.64596  -0.63005
 Alpha  occ. eigenvalues --   -0.62232  -0.59474  -0.58935  -0.57764  -0.56935
 Alpha  occ. eigenvalues --   -0.55717  -0.54786  -0.53320  -0.52188  -0.49834
 Alpha  occ. eigenvalues --   -0.43968  -0.42494  -0.40277  -0.39524
 Alpha virt. eigenvalues --    0.02250   0.03609   0.04155   0.04758   0.05665
 Alpha virt. eigenvalues --    0.05854   0.06262   0.06737   0.07528   0.07986
 Alpha virt. eigenvalues --    0.08272   0.09662   0.11524   0.11969   0.12482

 Mulliken atomic charges:
              1
     1  H    0.042718
     2  C    0.385478
     3  H    0.053297
     4  H   -0.170163
     5  C    0.543830
     6  O   -0.859227
     7  N   -0.221054
     8  H   -0.074296
     9  C    0.088529
    10  H   -0.145478
    11  C    0.742953
    12  H   -0.088804
    13  H   -0.035888
    14  H   -0.077551
    15  C    0.915232
    16  O   -0.837633
    17  N   -0.552602
    18  H   -0.087515
    19  C    0.726753
    20  H   -0.130920
    21  H   -0.083614
    22  H   -0.134044
 Sum of Mulliken atomic charges =   0.00000

 Dipole moment (field-independent basis, Debye):
    X=             -1.8469    Y=             -2.2891    Z=             -5.1581  Tot=              5.9377
 Quadrupole moment (field-independent basis, Debye-Ang):
   XX=            -64.1411   YY=            -58.1072   ZZ=            -65.9478
   XY=             -7.7545   XZ=              3.9416   YZ=              0.2127

 Normal termination of Gaussian 09 at Mon Feb 13 05:23:48 2017.
