 Gaussian 09, Revision A.02,
 Gaussian 09:  EM64L-G09RevA.02 11-Jun-2009

 -------------------
 #SP MP2/aug-cc-pVDZ
 -------------------

 -------------------------------
 Single Point calculation at MP2
 -------------------------------
 Symbolic Z-matrix:
 Charge =  0 Multiplicity = 1

                         Standard orientation:
 ---------------------------------------------------------------------
 Center     Atomic      Atomic             Coordinates (Angstroms)
 Number     Number       Type             X           Y           Z
 ---------------------------------------------------------------------
      1          1           0        4.095506   -0.778971   -1.016405
      2          6           0        3.176810   -1.235579   -0.640305
      3          1           0        3.456416   -1.934876    0.155895
      4          1           0        2.695515   -1.797783   -1.446705
      5          6           0        2.292401   -0.145286   -0.053605
      6          8           0        2.740994    0.765818    0.630195
      7          7           0        0.954702   -0.247797   -0.353505
      8          1           0        0.629010   -1.146600   -0.685105
      9          6           0       -0.022805    0.574595    0.374095
     10          1           0        0.310595    0.650297    1.415395
     11          6           0       -0.093017    1.988994   -0.213605
     12          1           0       -0.330916    1.972192   -1.284305
     13          1           0       -0.834722    2.599888    0.314295
     14          1           0        0.884379    2.463302   -0.099505
     15          6           0       -1.339998   -0.225416    0.418195
     16          8           0       -1.427690   -1.229017    1.117895
     17          7           0       -2.333202    0.190875   -0.417605
     18          1           0       -2.205609    1.050277   -0.930405
     19          6           0       -3.628496   -0.464935   -0.476705
     20          1           0       -3.554288   -1.389235    0.097395
     21          1           0       -4.417401    0.161858   -0.042905
     22          1           0       -3.894794   -0.700538   -1.513005
 ---------------------------------------------------------------------

 SCF Done:  E(RHF) =  -492.919432501     A.U. after   14 cycles
 E2 =    -0.1602194553D+01 EUMP2 =    -0.49452162705367D+03

 The electronic state is 1-A.
 Alpha  occ. eigenvalues --  -20.53732 -20.53319 -15.60625 -15.59884 -11.36815
 Alpha  occ. eigenvalues --  -11.36384 -11.29368 -11.27551 -11.24767 -11.23826
 Alpha  occ. eigenvalues --   -1.39361  -1.38506  -1.24510  -1.23524  -1.05700
 Alpha  occ. eigenvalues --   -0.99406  -0.96058  -0.89047  -0.79794  -0.78810
 Alpha  occ. eigenvalues --   -0.73137  -0.67600  -0.66490  -0.65066  -0.62645
 Alpha  occ. eigenvalues --   -0.62075  -0.59379  -0.58670  -0.56929  -0.56318
 Alpha  occ. eigenvalues --   -0.55744  -0.54533  -0.53932  -0.52454  -0.49445
 Alpha  occ. eigenvalues --   -0.43493  -0.42100  -0.40705  -0.39573
 Alpha virt. eigenvalues --    0.02658   0.03667   0.04337   0.04642   0.05709
 Alpha virt. eigenvalues --    0.05966   0.06115   0.06833   0.07462   0.07872
 Alpha virt. eigenvalues --    0.08658   0.09594   0.11302   0.12149   0.12354

 Mulliken atomic charges:
              1
     1  H    0.016912
     2  C    0.376247
     3  H    0.070371
     4  H   -0.115624
     5  C    0.495036
     6  O   -0.841473
     7  N   -0.449737
     8  H   -0.068575
     9  C    0.144472
    10  H   -0.045613
    11  C    0.746445
    12  H    0.029661
    13  H   -0.048092
    14  H   -0.154256
    15  C    1.024276
    16  O   -0.894287
    17  N   -0.566004
    18  H   -0.113518
    19  C    0.744249
    20  H   -0.147359
    21  H   -0.083510
    22  H   -0.119622
 Sum of Mulliken atomic charges =   0.00000

 Dipole moment (field-independent basis, Debye):
    X=             -2.5017    Y=              0.2197    Z=             -3.9762  Tot=              4.7029
 Quadrupole moment (field-independent basis, Debye-Ang):
   XX=            -59.3965   YY=            -61.5547   ZZ=            -63.8991
   XY=            -11.8201   XZ=             -0.3636   YZ=              2.7967

 Normal termination of Gaussian 09 at Mon Feb 13 05:43:59 2017.
