 Gaussian 09, Revision A.02,
 Gaussian 09:  EM64L-G09RevA.02 11-Jun-2009

 -------------------
 #SP MP2/aug-cc-pVDZ
 -------------------

 -------------------------------
 Single Point calculation at MP2
 -------------------------------
 Symbolic Z-matrix:
 Charge =  0 Multiplicity = 1

                         Standard orientation:
 ---------------------------------------------------------------------
 Center     Atomic      Atomic             Coordinates (Angstroms)
 Number     Number       Type             X           Y           Z
 ---------------------------------------------------------------------
      1          1           0       -4.168304   -0.732984    0.880399
      2          6           0       -3.228106   -1.191588    0.565499
      3          1           0       -3.456709   -1.897787   -0.241301
      4          1           0       -2.795309   -1.746890    1.403299
      5          6           0       -2.307202   -0.105792    0.029399
      6          8           0       -2.717398    0.827210   -0.649301
      7          7           0       -0.981002   -0.239997    0.372799
      8          1           0       -0.681806   -1.172998    0.631699
      9          6           0        0.030401    0.552699   -0.337901
     10          1           0       -0.273499    0.631200   -1.390301
     11          6           0        0.117407    1.969298    0.240299
     12          1           0        0.384707    1.953797    1.303399
     13          1           0        0.842810    2.580095   -0.311201
     14          1           0       -0.860991    2.444902    0.143799
     15          6           0        1.323798   -0.286607   -0.331001
     16          8           0        1.312893   -1.425807   -0.790001
     17          7           0        2.413100    0.263289    0.271099
     18          1           0        2.353104    1.211389    0.610199
     19          6           0        3.697797   -0.413617    0.327199
     20          1           0        3.547793   -1.431816   -0.033301
     21          1           0        4.441999    0.084180   -0.306501
     22          1           0        4.072997   -0.443718    1.355999
 ---------------------------------------------------------------------

 SCF Done:  E(RHF) =  -492.921154260     A.U. after   14 cycles
 E2 =    -0.1602158075D+01 EUMP2 =    -0.49452331233417D+03

 The electronic state is 1-A.
 Alpha  occ. eigenvalues --  -20.53755 -20.53316 -15.60718 -15.59488 -11.36935
 Alpha  occ. eigenvalues --  -11.36218 -11.29381 -11.27578 -11.24571 -11.23784
 Alpha  occ. eigenvalues --   -1.39447  -1.38432  -1.24427  -1.23517  -1.05631
 Alpha  occ. eigenvalues --   -0.99299  -0.96039  -0.89026  -0.79949  -0.78288
 Alpha  occ. eigenvalues --   -0.73084  -0.67517  -0.66398  -0.65287  -0.62633
 Alpha  occ. eigenvalues --   -0.61960  -0.59301  -0.58734  -0.56717  -0.56088
 Alpha  occ. eigenvalues --   -0.55617  -0.54449  -0.54015  -0.52628  -0.49331
 Alpha  occ. eigenvalues --   -0.43318  -0.42213  -0.40574  -0.39800
 Alpha virt. eigenvalues --    0.02776   0.03771   0.04380   0.04572   0.05811
 Alpha virt. eigenvalues --    0.05984   0.06128   0.06936   0.07273   0.07859
 Alpha virt. eigenvalues --    0.08981   0.09666   0.11254   0.12110   0.12296

 Mulliken atomic charges:
              1
     1  H    0.006004
     2  C    0.370435
     3  H    0.072214
     4  H   -0.093182
     5  C    0.488981
     6  O   -0.837365
     7  N   -0.478975
     8  H   -0.053800
     9  C    0.031207
    10  H   -0.012696
    11  C    0.795064
    12  H    0.047208
    13  H   -0.016601
    14  H   -0.178215
    15  C    1.090549
    16  O   -0.909046
    17  N   -0.576653
    18  H   -0.133485
    19  C    0.732360
    20  H   -0.145252
    21  H   -0.078549
    22  H   -0.120204
 Sum of Mulliken atomic charges =   0.00000

 Dipole moment (field-independent basis, Debye):
    X=              2.7628    Y=              0.5541    Z=              3.0426  Tot=              4.1470
 Quadrupole moment (field-independent basis, Debye-Ang):
   XX=            -57.5108   YY=            -62.8608   ZZ=            -63.1454
   XY=             12.6013   XZ=             -1.8580   YZ=             -1.9878

 Normal termination of Gaussian 09 at Mon Feb 13 04:36:31 2017.
