 Gaussian 09, Revision A.02,
 Gaussian 09:  EM64L-G09RevA.02 11-Jun-2009

 -------------------
 #SP MP2/aug-cc-pVDZ
 -------------------

 -------------------------------
 Single Point calculation at MP2
 -------------------------------
 Symbolic Z-matrix:
 Charge =  0 Multiplicity = 1

                         Standard orientation:
 ---------------------------------------------------------------------
 Center     Atomic      Atomic             Coordinates (Angstroms)
 Number     Number       Type             X           Y           Z
 ---------------------------------------------------------------------
      1          1           0       -3.787697   -1.705108   -0.264500
      2          6           0       -3.129500   -1.249604    0.479000
      3          1           0       -2.615095   -2.036401    1.040100
      4          1           0       -3.759303   -0.680808    1.173000
      5          6           0       -2.179105   -0.295599   -0.228800
      6          8           0       -2.533909    0.409299   -1.160000
      7          7           0       -0.876805   -0.304692    0.246600
      8          1           0       -0.766103   -0.675291    1.185100
      9          6           0        0.038889    0.787513   -0.099200
     10          1           0       -0.244412    1.091411   -1.111500
     11          6           0       -0.103917    1.999912    0.832000
     12          1           0        0.095884    1.721013    1.874200
     13          1           0        0.614079    2.770416    0.542800
     14          1           0       -1.117519    2.406007    0.763700
     15          6           0        1.509492    0.338021   -0.162600
     16          8           0        2.396587    1.155026   -0.376200
     17          7           0        1.749099   -0.981078    0.105300
     18          1           0        0.955802   -1.603782    0.026400
     19          6           0        3.084202   -1.542070   -0.026900
     20          1           0        3.803998   -0.755667    0.204200
     21          1           0        3.208906   -2.371170    0.676100
     22          1           0        3.283604   -1.903869   -1.044300
 ---------------------------------------------------------------------

 SCF Done:  E(RHF) =  -492.923489677     A.U. after   14 cycles
 E2 =    -0.1601477003D+01 EUMP2 =    -0.49452496667979D+03

 The electronic state is 1-A.
 Alpha  occ. eigenvalues --  -20.54549 -20.53204 -15.60845 -15.59867 -11.37565
 Alpha  occ. eigenvalues --  -11.36172 -11.29169 -11.27082 -11.25870 -11.23360
 Alpha  occ. eigenvalues --   -1.39923  -1.38630  -1.25549  -1.22787  -1.05683
 Alpha  occ. eigenvalues --   -0.99926  -0.96245  -0.87871  -0.80423  -0.78592
 Alpha  occ. eigenvalues --   -0.73419  -0.68281  -0.66089  -0.63858  -0.62869
 Alpha  occ. eigenvalues --   -0.62649  -0.59725  -0.59337  -0.58432  -0.56701
 Alpha  occ. eigenvalues --   -0.55063  -0.54314  -0.52682  -0.52076  -0.49840
 Alpha  occ. eigenvalues --   -0.43911  -0.43825  -0.40216  -0.39782
 Alpha virt. eigenvalues --    0.02188   0.03693   0.04161   0.04734   0.05598
 Alpha virt. eigenvalues --    0.05998   0.06372   0.06664   0.07283   0.08181
 Alpha virt. eigenvalues --    0.08393   0.09096   0.11145   0.12329   0.12827

 Mulliken atomic charges:
              1
     1  H    0.014665
     2  C    0.341077
     3  H   -0.115883
     4  H    0.049539
     5  C    0.597259
     6  O   -0.825397
     7  N   -0.294102
     8  H   -0.069821
     9  C   -0.338990
    10  H    0.004236
    11  C    0.770356
    12  H   -0.046780
    13  H   -0.034281
    14  H   -0.075047
    15  C    1.093235
    16  O   -0.863687
    17  N   -0.571097
    18  H   -0.064571
    19  C    0.758771
    20  H   -0.118379
    21  H   -0.152900
    22  H   -0.058204
 Sum of Mulliken atomic charges =   0.00000

 Dipole moment (field-independent basis, Debye):
    X=             -1.1270    Y=             -4.4265    Z=              3.5320  Tot=              5.7740
 Quadrupole moment (field-independent basis, Debye-Ang):
   XX=            -68.6246   YY=            -58.9303   ZZ=            -62.9734
   XY=             -3.0364   XZ=             -6.2289   YZ=              1.6737

 Normal termination of Gaussian 09 at Mon Feb 13 03:59:04 2017.
