 Gaussian 09, Revision A.02,
 Gaussian 09:  EM64L-G09RevA.02 11-Jun-2009

 -------------------
 #SP MP2/aug-cc-pVDZ
 -------------------

 -------------------------------
 Single Point calculation at MP2
 -------------------------------
 Symbolic Z-matrix:
 Charge =  0 Multiplicity = 1

                         Standard orientation:
 ---------------------------------------------------------------------
 Center     Atomic      Atomic             Coordinates (Angstroms)
 Number     Number       Type             X           Y           Z
 ---------------------------------------------------------------------
      1          1           0       -4.223799   -0.661202    0.581095
      2          6           0       -3.354297   -1.132798    0.113895
      3          1           0       -3.692095   -1.577800   -0.827905
      4          1           0       -2.981794   -1.925697    0.769395
      5          6           0       -2.319401   -0.060595   -0.192405
      6          8           0       -2.594205    0.945904   -0.839205
      7          7           0       -1.071700   -0.284890    0.316495
      8          1           0       -0.805297   -1.205989    0.649295
      9          6           0        0.049497    0.553814   -0.064205
     10          1           0       -0.100005    0.876714   -1.104005
     11          6           0        0.135892    1.811315    0.821095
     12          1           0        0.309693    1.538115    1.866895
     13          1           0        0.937089    2.487718    0.500695
     14          1           0       -0.811010    2.351611    0.747095
     15          6           0        1.313500   -0.324581    0.009895
     16          8           0        1.259604   -1.500881    0.363295
     17          7           0        2.475098    0.301423   -0.317505
     18          1           0        2.432994    1.260523   -0.630605
     19          6           0        3.762600   -0.372772   -0.320205
     20          1           0        3.607404   -1.377272    0.074595
     21          1           0        4.171800   -0.446870   -1.334805
     22          1           0        4.481298    0.157931    0.314195
 ---------------------------------------------------------------------

 SCF Done:  E(RHF) =  -492.927968081     A.U. after   14 cycles
 E2 =    -0.1600555291D+01 EUMP2 =    -0.49452852337244D+03

 The electronic state is 1-A.
 Alpha  occ. eigenvalues --  -20.54485 -20.52496 -15.60695 -15.58648 -11.37255
 Alpha  occ. eigenvalues --  -11.35743 -11.29416 -11.27708 -11.24154 -11.23911
 Alpha  occ. eigenvalues --   -1.39968  -1.37774  -1.24546  -1.23354  -1.05525
 Alpha  occ. eigenvalues --   -0.99021  -0.96205  -0.88653  -0.80612  -0.78082
 Alpha  occ. eigenvalues --   -0.73091  -0.67552  -0.65903  -0.64971  -0.63099
 Alpha  occ. eigenvalues --   -0.61680  -0.59788  -0.58810  -0.56736  -0.56393
 Alpha  occ. eigenvalues --   -0.55600  -0.54378  -0.53208  -0.52375  -0.49129
 Alpha  occ. eigenvalues --   -0.43688  -0.42033  -0.40837  -0.38954
 Alpha virt. eigenvalues --    0.02806   0.03982   0.04319   0.04447   0.05786
 Alpha virt. eigenvalues --    0.06081   0.06373   0.06889   0.07351   0.08000
 Alpha virt. eigenvalues --    0.09115   0.09816   0.11113   0.12003   0.12861

 Mulliken atomic charges:
              1
     1  H    0.038167
     2  C    0.394176
     3  H    0.052487
     4  H   -0.141260
     5  C    0.502493
     6  O   -0.867142
     7  N   -0.330289
     8  H   -0.066301
     9  C   -0.022088
    10  H   -0.062875
    11  C    0.733452
    12  H   -0.029802
    13  H   -0.113064
    14  H   -0.065466
    15  C    1.127667
    16  O   -0.874326
    17  N   -0.518038
    18  H   -0.109719
    19  C    0.692286
    20  H   -0.144458
    21  H   -0.089932
    22  H   -0.105967
 Sum of Mulliken atomic charges =   0.00000

 Dipole moment (field-independent basis, Debye):
    X=              2.9801    Y=              0.4645    Z=              0.5050  Tot=              3.0581
 Quadrupole moment (field-independent basis, Debye-Ang):
   XX=            -55.6750   YY=            -64.0681   ZZ=            -62.6521
   XY=             13.2189   XZ=             -7.5172   YZ=              2.2488

 Normal termination of Gaussian 09 at Mon Feb 13 04:04:25 2017.
