 Gaussian 09, Revision A.02,
 Gaussian 09:  EM64L-G09RevA.02 11-Jun-2009

 -------------------
 #SP MP2/aug-cc-pVDZ
 -------------------

 -------------------------------
 Single Point calculation at MP2
 -------------------------------
 Symbolic Z-matrix:
 Charge =  0 Multiplicity = 1

                         Standard orientation:
 ---------------------------------------------------------------------
 Center     Atomic      Atomic             Coordinates (Angstroms)
 Number     Number       Type             X           Y           Z
 ---------------------------------------------------------------------
      1          1           0        3.600017   -1.885954   -0.427995
      2          6           0        3.111607   -1.029860   -0.900295
      3          1           0        2.639911   -1.351965   -1.833995
      4          1           0        3.890899   -0.296351   -1.135795
      5          6           0        2.137301   -0.413870    0.092905
      6          8           0        2.426599   -0.241767    1.269805
      7          7           0        0.905997   -0.081984   -0.420695
      8          1           0        0.793797   -0.084585   -1.426895
      9          6           0       -0.043512    0.734406    0.341605
     10          1           0        0.128991    0.471308    1.389705
     11          6           0        0.180572    2.234408    0.148505
     12          1           0        0.009369    2.520807   -0.893095
     13          1           0       -0.516734    2.808701    0.767005
     14          1           0        1.202869    2.494120    0.438505
     15          6           0       -1.470807    0.321490   -0.073395
     16          8           0       -2.161415    1.009883   -0.815795
     17          7           0       -1.877494   -0.873714    0.443305
     18          1           0       -1.211189   -1.406207    0.985205
     19          6           0       -3.150488   -1.485328    0.107205
     20          1           0       -3.731396   -0.746634   -0.446595
     21          1           0       -3.019078   -2.376826   -0.519295
     22          1           0       -3.696485   -1.768934    1.013705
 ---------------------------------------------------------------------

 SCF Done:  E(RHF) =  -492.924369391     A.U. after   14 cycles
 E2 =    -0.1600631219D+01 EUMP2 =    -0.49452500060929D+03

 The electronic state is 1-A.
 Alpha  occ. eigenvalues --  -20.53834 -20.53728 -15.60553 -15.59831 -11.37123
 Alpha  occ. eigenvalues --  -11.36354 -11.29217 -11.27119 -11.25426 -11.22705
 Alpha  occ. eigenvalues --   -1.39401  -1.38799  -1.24936  -1.23138  -1.05538
 Alpha  occ. eigenvalues --   -0.99553  -0.96399  -0.87566  -0.80071  -0.79136
 Alpha  occ. eigenvalues --   -0.73151  -0.67762  -0.65652  -0.65325  -0.62497
 Alpha  occ. eigenvalues --   -0.61994  -0.60326  -0.59116  -0.57808  -0.56311
 Alpha  occ. eigenvalues --   -0.54956  -0.53397  -0.52691  -0.51819  -0.50500
 Alpha  occ. eigenvalues --   -0.43617  -0.43263  -0.40467  -0.39062
 Alpha virt. eigenvalues --    0.02711   0.03681   0.04464   0.04632   0.05617
 Alpha virt. eigenvalues --    0.05989   0.06145   0.06827   0.07364   0.08018
 Alpha virt. eigenvalues --    0.08743   0.09202   0.11275   0.11876   0.12395

 Mulliken atomic charges:
              1
     1  H    0.027256
     2  C    0.351762
     3  H   -0.117554
     4  H    0.054412
     5  C    0.568467
     6  O   -0.846015
     7  N   -0.386800
     8  H   -0.106726
     9  C   -0.242433
    10  H   -0.193236
    11  C    0.778550
    12  H   -0.006631
    13  H   -0.033402
    14  H   -0.038930
    15  C    1.269301
    16  O   -0.844942
    17  N   -0.540623
    18  H   -0.083993
    19  C    0.738582
    20  H   -0.145872
    21  H   -0.088706
    22  H   -0.112467
 Sum of Mulliken atomic charges =   0.00000

 Dipole moment (field-independent basis, Debye):
    X=              0.3766    Y=             -2.6706    Z=             -1.4958  Tot=              3.0840
 Quadrupole moment (field-independent basis, Debye-Ang):
   XX=            -65.6048   YY=            -59.0056   ZZ=            -63.5252
   XY=              5.9430   XZ=            -13.7787   YZ=              2.4351

 Normal termination of Gaussian 09 at Mon Feb 13 05:17:58 2017.
