 Gaussian 09, Revision A.02,
 Gaussian 09:  EM64L-G09RevA.02 11-Jun-2009

 -------------------
 #SP MP2/aug-cc-pVDZ
 -------------------

 -------------------------------
 Single Point calculation at MP2
 -------------------------------
 Symbolic Z-matrix:
 Charge =  0 Multiplicity = 1

                         Standard orientation:
 ---------------------------------------------------------------------
 Center     Atomic      Atomic             Coordinates (Angstroms)
 Number     Number       Type             X           Y           Z
 ---------------------------------------------------------------------
      1          1           0        3.944810   -1.390480   -0.502996
      2          6           0        3.012911   -1.553783    0.044104
      3          1           0        3.279012   -1.844282    1.066604
      4          1           0        2.460814   -2.375685   -0.422696
      5          6           0        2.235606   -0.245786    0.086504
      6          8           0        2.769902    0.824416    0.342204
      7          7           0        0.892106   -0.348291   -0.196496
      8          1           0        0.485110   -1.273093   -0.138496
      9          6           0       -0.006698    0.779105    0.097804
     10          1           0        0.348400    1.280606    1.002404
     11          6           0       -0.025002    1.803905   -1.048496
     12          1           0       -0.360300    1.349604   -1.988096
     13          1           0       -0.694205    2.635002   -0.801996
     14          1           0        0.984797    2.195909   -1.192096
     15          6           0       -1.417096    0.271400    0.424504
     16          8           0       -2.055898    0.699997    1.373604
     17          7           0       -1.897792   -0.700602   -0.421596
     18          1           0       -1.430192   -0.818200   -1.311396
     19          6           0       -3.270690   -1.174607   -0.317096
     20          1           0       -3.556490   -1.153909    0.735204
     21          1           0       -3.971393   -0.540710   -0.876096
     22          1           0       -3.336786   -2.199208   -0.694096
 ---------------------------------------------------------------------

 SCF Done:  E(RHF) =  -492.919921033     A.U. after   14 cycles
 E2 =    -0.1601426605D+01 EUMP2 =    -0.49452134763800D+03

 The electronic state is 1-A.
 Alpha  occ. eigenvalues --  -20.54295 -20.53787 -15.60611 -15.60418 -11.36903
 Alpha  occ. eigenvalues --  -11.36863 -11.29265 -11.27690 -11.25338 -11.23666
 Alpha  occ. eigenvalues --   -1.39694  -1.39029  -1.25440  -1.23048  -1.05854
 Alpha  occ. eigenvalues --   -0.99686  -0.96382  -0.88448  -0.80037  -0.78973
 Alpha  occ. eigenvalues --   -0.73550  -0.68043  -0.66664  -0.63982  -0.63305
 Alpha  occ. eigenvalues --   -0.62386  -0.59746  -0.59672  -0.57467  -0.57019
 Alpha  occ. eigenvalues --   -0.55770  -0.54659  -0.53003  -0.52052  -0.49615
 Alpha  occ. eigenvalues --   -0.44370  -0.42687  -0.40649  -0.40110
 Alpha virt. eigenvalues --    0.02202   0.03711   0.04239   0.04723   0.05568
 Alpha virt. eigenvalues --    0.05961   0.06355   0.06715   0.07342   0.08202
 Alpha virt. eigenvalues --    0.08282   0.09185   0.10965   0.12052   0.12285

 Mulliken atomic charges:
              1
     1  H    0.019273
     2  C    0.391016
     3  H    0.062423
     4  H   -0.142427
     5  C    0.495392
     6  O   -0.844114
     7  N   -0.182098
     8  H   -0.046619
     9  C   -0.106242
    10  H   -0.129006
    11  C    0.759103
    12  H   -0.101918
    13  H   -0.034287
    14  H   -0.058278
    15  C    0.982149
    16  O   -0.827625
    17  N   -0.594379
    18  H   -0.077115
    19  C    0.771882
    20  H   -0.105460
    21  H   -0.071089
    22  H   -0.160581
 Sum of Mulliken atomic charges =   0.00000

 Dipole moment (field-independent basis, Debye):
    X=             -1.0387    Y=             -4.4597    Z=             -3.6166  Tot=              5.8350
 Quadrupole moment (field-independent basis, Debye-Ang):
   XX=            -67.5369   YY=            -58.7315   ZZ=            -63.9698
   XY=             -3.6248   XZ=              5.6310   YZ=             -2.4944

 Normal termination of Gaussian 09 at Mon Feb 13 05:16:47 2017.
