 Gaussian 09, Revision A.02,
 Gaussian 09:  EM64L-G09RevA.02 11-Jun-2009

 ----------------------------------------------------------------------
 # b3lyp/6-31G* Opt=(ModRedundant, maxcycles=1000, calcfc) geom=nocrowd
 ----------------------------------------------------------------------

 ------------------
 Phi Psi fixed scan
 ------------------
 Symbolic Z-matrix:
 Charge =  0 Multiplicity = 1

 SCF Done:  E(RB3LYP) =  -990.487958080     A.U. after   14 cycles

  Exact polarizability:   0.000   0.000   0.000   0.000   0.000   0.000
 Approx polarizability: 241.307  10.861 228.483  -0.778 -27.241 200.625

 SCF Done:  E(RB3LYP) =  -990.494949125     A.U. after   12 cycles
 SCF Done:  E(RB3LYP) =  -990.502925016     A.U. after   13 cycles
 SCF Done:  E(RB3LYP) =  -990.505310803     A.U. after   13 cycles
 SCF Done:  E(RB3LYP) =  -990.506623002     A.U. after   15 cycles
 SCF Done:  E(RB3LYP) =  -990.507017425     A.U. after   13 cycles
 SCF Done:  E(RB3LYP) =  -990.506802553     A.U. after   15 cycles
 SCF Done:  E(RB3LYP) =  -990.465218711     A.U. after   16 cycles
 SCF Done:  E(RB3LYP) =  -990.507394173     A.U. after   16 cycles
 SCF Done:  E(RB3LYP) =  -990.507504028     A.U. after   11 cycles
 SCF Done:  E(RB3LYP) =  -990.507613257     A.U. after    9 cycles
 SCF Done:  E(RB3LYP) =  -990.507630276     A.U. after   10 cycles
 SCF Done:  E(RB3LYP) =  -990.507648915     A.U. after   10 cycles
 SCF Done:  E(RB3LYP) =  -990.507661687     A.U. after   10 cycles
 SCF Done:  E(RB3LYP) =  -990.507669511     A.U. after    9 cycles
 SCF Done:  E(RB3LYP) =  -990.507671533     A.U. after    9 cycles
 SCF Done:  E(RB3LYP) =  -990.507672719     A.U. after    9 cycles
 SCF Done:  E(RB3LYP) =  -990.507672999     A.U. after    8 cycles
 SCF Done:  E(RB3LYP) =  -990.507673156     A.U. after    8 cycles
 SCF Done:  E(RB3LYP) =  -990.507673201     A.U. after    7 cycles
 Optimization completed.
    -- Stationary point found.

                         Standard orientation:
 ---------------------------------------------------------------------
 Center     Atomic      Atomic             Coordinates (Angstroms)
 Number     Number       Type             X           Y           Z
 ---------------------------------------------------------------------
      1          1           0       -6.597513   -1.917364   -0.617933
      2          6           0       -6.202302   -0.900874   -0.526085
      3          1           0       -6.939738   -0.314192    0.030467
      4          1           0       -6.085827   -0.472514   -1.526346
      5          6           0       -4.908605   -0.947715    0.273571
      6          8           0       -4.864476   -1.389473    1.418425
      7          7           0       -3.805335   -0.467842   -0.366218
      8          1           0       -3.848737   -0.069814   -1.296333
      9          6           0       -2.505510   -0.414652    0.275180
     10          1           0       -2.664240   -0.164635    1.331178
     11          6           0       -1.764115   -1.764867    0.193250
     12          1           0       -1.615705   -2.050706   -0.853143
     13          1           0       -0.783762   -1.724879    0.680593
     14          1           0       -2.370921   -2.527603    0.688307
     15          6           0       -1.704318    0.690629   -0.425977
     16          8           0       -1.943751    1.019782   -1.583516
     17          7           0       -0.683399    1.225412    0.311556
     18          1           0       -0.668929    1.025546    1.304267
     19          6           0        0.152732    2.321799   -0.171795
     20          1           0       -0.179315    2.507888   -1.197576
     21          6           0       -0.033756    3.597147    0.659949
     22          1           0        0.212450    3.420249    1.714706
     23          1           0        0.633216    4.375797    0.283365
     24          1           0       -1.069257    3.945131    0.598575
     25          6           0        1.650378    1.962022   -0.261565
     26          8           0        2.469386    2.801120   -0.627725
     27          7           0        1.985782    0.702659    0.112001
     28          1           0        1.270411    0.002192    0.272597
     29          6           0        3.335222    0.188410   -0.015140
     30          1           0        3.756087    0.537737   -0.967534
     31          6           0        4.244628    0.677314    1.128699
     32          1           0        3.865998    0.327537    2.094679
     33          1           0        5.271811    0.315532    1.006485
     34          1           0        4.260209    1.769895    1.124005
     35          6           0        3.217773   -1.346655   -0.029694
     36          8           0        2.181174   -1.913786    0.311682
     37          7           0        4.338702   -2.005892   -0.420833
     38          1           0        5.138776   -1.461942   -0.711772
     39          6           0        4.433030   -3.456321   -0.460859
     40          1           0        3.474100   -3.856308   -0.130181
     41          1           0        4.637255   -3.808391   -1.478292
     42          1           0        5.223781   -3.818071    0.206215
 ---------------------------------------------------------------------

 The electronic state is 1-A.
 Alpha  occ. eigenvalues --  -19.13348 -19.12996 -19.11184 -19.09810 -14.38201
 Alpha  occ. eigenvalues --  -14.37669 -14.35852 -14.35030 -10.30443 -10.30014
 Alpha  occ. eigenvalues --  -10.28631 -10.27849 -10.24622 -10.23889 -10.23658
 Alpha  occ. eigenvalues --  -10.23232 -10.19333 -10.18807 -10.18477 -10.17983
 Alpha  occ. eigenvalues --   -1.05310  -1.04954  -1.03110  -1.01842  -0.94220
 Alpha  occ. eigenvalues --   -0.93959  -0.92203  -0.91475  -0.79469  -0.77808
 Alpha  occ. eigenvalues --   -0.75842  -0.72183  -0.71975  -0.67656  -0.65804
 Alpha  occ. eigenvalues --   -0.63564  -0.60456  -0.60317  -0.58021  -0.57614
 Alpha  occ. eigenvalues --   -0.55933  -0.52582  -0.49601  -0.49236  -0.48397
 Alpha  occ. eigenvalues --   -0.46877  -0.46775  -0.46184  -0.45475  -0.45095
 Alpha  occ. eigenvalues --   -0.43936  -0.43654  -0.43085  -0.41940  -0.41426
 Alpha  occ. eigenvalues --   -0.40981  -0.40628  -0.40382  -0.40220  -0.39451
 Alpha  occ. eigenvalues --   -0.38717  -0.38140  -0.37825  -0.37474  -0.37156
 Alpha  occ. eigenvalues --   -0.36670  -0.36497  -0.34710  -0.33910  -0.28610
 Alpha  occ. eigenvalues --   -0.27388  -0.27290  -0.26956  -0.25521  -0.24719
 Alpha  occ. eigenvalues --   -0.23943  -0.23802
 Alpha virt. eigenvalues --    0.00869   0.01062   0.02654   0.03918   0.05708
 Alpha virt. eigenvalues --    0.06447   0.09506   0.10819   0.11436   0.11848
 Alpha virt. eigenvalues --    0.12969   0.13396   0.13699   0.14441   0.14749

 Mulliken atomic charges:
              1
     1  H    0.182594
     2  C   -0.533140
     3  H    0.182251
     4  H    0.147672
     5  C    0.597432
     6  O   -0.524207
     7  N   -0.602608
     8  H    0.344400
     9  C   -0.034191
    10  H    0.165805
    11  C   -0.452464
    12  H    0.158775
    13  H    0.162986
    14  H    0.184560
    15  C    0.605616
    16  O   -0.520854
    17  N   -0.633068
    18  H    0.333293
    19  C   -0.049976
    20  H    0.211953
    21  C   -0.453731
    22  H    0.141419
    23  H    0.190507
    24  H    0.159636
    25  C    0.613465
    26  O   -0.537194
    27  N   -0.628619
    28  H    0.363368
    29  C   -0.027414
    30  H    0.171313
    31  C   -0.445015
    32  H    0.158251
    33  H    0.135913
    34  H    0.192806
    35  C    0.605217
    36  O   -0.531839
    37  N   -0.591948
    38  H    0.333041
    39  C   -0.314309
    40  H    0.208734
    41  H    0.165453
    42  H    0.164114
 Sum of Mulliken atomic charges =   0.00000

 Dipole moment (field-independent basis, Debye):
    X=              4.4010    Y=             -1.3790    Z=             -0.2238  Tot=              4.6174
 Quadrupole moment (field-independent basis, Debye-Ang):
   XX=           -101.5595   YY=           -123.7418   ZZ=           -123.5908
   XY=            -20.9523   XZ=              8.4263   YZ=             12.5221

 Normal termination of Gaussian 09 at Thu Dec 29 14:32:21 2016.
