 Gaussian 09, Revision A.02,
 Gaussian 09:  EM64L-G09RevA.02 11-Jun-2009

 ----------------------------------------------------------------------
 # b3lyp/6-31G* Opt=(ModRedundant, maxcycles=1000, calcfc) geom=nocrowd
 ----------------------------------------------------------------------

 ------------------
 Phi Psi fixed scan
 ------------------
 Symbolic Z-matrix:
 Charge =  0 Multiplicity = 1

 SCF Done:  E(RB3LYP) =  -990.483579754     A.U. after   15 cycles

  Exact polarizability:   0.000   0.000   0.000   0.000   0.000   0.000
 Approx polarizability: 234.724  -1.612 232.702  -5.655 -34.880 201.693

 SCF Done:  E(RB3LYP) =  -990.491181568     A.U. after   12 cycles
 SCF Done:  E(RB3LYP) =  -990.500058523     A.U. after   16 cycles
 SCF Done:  E(RB3LYP) =  -990.502521483     A.U. after   14 cycles
 SCF Done:  E(RB3LYP) =  -990.502504995     A.U. after   13 cycles
 SCF Done:  E(RB3LYP) =  -990.503066429     A.U. after   12 cycles
 SCF Done:  E(RB3LYP) =  -990.503454343     A.U. after   16 cycles
 SCF Done:  E(RB3LYP) =  -990.503947964     A.U. after   12 cycles
 SCF Done:  E(RB3LYP) =  -990.490543917     A.U. after   15 cycles
 SCF Done:  E(RB3LYP) =  -990.504116241     A.U. after   16 cycles
 SCF Done:  E(RB3LYP) =  -990.504672994     A.U. after   10 cycles
 SCF Done:  E(RB3LYP) =  -990.504687534     A.U. after   11 cycles
 SCF Done:  E(RB3LYP) =  -990.504691024     A.U. after    9 cycles
 SCF Done:  E(RB3LYP) =  -990.504693708     A.U. after    9 cycles
 SCF Done:  E(RB3LYP) =  -990.504695754     A.U. after    9 cycles
 SCF Done:  E(RB3LYP) =  -990.504697066     A.U. after    9 cycles
 SCF Done:  E(RB3LYP) =  -990.504697635     A.U. after    9 cycles
 SCF Done:  E(RB3LYP) =  -990.504697820     A.U. after    7 cycles
 SCF Done:  E(RB3LYP) =  -990.504697860     A.U. after    7 cycles
 SCF Done:  E(RB3LYP) =  -990.504697864     A.U. after    6 cycles
 Optimization completed.
    -- Stationary point found.

                         Standard orientation:
 ---------------------------------------------------------------------
 Center     Atomic      Atomic             Coordinates (Angstroms)
 Number     Number       Type             X           Y           Z
 ---------------------------------------------------------------------
      1          1           0       -7.054603   -0.352494    0.251899
      2          6           0       -6.343872   -0.764940   -0.470593
      3          1           0       -6.289625   -0.101677   -1.339270
      4          1           0       -6.731984   -1.737363   -0.790268
      5          6           0       -5.005754   -0.973448    0.223347
      6          8           0       -4.897516   -1.646807    1.244578
      7          7           0       -3.937435   -0.369736   -0.368833
      8          1           0       -4.035392    0.234290   -1.176119
      9          6           0       -2.605036   -0.437297    0.197651
     10          1           0       -2.697810   -0.371082    1.289239
     11          6           0       -1.888740   -1.758078   -0.152261
     12          1           0       -1.793253   -1.860216   -1.238313
     13          1           0       -0.887213   -1.804850    0.289305
     14          1           0       -2.482449   -2.590717    0.233404
     15          6           0       -1.824407    0.769704   -0.342909
     16          8           0       -2.179664    1.367451   -1.353153
     17          7           0       -0.681706    1.069741    0.348788
     18          1           0       -0.597582    0.671398    1.276631
     19          6           0        0.144839    2.235930    0.039130
     20          1           0       -0.304006    2.693891   -0.844502
     21          6           0        0.163053    3.248947    1.192993
     22          1           0        0.571601    2.799400    2.106595
     23          1           0        0.792671    4.101572    0.923377
     24          1           0       -0.849446    3.608625    1.401493
     25          6           0        1.587924    1.872531   -0.357823
     26          8           0        2.258882    2.638776   -1.041561
     27          7           0        2.088762    0.737644    0.204320
     28          1           0        1.457200    0.016268    0.539144
     29          6           0        3.401063    0.230182   -0.153692
     30          1           0        3.589463    0.458782   -1.211580
     31          6           0        4.509377    0.886228    0.689876
     32          1           0        4.365560    0.667002    1.752803
     33          1           0        5.505259    0.536940    0.394307
     34          1           0        4.468974    1.968265    0.540821
     35          6           0        3.344254   -1.298355    0.035080
     36          8           0        2.374984   -1.843169    0.562391
     37          7           0        4.432381   -1.977075   -0.409545
     38          1           0        5.172460   -1.456801   -0.858959
     39          6           0        4.563263   -3.421710   -0.306852
     40          1           0        3.676155   -3.795961    0.204723
     41          1           0        4.626312   -3.882970   -1.299034
     42          1           0        5.454429   -3.694484    0.269481
 ---------------------------------------------------------------------

 The electronic state is 1-A.
 Alpha  occ. eigenvalues --  -19.13480 -19.13031 -19.11426 -19.09782 -14.38276
 Alpha  occ. eigenvalues --  -14.37582 -14.35795 -14.34944 -10.30540 -10.29996
 Alpha  occ. eigenvalues --  -10.28644 -10.27799 -10.24593 -10.23847 -10.23669
 Alpha  occ. eigenvalues --  -10.23296 -10.19465 -10.19394 -10.18428 -10.18054
 Alpha  occ. eigenvalues --   -1.05421  -1.04965  -1.03248  -1.01804  -0.94194
 Alpha  occ. eigenvalues --   -0.94027  -0.92226  -0.91428  -0.79643  -0.77781
 Alpha  occ. eigenvalues --   -0.75928  -0.72228  -0.71957  -0.67642  -0.65911
 Alpha  occ. eigenvalues --   -0.63757  -0.60595  -0.60234  -0.57898  -0.57486
 Alpha  occ. eigenvalues --   -0.55920  -0.52570  -0.49612  -0.49111  -0.48409
 Alpha  occ. eigenvalues --   -0.47020  -0.46844  -0.46019  -0.45519  -0.45011
 Alpha  occ. eigenvalues --   -0.43917  -0.43829  -0.43266  -0.42043  -0.41442
 Alpha  occ. eigenvalues --   -0.41202  -0.40839  -0.40397  -0.40204  -0.39669
 Alpha  occ. eigenvalues --   -0.38689  -0.38248  -0.37913  -0.37701  -0.37218
 Alpha  occ. eigenvalues --   -0.36730  -0.36456  -0.34902  -0.33856  -0.28713
 Alpha  occ. eigenvalues --   -0.27456  -0.27417  -0.26919  -0.25689  -0.24770
 Alpha  occ. eigenvalues --   -0.23916  -0.23779
 Alpha virt. eigenvalues --    0.00832   0.01035   0.02219   0.03864   0.05569
 Alpha virt. eigenvalues --    0.05916   0.09690   0.10820   0.11297   0.12420
 Alpha virt. eigenvalues --    0.13059   0.13272   0.14038   0.14270   0.14602

 Mulliken atomic charges:
              1
     1  H    0.182036
     2  C   -0.533214
     3  H    0.148177
     4  H    0.182326
     5  C    0.596491
     6  O   -0.524200
     7  N   -0.603989
     8  H    0.345636
     9  C   -0.033360
    10  H    0.166500
    11  C   -0.449407
    12  H    0.156357
    13  H    0.157530
    14  H    0.187053
    15  C    0.604042
    16  O   -0.517514
    17  N   -0.622764
    18  H    0.331989
    19  C   -0.055286
    20  H    0.208305
    21  C   -0.457113
    22  H    0.145970
    23  H    0.183630
    24  H    0.164973
    25  C    0.607731
    26  O   -0.524995
    27  N   -0.620683
    28  H    0.353717
    29  C   -0.038320
    30  H    0.176739
    31  C   -0.442307
    32  H    0.159164
    33  H    0.134190
    34  H    0.189847
    35  C    0.607134
    36  O   -0.533547
    37  N   -0.591040
    38  H    0.333622
    39  C   -0.314358
    40  H    0.208791
    41  H    0.165937
    42  H    0.164213
 Sum of Mulliken atomic charges =   0.00000

 Dipole moment (field-independent basis, Debye):
    X=              4.7881    Y=             -1.2024    Z=              0.1671  Tot=              4.9396
 Quadrupole moment (field-independent basis, Debye-Ang):
   XX=            -99.2678   YY=           -125.2562   ZZ=           -123.4216
   XY=            -20.5747   XZ=              6.6755   YZ=             15.6899

 Normal termination of Gaussian 09 at Thu Dec 29 18:58:05 2016.
