 Gaussian 09, Revision A.02,
 Gaussian 09:  EM64L-G09RevA.02 11-Jun-2009

 ----------------------------------------------------------------------
 # b3lyp/6-31G* Opt=(ModRedundant, maxcycles=1000, calcfc) geom=nocrowd
 ----------------------------------------------------------------------

 ------------------
 Phi Psi fixed scan
 ------------------
 Symbolic Z-matrix:
 Charge =  0 Multiplicity = 1

 SCF Done:  E(RB3LYP) =  -990.491240835     A.U. after   14 cycles

  Exact polarizability:   0.000   0.000   0.000   0.000   0.000   0.000
 Approx polarizability: 233.689  -3.470 180.324  -7.878   9.742 252.258

 SCF Done:  E(RB3LYP) =  -990.497839269     A.U. after   11 cycles
 SCF Done:  E(RB3LYP) =  -990.505056164     A.U. after   13 cycles
 SCF Done:  E(RB3LYP) =  -990.507141961     A.U. after   15 cycles
 SCF Done:  E(RB3LYP) =  -990.508856136     A.U. after   15 cycles
 SCF Done:  E(RB3LYP) =  -990.509133323     A.U. after   15 cycles
 SCF Done:  E(RB3LYP) =  -990.509535388     A.U. after   12 cycles
 SCF Done:  E(RB3LYP) =  -990.508275236     A.U. after   12 cycles
 SCF Done:  E(RB3LYP) =  -990.509646437     A.U. after   13 cycles
 SCF Done:  E(RB3LYP) =  -990.509772521     A.U. after   11 cycles
 SCF Done:  E(RB3LYP) =  -990.509804611     A.U. after   10 cycles
 SCF Done:  E(RB3LYP) =  -990.509811877     A.U. after   10 cycles
 SCF Done:  E(RB3LYP) =  -990.509819098     A.U. after   10 cycles
 SCF Done:  E(RB3LYP) =  -990.509827133     A.U. after   10 cycles
 SCF Done:  E(RB3LYP) =  -990.509833433     A.U. after    9 cycles
 SCF Done:  E(RB3LYP) =  -990.509837156     A.U. after    9 cycles
 SCF Done:  E(RB3LYP) =  -990.509838910     A.U. after    9 cycles
 SCF Done:  E(RB3LYP) =  -990.509839506     A.U. after    8 cycles
 SCF Done:  E(RB3LYP) =  -990.509839600     A.U. after    6 cycles
 SCF Done:  E(RB3LYP) =  -990.509839653     A.U. after    6 cycles
 Optimization completed.
    -- Stationary point found.

                         Standard orientation:
 ---------------------------------------------------------------------
 Center     Atomic      Atomic             Coordinates (Angstroms)
 Number     Number       Type             X           Y           Z
 ---------------------------------------------------------------------
      1          1           0       -7.326930   -0.751497   -1.598559
      2          6           0       -6.770364    0.131037   -1.267697
      3          1           0       -7.482501    0.797160   -0.770818
      4          1           0       -6.356491    0.639760   -2.143792
      5          6           0       -5.717632   -0.301822   -0.257055
      6          8           0       -6.015503   -0.870234    0.790228
      7          7           0       -4.429108   -0.021253   -0.596156
      8          1           0       -4.189488    0.503276   -1.429364
      9          6           0       -3.316411   -0.314426    0.285650
     10          1           0       -3.612179   -0.064602    1.311951
     11          6           0       -2.916276   -1.803377    0.241146
     12          1           0       -2.617450   -2.086774   -0.773658
     13          1           0       -2.083657   -2.015751    0.921355
     14          1           0       -3.776269   -2.406648    0.541867
     15          6           0       -2.148114    0.580914   -0.152748
     16          8           0       -2.128163    1.119959   -1.258135
     17          7           0       -1.157430    0.724150    0.769523
     18          1           0       -1.147566    0.110715    1.578242
     19          6           0        0.149682    1.269904    0.432424
     20          1           0        0.134242    1.486544   -0.639590
     21          6           0        0.449068    2.558386    1.217304
     22          1           0        0.446841    2.360261    2.294489
     23          1           0        1.429239    2.963991    0.942999
     24          1           0       -0.314366    3.310470    0.998354
     25          6           0        1.195141    0.188314    0.754739
     26          8           0        1.014582   -0.608878    1.677002
     27          7           0        2.309696    0.198360   -0.010489
     28          1           0        2.457214    0.883494   -0.745227
     29          6           0        3.439490   -0.679413    0.238884
     30          1           0        3.597236   -0.736580    1.323075
     31          6           0        3.192285   -2.101624   -0.300360
     32          1           0        3.041990   -2.078046   -1.384477
     33          1           0        4.037657   -2.763419   -0.080958
     34          1           0        2.298353   -2.512320    0.175380
     35          6           0        4.657840   -0.025425   -0.436942
     36          8           0        4.519339    0.854173   -1.283935
     37          7           0        5.863952   -0.511670   -0.045310
     38          1           0        5.886338   -1.219407    0.675393
     39          6           0        7.123611   -0.055240   -0.610915
     40          1           0        6.890776    0.704016   -1.358054
     41          1           0        7.763829    0.385290    0.161609
     42          1           0        7.661459   -0.880567   -1.091049
 ---------------------------------------------------------------------

 The electronic state is 1-A.
 Alpha  occ. eigenvalues --  -19.13560 -19.12500 -19.12180 -19.09315 -14.38499
 Alpha  occ. eigenvalues --  -14.36936 -14.36197 -14.34423 -10.30727 -10.29578
 Alpha  occ. eigenvalues --  -10.29143 -10.27337 -10.25155 -10.23989 -10.23475
 Alpha  occ. eigenvalues --  -10.23022 -10.19684 -10.19076 -10.18064 -10.17792
 Alpha  occ. eigenvalues --   -1.05650  -1.04533  -1.03771  -1.01307  -0.94272
 Alpha  occ. eigenvalues --   -0.93500  -0.92835  -0.90901  -0.79908  -0.77811
 Alpha  occ. eigenvalues --   -0.75537  -0.72466  -0.71571  -0.67770  -0.66119
 Alpha  occ. eigenvalues --   -0.63350  -0.60981  -0.59300  -0.58712  -0.56854
 Alpha  occ. eigenvalues --   -0.56134  -0.52256  -0.49621  -0.48942  -0.48072
 Alpha  occ. eigenvalues --   -0.47259  -0.46712  -0.46361  -0.45350  -0.44704
 Alpha  occ. eigenvalues --   -0.44457  -0.43838  -0.43167  -0.42397  -0.41853
 Alpha  occ. eigenvalues --   -0.40979  -0.40915  -0.40615  -0.39647  -0.39199
 Alpha  occ. eigenvalues --   -0.38652  -0.38272  -0.38092  -0.37457  -0.37262
 Alpha  occ. eigenvalues --   -0.36503  -0.36204  -0.35359  -0.33348  -0.27925
 Alpha  occ. eigenvalues --   -0.27736  -0.27002  -0.26520  -0.26148  -0.25298
 Alpha  occ. eigenvalues --   -0.23885  -0.23317
 Alpha virt. eigenvalues --    0.00478   0.01524   0.02322   0.04365   0.05413
 Alpha virt. eigenvalues --    0.08651   0.09052   0.10317   0.10768   0.12383
 Alpha virt. eigenvalues --    0.12982   0.13446   0.13762   0.14453   0.14626

 Mulliken atomic charges:
              1
     1  H    0.180667
     2  C   -0.532961
     3  H    0.181048
     4  H    0.147079
     5  C    0.597068
     6  O   -0.525330
     7  N   -0.606056
     8  H    0.345281
     9  C   -0.028366
    10  H    0.174562
    11  C   -0.453083
    12  H    0.153390
    13  H    0.149528
    14  H    0.189724
    15  C    0.599391
    16  O   -0.533643
    17  N   -0.594576
    18  H    0.347798
    19  C   -0.066700
    20  H    0.182971
    21  C   -0.440508
    22  H    0.161244
    23  H    0.152609
    24  H    0.172287
    25  C    0.622412
    26  O   -0.547127
    27  N   -0.614277
    28  H    0.356790
    29  C   -0.036933
    30  H    0.171250
    31  C   -0.444271
    32  H    0.164263
    33  H    0.138571
    34  H    0.191166
    35  C    0.607031
    36  O   -0.527939
    37  N   -0.592574
    38  H    0.332837
    39  C   -0.314583
    40  H    0.209386
    41  H    0.165475
    42  H    0.165100
 Sum of Mulliken atomic charges =   0.00000

 Dipole moment (field-independent basis, Debye):
    X=              7.1906    Y=             -0.5104    Z=             -0.1606  Tot=              7.2105
 Quadrupole moment (field-independent basis, Debye-Ang):
   XX=           -103.1194   YY=           -118.1404   ZZ=           -124.8448
   XY=            -16.0232   XZ=             16.7364   YZ=              6.3185

 Normal termination of Gaussian 09 at Thu Dec 29 16:20:30 2016.
