 Gaussian 09, Revision A.02,
 Gaussian 09:  EM64L-G09RevA.02 11-Jun-2009

 ----------------------------------------------------------------------
 # b3lyp/6-31G* Opt=(ModRedundant, maxcycles=1000, calcfc) geom=nocrowd
 ----------------------------------------------------------------------

 ------------------
 Phi Psi fixed scan
 ------------------
 Symbolic Z-matrix:
 Charge =  0 Multiplicity = 1

 SCF Done:  E(RB3LYP) =  -990.490228754     A.U. after   14 cycles

  Exact polarizability:   0.000   0.000   0.000   0.000   0.000   0.000
 Approx polarizability: 242.225  20.034 220.371  10.125 -10.131 207.598

 SCF Done:  E(RB3LYP) =  -990.496878973     A.U. after   12 cycles
 SCF Done:  E(RB3LYP) =  -990.504113013     A.U. after   13 cycles
 SCF Done:  E(RB3LYP) =  -990.505801991     A.U. after   12 cycles
 SCF Done:  E(RB3LYP) =  -990.506696751     A.U. after   13 cycles
 SCF Done:  E(RB3LYP) =  -990.506978571     A.U. after   14 cycles
 SCF Done:  E(RB3LYP) =  -990.507219708     A.U. after   14 cycles
 SCF Done:  E(RB3LYP) =  -990.485107020     A.U. after   15 cycles
 SCF Done:  E(RB3LYP) =  -990.507269181     A.U. after   15 cycles
 SCF Done:  E(RB3LYP) =  -990.507341162     A.U. after   11 cycles
 SCF Done:  E(RB3LYP) =  -990.507409131     A.U. after   10 cycles
 SCF Done:  E(RB3LYP) =  -990.507414582     A.U. after   10 cycles
 SCF Done:  E(RB3LYP) =  -990.507416760     A.U. after   10 cycles
 SCF Done:  E(RB3LYP) =  -990.507417654     A.U. after    8 cycles
 SCF Done:  E(RB3LYP) =  -990.507418182     A.U. after    7 cycles
 SCF Done:  E(RB3LYP) =  -990.507418553     A.U. after    7 cycles
 SCF Done:  E(RB3LYP) =  -990.507418853     A.U. after    9 cycles
 SCF Done:  E(RB3LYP) =  -990.507419024     A.U. after    9 cycles
 SCF Done:  E(RB3LYP) =  -990.507419070     A.U. after    7 cycles
 SCF Done:  E(RB3LYP) =  -990.507419080     A.U. after    6 cycles
 Optimization completed.
    -- Stationary point found.

                         Standard orientation:
 ---------------------------------------------------------------------
 Center     Atomic      Atomic             Coordinates (Angstroms)
 Number     Number       Type             X           Y           Z
 ---------------------------------------------------------------------
      1          1           0       -6.766347   -0.851362   -0.682102
      2          6           0       -5.858856   -1.441519   -0.842059
      3          1           0       -5.535689   -1.328367   -1.881386
      4          1           0       -6.116724   -2.490172   -0.662838
      5          6           0       -4.810529   -1.012651    0.173882
      6          8           0       -5.024570   -1.037849    1.382968
      7          7           0       -3.617100   -0.611247   -0.347118
      8          1           0       -3.474077   -0.495595   -1.343602
      9          6           0       -2.549783   -0.104133    0.491536
     10          1           0       -2.997135    0.525871    1.271927
     11          6           0       -1.760300   -1.237619    1.177661
     12          1           0       -1.249418   -1.862621    0.438112
     13          1           0       -1.008256   -0.841556    1.869496
     14          1           0       -2.460179   -1.852504    1.748560
     15          6           0       -1.642316    0.752090   -0.406061
     16          8           0       -1.742632    0.738384   -1.629980
     17          7           0       -0.698871    1.484983    0.254946
     18          1           0       -0.732515    1.513325    1.266000
     19          6           0        0.237208    2.381165   -0.420147
     20          1           0        0.041803    2.240834   -1.488937
     21          6           0        0.001030    3.845602   -0.043099
     22          1           0        0.100150    3.995384    1.038737
     23          1           0        0.744655    4.477535   -0.532457
     24          1           0       -1.002299    4.156877   -0.348470
     25          6           0        1.710060    1.977179   -0.176901
     26          8           0        2.616304    2.805708   -0.214127
     27          7           0        1.923644    0.652207    0.014497
     28          1           0        1.160111   -0.014622    0.009686
     29          6           0        3.251350    0.081310    0.126219
     30          1           0        3.890124    0.533765   -0.643475
     31          6           0        3.884380    0.347085    1.506543
     32          1           0        3.280088   -0.109925    2.297087
     33          1           0        4.898869   -0.063284    1.564496
     34          1           0        3.935771    1.426039    1.671033
     35          6           0        3.100756   -1.427874   -0.132201
     36          8           0        2.011521   -1.988065   -0.029698
     37          7           0        4.254051   -2.075698   -0.442152
     38          1           0        5.098993   -1.530784   -0.541309
     39          6           0        4.320438   -3.509800   -0.672009
     40          1           0        3.320263   -3.913500   -0.511821
     41          1           0        4.635571   -3.730296   -1.698289
     42          1           0        5.018563   -3.987192    0.024856
 ---------------------------------------------------------------------

 The electronic state is 1-A.
 Alpha  occ. eigenvalues --  -19.13135 -19.13073 -19.11410 -19.09805 -14.38089
 Alpha  occ. eigenvalues --  -14.37682 -14.35871 -14.34889 -10.30279 -10.30091
 Alpha  occ. eigenvalues --  -10.28745 -10.27784 -10.24596 -10.23976 -10.23752
 Alpha  occ. eigenvalues --  -10.23142 -10.19249 -10.18405 -10.18345 -10.18238
 Alpha  occ. eigenvalues --   -1.05183  -1.05014  -1.03244  -1.01816  -0.94213
 Alpha  occ. eigenvalues --   -0.93839  -0.92225  -0.91418  -0.79485  -0.77808
 Alpha  occ. eigenvalues --   -0.75716  -0.72113  -0.71956  -0.67679  -0.65826
 Alpha  occ. eigenvalues --   -0.63465  -0.60434  -0.60297  -0.58185  -0.57369
 Alpha  occ. eigenvalues --   -0.55926  -0.52523  -0.49458  -0.49077  -0.48713
 Alpha  occ. eigenvalues --   -0.46975  -0.46658  -0.46365  -0.45403  -0.44931
 Alpha  occ. eigenvalues --   -0.44029  -0.43623  -0.42929  -0.42084  -0.41313
 Alpha  occ. eigenvalues --   -0.40982  -0.40613  -0.40302  -0.39832  -0.39164
 Alpha  occ. eigenvalues --   -0.38685  -0.38114  -0.37990  -0.37517  -0.37082
 Alpha  occ. eigenvalues --   -0.36665  -0.36589  -0.35144  -0.33808  -0.28535
 Alpha  occ. eigenvalues --   -0.27216  -0.27135  -0.26956  -0.25428  -0.24848
 Alpha  occ. eigenvalues --   -0.24001  -0.23788
 Alpha virt. eigenvalues --    0.00862   0.01246   0.02436   0.03855   0.05779
 Alpha virt. eigenvalues --    0.06730   0.09619   0.10797   0.11279   0.11761
 Alpha virt. eigenvalues --    0.12990   0.13318   0.13541   0.14586   0.14746

 Mulliken atomic charges:
              1
     1  H    0.181907
     2  C   -0.533204
     3  H    0.148468
     4  H    0.182416
     5  C    0.596096
     6  O   -0.524252
     7  N   -0.603991
     8  H    0.347394
     9  C   -0.034038
    10  H    0.171807
    11  C   -0.451939
    12  H    0.173292
    13  H    0.134974
    14  H    0.190955
    15  C    0.604840
    16  O   -0.523596
    17  N   -0.624082
    18  H    0.332996
    19  C   -0.060330
    20  H    0.211286
    21  C   -0.442750
    22  H    0.142503
    23  H    0.185975
    24  H    0.154645
    25  C    0.611827
    26  O   -0.536726
    27  N   -0.621090
    28  H    0.363583
    29  C   -0.025252
    30  H    0.166619
    31  C   -0.446093
    32  H    0.157746
    33  H    0.137782
    34  H    0.191951
    35  C    0.605570
    36  O   -0.530039
    37  N   -0.592584
    38  H    0.332166
    39  C   -0.313948
    40  H    0.208521
    41  H    0.165316
    42  H    0.163279
 Sum of Mulliken atomic charges =   0.00000

 Dipole moment (field-independent basis, Debye):
    X=              4.5943    Y=             -1.5467    Z=             -0.4453  Tot=              4.8681
 Quadrupole moment (field-independent basis, Debye-Ang):
   XX=           -108.5603   YY=           -120.4755   ZZ=           -122.0593
   XY=            -18.9195   XZ=              9.0959   YZ=              7.9981

 Normal termination of Gaussian 09 at Thu Dec 29 16:19:40 2016.
