 Gaussian 09, Revision A.02,
 Gaussian 09:  EM64L-G09RevA.02 11-Jun-2009

 -------------------------------------------------------------------
 # HF/6-31G* Opt=(ModRedundant, maxcycles=1000, calcfc) geom=nocrowd
 -------------------------------------------------------------------

 ------------------
 Phi Psi fixed scan
 ------------------
 Symbolic Z-matrix:
 Charge =  0 Multiplicity = 1

 SCF Done:  E(RHF) =  -984.508926273     A.U. after   15 cycles

  Exact polarizability:   0.000   0.000   0.000   0.000   0.000   0.000
 Approx polarizability: 131.678  -3.510 135.237   0.674 -14.281 121.927

 SCF Done:  E(RHF) =  -984.525517083     A.U. after   13 cycles
 SCF Done:  E(RHF) =  -984.544401953     A.U. after   14 cycles
 SCF Done:  E(RHF) =  -984.549446327     A.U. after   13 cycles
 SCF Done:  E(RHF) =  -984.549080761     A.U. after   13 cycles
 SCF Done:  E(RHF) =  -984.551685079     A.U. after   13 cycles
 SCF Done:  E(RHF) =  -984.553743589     A.U. after   16 cycles
 SCF Done:  E(RHF) =  -984.555499565     A.U. after   15 cycles
 SCF Done:  E(RHF) =  -984.554178505     A.U. after   15 cycles
 SCF Done:  E(RHF) =  -984.556497204     A.U. after   15 cycles
 SCF Done:  E(RHF) =  -984.557040292     A.U. after   10 cycles
 SCF Done:  E(RHF) =  -984.557040020     A.U. after   10 cycles
 SCF Done:  E(RHF) =  -984.557040354     A.U. after   10 cycles
 SCF Done:  E(RHF) =  -984.556585081     A.U. after   11 cycles
 SCF Done:  E(RHF) =  -984.557040701     A.U. after   11 cycles
 SCF Done:  E(RHF) =  -984.557040916     A.U. after    9 cycles
 SCF Done:  E(RHF) =  -984.557041042     A.U. after    8 cycles
 SCF Done:  E(RHF) =  -984.557041081     A.U. after    8 cycles
 SCF Done:  E(RHF) =  -984.557041092     A.U. after    7 cycles
 SCF Done:  E(RHF) =  -984.557041096     A.U. after    7 cycles
 Optimization completed.
    -- Stationary point found.

                         Standard orientation:
 ---------------------------------------------------------------------
 Center     Atomic      Atomic             Coordinates (Angstroms)
 Number     Number       Type             X           Y           Z
 ---------------------------------------------------------------------
      1          1           0        5.612923    3.468320   -0.199249
      2          6           0        5.666615    2.551578    0.373410
      3          1           0        5.248943    2.715832    1.359238
      4          1           0        6.713148    2.286558    0.475439
      5          6           0        4.965933    1.455972   -0.401325
      6          8           0        5.179888    1.279290   -1.572840
      7          7           0        4.111129    0.691301    0.305691
      8          1           0        3.930013    0.871286    1.267384
      9          6           0        3.363520   -0.387352   -0.293074
     10          1           0        3.034341   -0.068950   -1.274193
     11          6           0        4.206327   -1.661669   -0.439075
     12          1           0        4.533065   -2.010599    0.534791
     13          1           0        3.642978   -2.454637   -0.919140
     14          1           0        5.076326   -1.443272   -1.043911
     15          6           0        2.148690   -0.650906    0.599849
     16          8           0        2.150116   -0.306415    1.753650
     17          7           0        1.159578   -1.327706   -0.016320
     18          1           0        1.219165   -1.391836   -1.008895
     19          6           0       -0.159592   -1.698352    0.476833
     20          1           0       -0.276633   -2.761904    0.280633
     21          6           0       -0.390332   -1.488577    1.972169
     22          1           0       -0.406789   -0.444359    2.248645
     23          1           0       -1.332783   -1.948989    2.249581
     24          1           0        0.390308   -1.967605    2.542754
     25          6           0       -1.181101   -1.036434   -0.463540
     26          8           0       -0.908264   -0.903112   -1.631998
     27          7           0       -2.370375   -0.688630    0.045238
     28          1           0       -2.556863   -0.728509    1.021834
     29          6           0       -3.403656   -0.089391   -0.768933
     30          1           0       -2.935833    0.596159   -1.464422
     31          6           0       -4.194777   -1.140706   -1.557778
     32          1           0       -4.685687   -1.829714   -0.879345
     33          1           0       -4.949884   -0.676418   -2.183166
     34          1           0       -3.517353   -1.694972   -2.193725
     35          6           0       -4.327079    0.680403    0.171915
     36          8           0       -4.378355    0.424023    1.347218
     37          7           0       -5.095765    1.618975   -0.405736
     38          1           0       -4.934509    1.856147   -1.356980
     39          6           0       -6.024467    2.422244    0.363987
     40          1           0       -6.636008    1.784812    0.985958
     41          1           0       -5.506272    3.129707    1.000764
     42          1           0       -6.662125    2.964207   -0.320964
 ---------------------------------------------------------------------

 The electronic state is 1-A.
 Alpha  occ. eigenvalues --  -20.54345 -20.53442 -20.53200 -20.50944 -15.60383
 Alpha  occ. eigenvalues --  -15.59470 -15.59128 -15.57365 -11.36293 -11.35787
 Alpha  occ. eigenvalues --  -11.35590 -11.33862 -11.29402 -11.29186 -11.27508
 Alpha  occ. eigenvalues --  -11.27094 -11.23312 -11.22746 -11.22437 -11.21793
 Alpha  occ. eigenvalues --   -1.41440  -1.40573  -1.39894  -1.37831  -1.25217
 Alpha  occ. eigenvalues --   -1.25081  -1.24658  -1.22970  -1.07875  -1.05208
 Alpha  occ. eigenvalues --   -1.02580  -0.98242  -0.97155  -0.92216  -0.90245
 Alpha  occ. eigenvalues --   -0.87486  -0.81969  -0.80030  -0.78570  -0.77368
 Alpha  occ. eigenvalues --   -0.75306  -0.72673  -0.68556  -0.68223  -0.67268
 Alpha  occ. eigenvalues --   -0.66057  -0.65199  -0.64600  -0.64202  -0.62822
 Alpha  occ. eigenvalues --   -0.61887  -0.60810  -0.60659  -0.59934  -0.58392
 Alpha  occ. eigenvalues --   -0.57223  -0.56864  -0.56595  -0.56349  -0.56208
 Alpha  occ. eigenvalues --   -0.55091  -0.54644  -0.53927  -0.53798  -0.53226
 Alpha  occ. eigenvalues --   -0.52657  -0.52003  -0.50602  -0.49011  -0.44236
 Alpha  occ. eigenvalues --   -0.43415  -0.42078  -0.41194  -0.40757  -0.39812
 Alpha  occ. eigenvalues --   -0.39267  -0.37658
 Alpha virt. eigenvalues --    0.17482   0.19125   0.19720   0.20507   0.21683
 Alpha virt. eigenvalues --    0.23090   0.24462   0.25006   0.25834   0.27303
 Alpha virt. eigenvalues --    0.28285   0.28687   0.28900   0.29484   0.30215

 Mulliken atomic charges:
              1
     1  H    0.205661
     2  C   -0.574679
     3  H    0.171550
     4  H    0.201964
     5  C    0.757142
     6  O   -0.623634
     7  N   -0.825761
     8  H    0.418680
     9  C   -0.033699
    10  H    0.220818
    11  C   -0.484531
    12  H    0.173277
    13  H    0.162687
    14  H    0.210727
    15  C    0.791791
    16  O   -0.638419
    17  N   -0.831731
    18  H    0.415581
    19  C   -0.021271
    20  H    0.210507
    21  C   -0.510566
    22  H    0.204249
    23  H    0.161264
    24  H    0.213845
    25  C    0.801141
    26  O   -0.649560
    27  N   -0.850862
    28  H    0.441031
    29  C   -0.031817
    30  H    0.217172
    31  C   -0.485248
    32  H    0.180676
    33  H    0.162390
    34  H    0.210277
    35  C    0.776126
    36  O   -0.629348
    37  N   -0.799265
    38  H    0.391142
    39  C   -0.273892
    40  H    0.204217
    41  H    0.186528
    42  H    0.173839
 Sum of Mulliken atomic charges =   0.00000

 Dipole moment (field-independent basis, Debye):
    X=             -4.9089    Y=              0.4736    Z=              0.2305  Tot=              4.9371
 Quadrupole moment (field-independent basis, Debye-Ang):
   XX=           -111.3777   YY=           -107.4390   ZZ=           -133.8903
   XY=            -11.0291   XZ=             23.9989   YZ=              0.3414

 Normal termination of Gaussian 09 at Mon Dec 26 13:50:29 2016.
