 Gaussian 09, Revision A.02,
 Gaussian 09:  EM64L-G09RevA.02 11-Jun-2009

 -------------------------------------------------------------------
 # HF/6-31G* Opt=(ModRedundant, maxcycles=1000, calcfc) geom=nocrowd
 -------------------------------------------------------------------

 ------------------
 Phi Psi fixed scan
 ------------------
 Symbolic Z-matrix:
 Charge =  0 Multiplicity = 1

 SCF Done:  E(RHF) =  -984.515328114     A.U. after   15 cycles

  Exact polarizability:   0.000   0.000   0.000   0.000   0.000   0.000
 Approx polarizability: 134.433  -7.796 128.832   5.695   3.443 125.519

 SCF Done:  E(RHF) =  -984.530383508     A.U. after   16 cycles
 SCF Done:  E(RHF) =  -984.547364398     A.U. after   15 cycles
 SCF Done:  E(RHF) =  -984.550277651     A.U. after   14 cycles
 SCF Done:  E(RHF) =  -984.545824440     A.U. after   16 cycles
 SCF Done:  E(RHF) =  -984.552479954     A.U. after   16 cycles
 SCF Done:  E(RHF) =  -984.554407736     A.U. after   13 cycles
 SCF Done:  E(RHF) =  -984.556278626     A.U. after   13 cycles
 SCF Done:  E(RHF) =  -984.557046600     A.U. after   15 cycles
 SCF Done:  E(RHF) =  -984.413628645     A.U. after   16 cycles
 SCF Done:  E(RHF) =  -984.557683416     A.U. after   10 cycles
 SCF Done:  E(RHF) =  -984.557684122     A.U. after    9 cycles
 SCF Done:  E(RHF) =  -984.557684666     A.U. after    9 cycles
 SCF Done:  E(RHF) =  -984.557685105     A.U. after    9 cycles
 SCF Done:  E(RHF) =  -984.557685703     A.U. after    9 cycles
 SCF Done:  E(RHF) =  -984.557686133     A.U. after    9 cycles
 SCF Done:  E(RHF) =  -984.557686447     A.U. after    9 cycles
 SCF Done:  E(RHF) =  -984.557686616     A.U. after    8 cycles
 SCF Done:  E(RHF) =  -984.557686691     A.U. after    8 cycles
 SCF Done:  E(RHF) =  -984.557686721     A.U. after    7 cycles
 Optimization completed.
    -- Stationary point found.

                         Standard orientation:
 ---------------------------------------------------------------------
 Center     Atomic      Atomic             Coordinates (Angstroms)
 Number     Number       Type             X           Y           Z
 ---------------------------------------------------------------------
      1          1           0        5.603050    2.898319    1.000426
      2          6           0        4.672441    2.442453    1.309181
      3          1           0        3.990292    3.234276    1.600821
      4          1           0        4.845711    1.803061    2.166482
      5          6           0        4.077172    1.702750    0.131165
      6          8           0        4.152229    2.130277   -0.991185
      7          7           0        3.436714    0.552394    0.426537
      8          1           0        3.362970    0.227751    1.364389
      9          6           0        2.741411   -0.215085   -0.575953
     10          1           0        2.244280    0.474261   -1.247186
     11          6           0        3.695814   -1.102288   -1.387979
     12          1           0        4.196530   -1.810801   -0.737126
     13          1           0        3.167395   -1.654899   -2.158653
     14          1           0        4.438742   -0.477230   -1.864688
     15          6           0        1.705228   -1.079615    0.141728
     16          8           0        1.837687   -1.368831    1.300005
     17          7           0        0.673898   -1.473971   -0.643050
     18          1           0        0.698812   -1.140152   -1.580952
     19          6           0       -0.341512   -2.496215   -0.403294
     20          1           0       -0.319876   -3.165740   -1.254581
     21          6           0       -0.149787   -3.348088    0.854716
     22          1           0       -0.236834   -2.764099    1.758340
     23          1           0       -0.915856   -4.113238    0.846084
     24          1           0        0.821452   -3.823458    0.852248
     25          6           0       -1.761045   -1.923432   -0.409739
     26          8           0       -2.684193   -2.629430   -0.727668
     27          7           0       -1.905615   -0.651851   -0.010251
     28          1           0       -1.112616   -0.094828    0.217760
     29          6           0       -3.195435   -0.010027    0.066143
     30          1           0       -3.791141   -0.348925   -0.772300
     31          6           0       -3.930973   -0.348791    1.369589
     32          1           0       -3.356641   -0.010185    2.224863
     33          1           0       -4.909064    0.119676    1.403910
     34          1           0       -4.061837   -1.420889    1.436459
     35          6           0       -2.962470    1.494729   -0.041421
     36          8           0       -1.895392    1.985431    0.222089
     37          7           0       -4.031304    2.225048   -0.405102
     38          1           0       -4.856810    1.758710   -0.701646
     39          6           0       -3.960578    3.666537   -0.532939
     40          1           0       -3.520788    4.095969    0.355690
     41          1           0       -3.363999    3.961578   -1.388259
     42          1           0       -4.963870    4.052361   -0.652145
 ---------------------------------------------------------------------

 The electronic state is 1-A.
 Alpha  occ. eigenvalues --  -20.54207 -20.53852 -20.52505 -20.51467 -15.60568
 Alpha  occ. eigenvalues --  -15.59981 -15.58574 -15.57840 -11.36508 -11.35803
 Alpha  occ. eigenvalues --  -11.34821 -11.34279 -11.29065 -11.28664 -11.28304
 Alpha  occ. eigenvalues --  -11.26790 -11.22833 -11.22679 -11.22582 -11.22247
 Alpha  occ. eigenvalues --   -1.41235  -1.40852  -1.39345  -1.38354  -1.26134
 Alpha  occ. eigenvalues --   -1.24747  -1.23862  -1.23450  -1.07596  -1.05117
 Alpha  occ. eigenvalues --   -1.03030  -0.98664  -0.96791  -0.92048  -0.89967
 Alpha  occ. eigenvalues --   -0.87430  -0.81392  -0.79561  -0.79027  -0.78420
 Alpha  occ. eigenvalues --   -0.75088  -0.73384  -0.68993  -0.67774  -0.66634
 Alpha  occ. eigenvalues --   -0.66331  -0.64867  -0.64724  -0.63352  -0.63005
 Alpha  occ. eigenvalues --   -0.62247  -0.61334  -0.60120  -0.59307  -0.58680
 Alpha  occ. eigenvalues --   -0.57833  -0.57254  -0.56662  -0.56537  -0.55702
 Alpha  occ. eigenvalues --   -0.54812  -0.54696  -0.53709  -0.53666  -0.52836
 Alpha  occ. eigenvalues --   -0.52772  -0.52134  -0.49942  -0.49516  -0.44652
 Alpha  occ. eigenvalues --   -0.43279  -0.42787  -0.41225  -0.40651  -0.39560
 Alpha  occ. eigenvalues --   -0.38680  -0.38331
 Alpha virt. eigenvalues --    0.18082   0.18382   0.20134   0.20349   0.20834
 Alpha virt. eigenvalues --    0.21312   0.24174   0.25763   0.26247   0.27200
 Alpha virt. eigenvalues --    0.28135   0.28794   0.29039   0.29717   0.30936

 Mulliken atomic charges:
              1
     1  H    0.207735
     2  C   -0.576825
     3  H    0.204945
     4  H    0.173508
     5  C    0.756566
     6  O   -0.621666
     7  N   -0.821972
     8  H    0.419000
     9  C   -0.037333
    10  H    0.219576
    11  C   -0.487176
    12  H    0.178662
    13  H    0.154588
    14  H    0.216245
    15  C    0.793309
    16  O   -0.622420
    17  N   -0.861570
    18  H    0.394343
    19  C   -0.013716
    20  H    0.215809
    21  C   -0.491035
    22  H    0.202883
    23  H    0.192986
    24  H    0.189032
    25  C    0.765040
    26  O   -0.635900
    27  N   -0.821912
    28  H    0.435644
    29  C   -0.035387
    30  H    0.214062
    31  C   -0.484729
    32  H    0.182109
    33  H    0.159796
    34  H    0.209108
    35  C    0.776363
    36  O   -0.628538
    37  N   -0.799932
    38  H    0.390091
    39  C   -0.272627
    40  H    0.203340
    41  H    0.185759
    42  H    0.172239
 Sum of Mulliken atomic charges =   0.00000

 Dipole moment (field-independent basis, Debye):
    X=             -3.0466    Y=              0.7031    Z=             -0.0407  Tot=              3.1269
 Quadrupole moment (field-independent basis, Debye-Ang):
   XX=           -106.9848   YY=           -126.6974   ZZ=           -119.8701
   XY=            -23.0216   XZ=              8.2204   YZ=              5.4047

 Normal termination of Gaussian 09 at Mon Dec 26 15:16:53 2016.
