 Gaussian 09, Revision A.02,
 Gaussian 09:  EM64L-G09RevA.02 11-Jun-2009

 -------------------
 #SP MP2/aug-cc-pVDZ
 -------------------

 -------------------------------
 Single Point calculation at MP2
 -------------------------------
 Symbolic Z-matrix:
 Charge =  0 Multiplicity = 1

                         Standard orientation:
 ---------------------------------------------------------------------
 Center     Atomic      Atomic             Coordinates (Angstroms)
 Number     Number       Type             X           Y           Z
 ---------------------------------------------------------------------
      1          1           0        3.730805   -1.321764   -0.393694
      2          6           0        2.975201   -0.670168   -0.835394
      3          1           0        2.438504   -1.229471   -1.610794
      4          1           0        3.462796    0.191334   -1.306294
      5          6           0        1.983099   -0.260274    0.238606
      6          8           0        1.852402   -0.858875    1.289906
      7          7           0        1.287192    0.928922   -0.025894
      8          1           0        1.405691    1.222023   -0.992594
      9          6           0       -0.113008    1.048415    0.377506
     10          1           0       -0.126009    1.119115    1.473706
     11          6           0       -0.681715    2.348312   -0.206894
     12          1           0       -0.771115    2.287311   -1.298194
     13          1           0       -1.671517    2.586306    0.193206
     14          1           0       -0.015720    3.180215    0.042106
     15          6           0       -0.938501   -0.222090    0.015706
     16          8           0       -0.424896   -1.242487   -0.418394
     17          7           0       -2.298902   -0.058397    0.067106
     18          1           0       -2.664307    0.733101    0.577906
     19          6           0       -3.199896   -1.182902   -0.142994
     20          1           0       -2.744192   -1.848200   -0.876994
     21          1           0       -3.377393   -1.754203    0.777806
     22          1           0       -4.156698   -0.816307   -0.525994
 ---------------------------------------------------------------------

 SCF Done:  E(RHF) =  -492.911840271     A.U. after   15 cycles
 E2 =    -0.1603251223D+01 EUMP2 =    -0.49451509149404D+03

 The electronic state is 1-A.
 Alpha  occ. eigenvalues --  -20.53497 -20.52184 -15.59850 -15.58655 -11.36226
 Alpha  occ. eigenvalues --  -11.35166 -11.29813 -11.27009 -11.25475 -11.23527
 Alpha  occ. eigenvalues --   -1.39322  -1.37177  -1.23582  -1.22877  -1.05431
 Alpha  occ. eigenvalues --   -0.98582  -0.95702  -0.88234  -0.79295  -0.77795
 Alpha  occ. eigenvalues --   -0.71740  -0.66894  -0.66341  -0.63781  -0.62595
 Alpha  occ. eigenvalues --   -0.61436  -0.59091  -0.57693  -0.57036  -0.56172
 Alpha  occ. eigenvalues --   -0.55109  -0.54578  -0.53388  -0.51132  -0.48876
 Alpha  occ. eigenvalues --   -0.44601  -0.41487  -0.39836  -0.38599
 Alpha virt. eigenvalues --    0.02582   0.03654   0.04093   0.04759   0.05630
 Alpha virt. eigenvalues --    0.05921   0.06070   0.06939   0.07320   0.08139
 Alpha virt. eigenvalues --    0.08873   0.09815   0.10754   0.11887   0.12211

 Mulliken atomic charges:
              1
     1  H   -0.054329
     2  C    0.307460
     3  H    0.080807
     4  H   -0.025343
     5  C    0.755590
     6  O   -0.871404
     7  N   -0.637684
     8  H    0.046622
     9  C    0.230011
    10  H   -0.103752
    11  C    0.727883
    12  H   -0.013486
    13  H   -0.145193
    14  H   -0.035010
    15  C    0.802337
    16  O   -0.784854
    17  N   -0.531108
    18  H   -0.107805
    19  C    0.714646
    20  H   -0.118409
    21  H   -0.060359
    22  H   -0.176617
 Sum of Mulliken atomic charges =   0.00000

 Dipole moment (field-independent basis, Debye):
    X=             -3.0735    Y=              4.0475    Z=             -2.1827  Tot=              5.5311
 Quadrupole moment (field-independent basis, Debye-Ang):
   XX=            -51.1690   YY=            -62.6249   ZZ=            -63.4334
   XY=              0.7511   XZ=             -9.5399   YZ=              1.8404

 Normal termination of Gaussian 09 at Mon Feb 13 19:07:42 2017.
