 Gaussian 09, Revision A.02,
 Gaussian 09:  EM64L-G09RevA.02 11-Jun-2009

 -------------------
 #SP MP2/aug-cc-pVDZ
 -------------------

 -------------------------------
 Single Point calculation at MP2
 -------------------------------
 Symbolic Z-matrix:
 Charge =  0 Multiplicity = 1

                         Standard orientation:
 ---------------------------------------------------------------------
 Center     Atomic      Atomic             Coordinates (Angstroms)
 Number     Number       Type             X           Y           Z
 ---------------------------------------------------------------------
      1          1           0       -3.522496   -1.729792    0.108710
      2          6           0       -3.003395   -0.908792    0.607910
      3          1           0       -2.765095   -1.233393    1.627710
      4          1           0       -3.667194   -0.040391    0.667410
      5          6           0       -1.709294   -0.622294   -0.136190
      6          8           0       -1.047296   -1.512895   -0.661390
      7          7           0       -1.346993    0.697906   -0.207590
      8          1           0       -1.841792    1.330206    0.409710
      9          6           0        0.018308    1.117604   -0.558390
     10          1           0        0.144708    0.953404   -1.635690
     11          6           0        0.187010    2.602304   -0.246090
     12          1           0        0.164210    2.759704    0.836610
     13          1           0        1.153310    2.959202   -0.614290
     14          1           0       -0.602690    3.191205   -0.725290
     15          6           0        1.095207    0.293102    0.195010
     16          8           0        1.373107    0.541802    1.363110
     17          7           0        1.743006   -0.640798   -0.558390
     18          1           0        1.182805   -1.025698   -1.309990
     19          6           0        2.678804   -1.556000    0.079610
     20          1           0        3.309505   -0.988800    0.765910
     21          1           0        2.163103   -2.338199    0.652210
     22          1           0        3.303204   -2.024000   -0.686090
 ---------------------------------------------------------------------

 SCF Done:  E(RHF) =  -492.924178825     A.U. after   15 cycles
 E2 =    -0.1602657679D+01 EUMP2 =    -0.49452683650459D+03

 The electronic state is 1-A.
 Alpha  occ. eigenvalues --  -20.54202 -20.53005 -15.60547 -15.58127 -11.37225
 Alpha  occ. eigenvalues --  -11.35277 -11.29601 -11.25645 -11.25316 -11.24079
 Alpha  occ. eigenvalues --   -1.39624  -1.37922  -1.24551  -1.22205  -1.05882
 Alpha  occ. eigenvalues --   -0.99722  -0.95219  -0.87111  -0.80724  -0.76854
 Alpha  occ. eigenvalues --   -0.71585  -0.69004  -0.67305  -0.63629  -0.61998
 Alpha  occ. eigenvalues --   -0.61639  -0.59634  -0.58649  -0.57559  -0.54908
 Alpha  occ. eigenvalues --   -0.54141  -0.53611  -0.52817  -0.51414  -0.50696
 Alpha  occ. eigenvalues --   -0.44244  -0.43583  -0.40188  -0.38104
 Alpha virt. eigenvalues --    0.02937   0.03984   0.04288   0.04844   0.05627
 Alpha virt. eigenvalues --    0.06231   0.06453   0.06910   0.07363   0.08013
 Alpha virt. eigenvalues --    0.09122   0.09578   0.11013   0.11881   0.13217

 Mulliken atomic charges:
              1
     1  H    0.001125
     2  C    0.376625
     3  H    0.067773
     4  H   -0.095659
     5  C    0.573276
     6  O   -0.862697
     7  N   -0.557715
     8  H   -0.001070
     9  C    0.245883
    10  H   -0.321196
    11  C    0.663198
    12  H    0.025870
    13  H   -0.074666
    14  H   -0.035331
    15  C    1.043507
    16  O   -0.875593
    17  N   -0.589732
    18  H    0.026638
    19  C    0.756869
    20  H   -0.122559
    21  H   -0.064005
    22  H   -0.180541
 Sum of Mulliken atomic charges =   0.00000

 Dipole moment (field-independent basis, Debye):
    X=             -2.3372    Y=              1.3975    Z=             -1.1819  Tot=              2.9685
 Quadrupole moment (field-independent basis, Debye-Ang):
   XX=            -53.8750   YY=            -60.1846   ZZ=            -65.0910
   XY=             -5.2385   XZ=             -7.6721   YZ=             -3.1468

 Normal termination of Gaussian 09 at Mon Feb 13 17:41:19 2017.
