 Gaussian 09, Revision A.02,
 Gaussian 09:  EM64L-G09RevA.02 11-Jun-2009

 -------------------
 #SP MP2/aug-cc-pVDZ
 -------------------

 -------------------------------
 Single Point calculation at MP2
 -------------------------------
 Symbolic Z-matrix:
 Charge =  0 Multiplicity = 1

                         Standard orientation:
 ---------------------------------------------------------------------
 Center     Atomic      Atomic             Coordinates (Angstroms)
 Number     Number       Type             X           Y           Z
 ---------------------------------------------------------------------
      1          1           0       -3.717215   -1.456282    0.024406
      2          6           0       -3.113111   -0.706685    0.538506
      3          1           0       -2.784214   -1.124787    1.497506
      4          1           0       -3.721107    0.182118    0.739306
      5          6           0       -1.887110   -0.396291   -0.300694
      6          8           0       -1.425714   -1.172194   -1.122494
      7          7           0       -1.340803    0.865506   -0.106494
      8          1           0       -1.632601    1.308707    0.758406
      9          6           0        0.072998    1.058498   -0.402194
     10          1           0        0.189898    1.065198   -1.493394
     11          6           0        0.535205    2.407096    0.164606
     12          1           0        0.472805    2.405596    1.259606
     13          1           0        1.574106    2.610190   -0.108694
     14          1           0       -0.091891    3.217299   -0.221794
     15          6           0        0.934692   -0.096506    0.170706
     16          8           0        0.559388   -0.782104    1.111206
     17          7           0        2.203292   -0.150813   -0.337994
     18          1           0        2.370994    0.306786   -1.224194
     19          6           0        3.140686   -1.187618    0.066206
     20          1           0        2.886184   -1.488316    1.083206
     21          1           0        3.084381   -2.071818   -0.581794
     22          1           0        4.161688   -0.794123    0.046306
 ---------------------------------------------------------------------

 SCF Done:  E(RHF) =  -492.921919359     A.U. after   15 cycles
 E2 =    -0.1602063171D+01 EUMP2 =    -0.49452398252981D+03

 The electronic state is 1-A.
 Alpha  occ. eigenvalues --  -20.53023 -20.52800 -15.59453 -15.58927 -11.35767
 Alpha  occ. eigenvalues --  -11.35569 -11.29439 -11.26626 -11.24967 -11.23893
 Alpha  occ. eigenvalues --   -1.39050  -1.37516  -1.23490  -1.22993  -1.05488
 Alpha  occ. eigenvalues --   -0.98854  -0.95610  -0.87586  -0.79461  -0.77803
 Alpha  occ. eigenvalues --   -0.71656  -0.67441  -0.66796  -0.63052  -0.62642
 Alpha  occ. eigenvalues --   -0.61345  -0.59334  -0.57810  -0.57124  -0.55880
 Alpha  occ. eigenvalues --   -0.54609  -0.54082  -0.53357  -0.51534  -0.49046
 Alpha  occ. eigenvalues --   -0.43598  -0.42014  -0.39634  -0.39165
 Alpha virt. eigenvalues --    0.02886   0.03696   0.04345   0.04716   0.05693
 Alpha virt. eigenvalues --    0.06076   0.06168   0.07005   0.07439   0.07813
 Alpha virt. eigenvalues --    0.08954   0.09450   0.10623   0.11920   0.12603

 Mulliken atomic charges:
              1
     1  H   -0.031955
     2  C    0.296663
     3  H    0.085628
     4  H   -0.034775
     5  C    0.701740
     6  O   -0.870369
     7  N   -0.542082
     8  H    0.035093
     9  C   -0.033365
    10  H   -0.216549
    11  C    0.772159
    12  H   -0.026696
    13  H   -0.094960
    14  H   -0.031713
    15  C    1.127229
    16  O   -0.883906
    17  N   -0.489841
    18  H   -0.108022
    19  C    0.701032
    20  H   -0.120982
    21  H   -0.064228
    22  H   -0.170101
 Sum of Mulliken atomic charges =   0.00000

 Dipole moment (field-independent basis, Debye):
    X=              1.3935    Y=              3.7802    Z=              0.1389  Tot=              4.0312
 Quadrupole moment (field-independent basis, Debye-Ang):
   XX=            -48.7823   YY=            -62.0475   ZZ=            -64.2863
   XY=             -2.1697   XZ=             -8.7795   YZ=             -0.9939

 Normal termination of Gaussian 09 at Mon Feb 13 18:47:39 2017.
