 Gaussian 09, Revision A.02,
 Gaussian 09:  EM64L-G09RevA.02 11-Jun-2009

 -------------------
 #SP MP2/aug-cc-pVDZ
 -------------------

 -------------------------------
 Single Point calculation at MP2
 -------------------------------
 Symbolic Z-matrix:
 Charge =  0 Multiplicity = 1

                         Standard orientation:
 ---------------------------------------------------------------------
 Center     Atomic      Atomic             Coordinates (Angstroms)
 Number     Number       Type             X           Y           Z
 ---------------------------------------------------------------------
      1          1           0       -3.857598   -1.074477    0.778590
      2          6           0       -3.026495   -0.456980    1.122990
      3          1           0       -2.565197   -0.954782    1.985090
      4          1           0       -3.408192    0.515221    1.454590
      5          6           0       -2.009295   -0.337584   -0.009710
      6          8           0       -1.934798   -1.151184   -0.909710
      7          7           0       -1.228390    0.808313    0.063090
      8          1           0       -1.312488    1.298713    0.946790
      9          6           0        0.090810    0.994007   -0.567710
     10          1           0       -0.080290    0.997408   -1.650310
     11          6           0        0.631816    2.365705   -0.160910
     12          1           0        0.756916    2.459005    0.927590
     13          1           0        1.598817    2.560601   -0.633010
     14          1           0       -0.067681    3.147108   -0.474610
     15          6           0        1.063206   -0.208497   -0.392210
     16          8           0        0.971602   -1.210996   -1.080210
     17          7           0        2.074106   -0.028201    0.518890
     18          1           0        2.068010    0.791199    1.107090
     19          6           0        3.045602   -1.069405    0.807090
     20          1           0        3.001699   -1.792204   -0.008510
     21          1           0        4.053504   -0.645009    0.866590
     22          1           0        2.824200   -1.589604    1.748390
 ---------------------------------------------------------------------

 SCF Done:  E(RHF) =  -492.902858820     A.U. after   14 cycles
 E2 =    -0.1604175634D+01 EUMP2 =    -0.49450703445456D+03

 The electronic state is 1-A.
 Alpha  occ. eigenvalues --  -20.52736 -20.52451 -15.59864 -15.59521 -11.35787
 Alpha  occ. eigenvalues --  -11.35644 -11.29843 -11.26720 -11.25794 -11.24571
 Alpha  occ. eigenvalues --   -1.38539  -1.37589  -1.23994  -1.22660  -1.06051
 Alpha  occ. eigenvalues --   -0.99165  -0.95520  -0.88880  -0.79921  -0.78185
 Alpha  occ. eigenvalues --   -0.71331  -0.67509  -0.66419  -0.64137  -0.61709
 Alpha  occ. eigenvalues --   -0.61554  -0.59302  -0.58343  -0.57805  -0.56289
 Alpha  occ. eigenvalues --   -0.55271  -0.54641  -0.53353  -0.51129  -0.50154
 Alpha  occ. eigenvalues --   -0.44037  -0.41918  -0.38990  -0.38015
 Alpha virt. eigenvalues --    0.02152   0.03570   0.03786   0.04555   0.05408
 Alpha virt. eigenvalues --    0.05573   0.06562   0.06787   0.07256   0.07619
 Alpha virt. eigenvalues --    0.08954   0.09237   0.10783   0.11823   0.12751

 Mulliken atomic charges:
              1
     1  H   -0.040301
     2  C    0.311452
     3  H    0.050856
     4  H   -0.050620
     5  C    0.610024
     6  O   -0.774418
     7  N   -0.597495
     8  H   -0.016667
     9  C    0.399908
    10  H   -0.146914
    11  C    0.708535
    12  H    0.026337
    13  H   -0.093272
    14  H   -0.115678
    15  C    0.846181
    16  O   -0.822578
    17  N   -0.561317
    18  H   -0.127086
    19  C    0.757526
    20  H   -0.141191
    21  H   -0.147350
    22  H   -0.075932
 Sum of Mulliken atomic charges =   0.00000

 Dipole moment (field-independent basis, Debye):
    X=              1.5032    Y=              5.1569    Z=              5.2773  Tot=              7.5301
 Quadrupole moment (field-independent basis, Debye-Ang):
   XX=            -54.9609   YY=            -63.1975   ZZ=            -62.1309
   XY=             -1.4498   XZ=             -2.7025   YZ=             -5.3781

 Normal termination of Gaussian 09 at Mon Feb 13 18:44:29 2017.
