 Gaussian 09, Revision A.02,
 Gaussian 09:  EM64L-G09RevA.02 11-Jun-2009

 -------------------
 #SP MP2/aug-cc-pVDZ
 -------------------

 -------------------------------
 Single Point calculation at MP2
 -------------------------------
 Symbolic Z-matrix:
 Charge =  0 Multiplicity = 1

                         Standard orientation:
 ---------------------------------------------------------------------
 Center     Atomic      Atomic             Coordinates (Angstroms)
 Number     Number       Type             X           Y           Z
 ---------------------------------------------------------------------
      1          1           0        3.263201   -1.669406   -0.666703
      2          6           0        3.179105   -0.628606   -0.343803
      3          1           0        3.445008    0.030593   -1.176603
      4          1           0        3.902306   -0.477709    0.465197
      5          6           0        1.775906   -0.396500    0.200997
      6          8           0        1.229203   -1.190598    0.954097
      7          7           0        1.175511    0.769202   -0.202603
      8          1           0        1.705613    1.409700   -0.777503
      9          6           0       -0.120588    1.233607    0.296297
     10          1           0       -0.016586    1.555706    1.339297
     11          6           0       -0.605783    2.415709   -0.549703
     12          1           0       -0.747784    2.122309   -1.595403
     13          1           0       -1.561982    2.774912   -0.159603
     14          1           0        0.109520    3.246506   -0.509703
     15          6           0       -1.209592    0.140811    0.359097
     16          8           0       -2.017692    0.139914    1.275597
     17          7           0       -1.303495   -0.666989   -0.739803
     18          1           0       -0.472695   -0.736892   -1.311803
     19          6           0       -2.202299   -1.810985   -0.737203
     20          1           0       -3.110098   -1.529182   -0.202303
     21          1           0       -2.455500   -2.081584   -1.766603
     22          1           0       -1.757703   -2.679187   -0.233103
 ---------------------------------------------------------------------

 SCF Done:  E(RHF) =  -492.920920220     A.U. after   14 cycles
 E2 =    -0.1602968244D+01 EUMP2 =    -0.49452388846373D+03

 The electronic state is 1-A.
 Alpha  occ. eigenvalues --  -20.54054 -20.52344 -15.61087 -15.58294 -11.37348
 Alpha  occ. eigenvalues --  -11.35225 -11.29513 -11.25800 -11.25734 -11.24957
 Alpha  occ. eigenvalues --   -1.39659  -1.37602  -1.25178  -1.21943  -1.06264
 Alpha  occ. eigenvalues --   -1.00128  -0.94948  -0.88148  -0.81438  -0.77444
 Alpha  occ. eigenvalues --   -0.70730  -0.69523  -0.67790  -0.62729  -0.62178
 Alpha  occ. eigenvalues --   -0.61999  -0.59659  -0.58594  -0.58170  -0.55792
 Alpha  occ. eigenvalues --   -0.54851  -0.54238  -0.53807  -0.51816  -0.49927
 Alpha  occ. eigenvalues --   -0.43353  -0.42625  -0.40155  -0.38400
 Alpha virt. eigenvalues --    0.02182   0.03711   0.03927   0.04642   0.05662
 Alpha virt. eigenvalues --    0.05898   0.06247   0.06673   0.07276   0.08389
 Alpha virt. eigenvalues --    0.08434   0.09265   0.11508   0.11619   0.12050

 Mulliken atomic charges:
              1
     1  H    0.022895
     2  C    0.410957
     3  H   -0.152932
     4  H    0.062003
     5  C    0.450170
     6  O   -0.832016
     7  N   -0.378178
     8  H   -0.076539
     9  C    0.342331
    10  H   -0.228644
    11  C    0.642561
    12  H   -0.004235
    13  H   -0.052029
    14  H   -0.083630
    15  C    1.087072
    16  O   -0.919634
    17  N   -0.595745
    18  H   -0.041286
    19  C    0.717854
    20  H   -0.117268
    21  H   -0.175728
    22  H   -0.077978
 Sum of Mulliken atomic charges =   0.00000

 Dipole moment (field-independent basis, Debye):
    X=              3.8689    Y=              2.2265    Z=             -5.0936  Tot=              6.7728
 Quadrupole moment (field-independent basis, Debye-Ang):
   XX=            -58.5299   YY=            -57.4248   ZZ=            -65.6983
   XY=              4.4978   XZ=              2.2753   YZ=              3.4108

 Normal termination of Gaussian 09 at Mon Feb 13 19:29:11 2017.
