 Gaussian 09, Revision A.02,
 Gaussian 09:  EM64L-G09RevA.02 11-Jun-2009

 -------------------
 #SP MP2/aug-cc-pVDZ
 -------------------

 -------------------------------
 Single Point calculation at MP2
 -------------------------------
 Symbolic Z-matrix:
 Charge =  0 Multiplicity = 1

                         Standard orientation:
 ---------------------------------------------------------------------
 Center     Atomic      Atomic             Coordinates (Angstroms)
 Number     Number       Type             X           Y           Z
 ---------------------------------------------------------------------
      1          1           0        3.679999   -1.322504   -0.624900
      2          6           0        2.878401   -0.684402   -0.999900
      3          1           0        2.254699   -1.268800   -1.687000
      4          1           0        3.309003    0.155697   -1.557700
      5          6           0        2.022302   -0.225099    0.168600
      6          8           0        2.058100   -0.748400    1.264500
      7          7           0        1.260805    0.931803   -0.082800
      8          1           0        1.303606    1.183803   -1.068100
      9          6           0       -0.122294    1.041307    0.393000
     10          1           0       -0.066094    1.116707    1.488200
     11          6           0       -0.721691    2.344608   -0.147800
     12          1           0       -0.915191    2.285409   -1.225600
     13          1           0       -1.659690    2.607811    0.352700
     14          1           0       -0.020588    3.164306    0.034200
     15          6           0       -0.952298   -0.250491    0.125800
     16          8           0       -0.435001   -1.350592    0.003000
     17          7           0       -2.294298   -0.055487   -0.072300
     18          1           0       -2.692895    0.845914    0.142700
     19          6           0       -3.209701   -1.176584   -0.222900
     20          1           0       -2.654503   -2.006586   -0.660900
     21          1           0       -3.625202   -1.505983    0.738600
     22          1           0       -4.031800   -0.894082   -0.887300
 ---------------------------------------------------------------------

 SCF Done:  E(RHF) =  -492.906370217     A.U. after   14 cycles
 E2 =    -0.1603871284D+01 EUMP2 =    -0.49451024150099D+03

 The electronic state is 1-A.
 Alpha  occ. eigenvalues --  -20.53268 -20.52184 -15.59978 -15.58717 -11.36318
 Alpha  occ. eigenvalues --  -11.35157 -11.29956 -11.27088 -11.25660 -11.23643
 Alpha  occ. eigenvalues --   -1.39213  -1.37157  -1.23670  -1.22801  -1.05522
 Alpha  occ. eigenvalues --   -0.98645  -0.95785  -0.88560  -0.79360  -0.77827
 Alpha  occ. eigenvalues --   -0.71750  -0.66836  -0.66061  -0.64168  -0.62463
 Alpha  occ. eigenvalues --   -0.61378  -0.59207  -0.57873  -0.57124  -0.56334
 Alpha  occ. eigenvalues --   -0.55177  -0.54786  -0.53494  -0.50930  -0.48971
 Alpha  occ. eigenvalues --   -0.44807  -0.41415  -0.39697  -0.38309
 Alpha virt. eigenvalues --    0.02446   0.03610   0.03969   0.04705   0.05584
 Alpha virt. eigenvalues --    0.05967   0.05998   0.06887   0.07239   0.08292
 Alpha virt. eigenvalues --    0.08830   0.09668   0.11169   0.11764   0.12057

 Mulliken atomic charges:
              1
     1  H   -0.063211
     2  C    0.302795
     3  H    0.074634
     4  H   -0.018966
     5  C    0.769255
     6  O   -0.853774
     7  N   -0.649127
     8  H    0.043259
     9  C    0.194834
    10  H   -0.090389
    11  C    0.725076
    12  H   -0.027956
    13  H   -0.046486
    14  H   -0.074376
    15  C    0.771866
    16  O   -0.790944
    17  N   -0.515033
    18  H   -0.132325
    19  C    0.735665
    20  H   -0.128025
    21  H   -0.061334
    22  H   -0.165439
 Sum of Mulliken atomic charges =   0.00000

 Dipole moment (field-independent basis, Debye):
    X=             -3.5936    Y=              4.1021    Z=             -3.1830  Tot=              6.3145
 Quadrupole moment (field-independent basis, Debye-Ang):
   XX=            -52.9006   YY=            -62.5908   ZZ=            -62.9734
   XY=              0.0904   XZ=             -8.9788   YZ=              2.6025

 Normal termination of Gaussian 09 at Mon Feb 13 18:32:50 2017.
