 Gaussian 09, Revision A.02,
 Gaussian 09:  EM64L-G09RevA.02 11-Jun-2009

 -------------------
 #SP MP2/aug-cc-pVDZ
 -------------------

 -------------------------------
 Single Point calculation at MP2
 -------------------------------
 Symbolic Z-matrix:
 Charge =  0 Multiplicity = 1

                         Standard orientation:
 ---------------------------------------------------------------------
 Center     Atomic      Atomic             Coordinates (Angstroms)
 Number     Number       Type             X           Y           Z
 ---------------------------------------------------------------------
      1          1           0       -3.651692   -1.581194   -0.060809
      2          6           0       -3.115392   -0.787195    0.462191
      3          1           0       -2.866392   -1.146895    1.467891
      4          1           0       -3.761991    0.091306    0.559691
      5          6           0       -1.826391   -0.486996   -0.281309
      6          8           0       -1.239892   -1.317396   -0.961009
      7          7           0       -1.361290    0.808704   -0.166009
      8          1           0       -1.740590    1.334604    0.612991
      9          6           0        0.045810    1.070903   -0.445209
     10          1           0        0.187510    1.026002   -1.532409
     11          6           0        0.420511    2.468602    0.059691
     12          1           0        0.329511    2.514402    1.151091
     13          1           0        1.455911    2.705401   -0.201709
     14          1           0       -0.232788    3.227303   -0.384409
     15          6           0        0.952409    0.012202    0.226491
     16          8           0        0.698009   -0.429698    1.338891
     17          7           0        2.119509   -0.238699   -0.437809
     18          1           0        2.141409   -0.029099   -1.426809
     19          6           0        3.064508   -1.230400    0.052891
     20          1           0        3.017708   -1.230000    1.142591
     21          1           0        2.823907   -2.240500   -0.303209
     22          1           0        4.076308   -0.967301   -0.269709
 ---------------------------------------------------------------------

 SCF Done:  E(RHF) =  -492.924865826     A.U. after   15 cycles
 E2 =    -0.1601775578D+01 EUMP2 =    -0.49452664140367D+03

 The electronic state is 1-A.
 Alpha  occ. eigenvalues --  -20.53162 -20.52766 -15.59220 -15.59211 -11.35908
 Alpha  occ. eigenvalues --  -11.35536 -11.29356 -11.26360 -11.24705 -11.24231
 Alpha  occ. eigenvalues --   -1.39047  -1.37602  -1.23630  -1.22842  -1.05553
 Alpha  occ. eigenvalues --   -0.99062  -0.95511  -0.87388  -0.79701  -0.77752
 Alpha  occ. eigenvalues --   -0.71585  -0.67838  -0.66962  -0.63144  -0.62318
 Alpha  occ. eigenvalues --   -0.61273  -0.59404  -0.58031  -0.57191  -0.55683
 Alpha  occ. eigenvalues --   -0.54371  -0.53918  -0.53149  -0.51747  -0.49244
 Alpha  occ. eigenvalues --   -0.43319  -0.42281  -0.39715  -0.39146
 Alpha virt. eigenvalues --    0.03025   0.03695   0.04452   0.04664   0.05747
 Alpha virt. eigenvalues --    0.06127   0.06225   0.07060   0.07373   0.07673
 Alpha virt. eigenvalues --    0.09105   0.09268   0.10699   0.12010   0.12922

 Mulliken atomic charges:
              1
     1  H   -0.018434
     2  C    0.307131
     3  H    0.085242
     4  H   -0.050773
     5  C    0.671635
     6  O   -0.863347
     7  N   -0.497985
     8  H    0.018585
     9  C    0.017052
    10  H   -0.286783
    11  C    0.729581
    12  H   -0.009125
    13  H   -0.074749
    14  H   -0.031728
    15  C    1.167287
    16  O   -0.921579
    17  N   -0.499749
    18  H   -0.099842
    19  C    0.709046
    20  H   -0.116096
    21  H   -0.062193
    22  H   -0.173177
 Sum of Mulliken atomic charges =   0.00000

 Dipole moment (field-independent basis, Debye):
    X=              0.3810    Y=              3.2813    Z=             -0.8120  Tot=              3.4017
 Quadrupole moment (field-independent basis, Debye-Ang):
   XX=            -48.7968   YY=            -61.4100   ZZ=            -64.6484
   XY=             -2.9838   XZ=             -8.2574   YZ=             -1.0614

 Normal termination of Gaussian 09 at Mon Feb 13 18:36:36 2017.
