 Gaussian 09, Revision A.02,
 Gaussian 09:  EM64L-G09RevA.02 11-Jun-2009

 -------------------
 #SP MP2/aug-cc-pVDZ
 -------------------

 -------------------------------
 Single Point calculation at MP2
 -------------------------------
 Symbolic Z-matrix:
 Charge =  0 Multiplicity = 1

                         Standard orientation:
 ---------------------------------------------------------------------
 Center     Atomic      Atomic             Coordinates (Angstroms)
 Number     Number       Type             X           Y           Z
 ---------------------------------------------------------------------
      1          1           0       -3.452617   -1.428197    0.824412
      2          6           0       -3.304315   -0.480097    0.300212
      3          1           0       -3.601513    0.344103    0.956112
      4          1           0       -3.961515   -0.485996   -0.575788
      5          6           0       -1.860515   -0.406200   -0.177388
      6          8           0       -1.341217   -1.339101   -0.788388
      7          7           0       -1.207713    0.753299    0.114712
      8          1           0       -1.719111    1.438800    0.653112
      9          6           0        0.133088    1.178396   -0.313288
     10          1           0        0.084889    1.450396   -1.375888
     11          6           0        0.519291    2.430095    0.487312
     12          1           0        0.590890    2.199195    1.556312
     13          1           0        1.489192    2.790093    0.141112
     14          1           0       -0.220808    3.227297    0.346512
     15          6           0        1.316886    0.181893   -0.243888
     16          8           0        2.374487    0.541991   -0.749288
     17          7           0        1.183984   -0.960206    0.487512
     18          1           0        0.260183   -1.377904    0.456112
     19          6           0        2.303382   -1.894209    0.525612
     20          1           0        3.212383   -1.353110    0.794612
     21          1           0        2.098880   -2.657208    1.281212
     22          1           0        2.472181   -2.381509   -0.443388
 ---------------------------------------------------------------------

 SCF Done:  E(RHF) =  -492.919158877     A.U. after   14 cycles
 E2 =    -0.1603263918D+01 EUMP2 =    -0.49452242279550D+03

 The electronic state is 1-A.
 Alpha  occ. eigenvalues --  -20.54475 -20.52602 -15.61467 -15.57809 -11.38013
 Alpha  occ. eigenvalues --  -11.35471 -11.30042 -11.26041 -11.25535 -11.24563
 Alpha  occ. eigenvalues --   -1.40002  -1.37914  -1.25400  -1.21824  -1.06423
 Alpha  occ. eigenvalues --   -1.00234  -0.94798  -0.87979  -0.81880  -0.77108
 Alpha  occ. eigenvalues --   -0.71277  -0.69845  -0.67612  -0.63136  -0.62558
 Alpha  occ. eigenvalues --   -0.62044  -0.59732  -0.58576  -0.58051  -0.55676
 Alpha  occ. eigenvalues --   -0.54775  -0.53877  -0.53518  -0.52037  -0.49553
 Alpha  occ. eigenvalues --   -0.44163  -0.43094  -0.40599  -0.38304
 Alpha virt. eigenvalues --    0.02334   0.03914   0.04203   0.04622   0.05827
 Alpha virt. eigenvalues --    0.06020   0.06364   0.06807   0.07197   0.08002
 Alpha virt. eigenvalues --    0.08890   0.10194   0.11557   0.11930   0.11957

 Mulliken atomic charges:
              1
     1  H    0.035594
     2  C    0.385559
     3  H   -0.159215
     4  H    0.061493
     5  C    0.451547
     6  O   -0.869630
     7  N   -0.412348
     8  H   -0.040742
     9  C    0.340016
    10  H   -0.038541
    11  C    0.562889
    12  H   -0.014769
    13  H   -0.069251
    14  H   -0.089927
    15  C    0.900325
    16  O   -0.897968
    17  N   -0.505448
    18  H   -0.030733
    19  C    0.759036
    20  H   -0.122070
    21  H   -0.198616
    22  H   -0.047199
 Sum of Mulliken atomic charges =   0.00000

 Dipole moment (field-independent basis, Debye):
    X=             -4.3801    Y=              1.6592    Z=              3.0746  Tot=              5.6028
 Quadrupole moment (field-independent basis, Debye-Ang):
   XX=            -61.0237   YY=            -58.1699   ZZ=            -63.8119
   XY=             -7.4182   XZ=              0.9175   YZ=             -1.9037

 Normal termination of Gaussian 09 at Mon Feb 13 19:22:30 2017.
