 Gaussian 09, Revision A.02,
 Gaussian 09:  EM64L-G09RevA.02 11-Jun-2009

 -------------------
 #SP MP2/aug-cc-pVDZ
 -------------------

 -------------------------------
 Single Point calculation at MP2
 -------------------------------
 Symbolic Z-matrix:
 Charge =  0 Multiplicity = 1

                         Standard orientation:
 ---------------------------------------------------------------------
 Center     Atomic      Atomic             Coordinates (Angstroms)
 Number     Number       Type             X           Y           Z
 ---------------------------------------------------------------------
      1          1           0       -3.102310   -1.081969    1.518004
      2          6           0       -3.197304   -0.456369    0.623704
      3          1           0       -3.564195    0.530335    0.922404
      4          1           0       -3.933808   -0.930562   -0.029996
      5          6           0       -1.857704   -0.429381   -0.098196
      6          8           0       -1.448013   -1.433984   -0.684096
      7          7           0       -1.214293    0.771214   -0.077996
      8          1           0       -1.641087    1.462217    0.525304
      9          6           0        0.171010    1.130801   -0.464696
     10          1           0        0.207510    1.089701   -1.564196
     11          6           0        0.412223    2.575599   -0.030996
     12          1           0        0.382424    2.665199    1.060804
     13          1           0        1.401426    2.898890   -0.354296
     14          1           0       -0.344671    3.235706   -0.468896
     15          6           0        1.351102    0.221890    0.003404
     16          8           0        2.389207    0.748281    0.401304
     17          7           0        1.204890   -1.113008   -0.116896
     18          1           0        0.325387   -1.480100   -0.480396
     19          6           0        2.298082   -2.006718    0.225104
     20          1           0        2.683884   -1.777022    1.223104
     21          1           0        1.926673   -3.034115    0.207904
     22          1           0        3.130583   -1.915026   -0.483096
 ---------------------------------------------------------------------

 SCF Done:  E(RHF) =  -492.918996018     A.U. after   14 cycles
 E2 =    -0.1604505316D+01 EUMP2 =    -0.49452350133337D+03

 The electronic state is 1-A.
 Alpha  occ. eigenvalues --  -20.54874 -20.52106 -15.61746 -15.57253 -11.38402
 Alpha  occ. eigenvalues --  -11.35124 -11.30341 -11.26056 -11.25632 -11.23870
 Alpha  occ. eigenvalues --   -1.40229  -1.37420  -1.25502  -1.21657  -1.06338
 Alpha  occ. eigenvalues --   -1.00136  -0.95266  -0.87465  -0.81796  -0.77290
 Alpha  occ. eigenvalues --   -0.72055  -0.69634  -0.67594  -0.63484  -0.62199
 Alpha  occ. eigenvalues --   -0.61009  -0.59916  -0.59586  -0.57993  -0.55141
 Alpha  occ. eigenvalues --   -0.54161  -0.53413  -0.53051  -0.52368  -0.50119
 Alpha  occ. eigenvalues --   -0.44878  -0.43650  -0.39577  -0.37670
 Alpha virt. eigenvalues --    0.02508   0.04040   0.04426   0.04524   0.05720
 Alpha virt. eigenvalues --    0.06297   0.06346   0.06699   0.07127   0.07853
 Alpha virt. eigenvalues --    0.09351   0.09761   0.11573   0.11751   0.12746

 Mulliken atomic charges:
              1
     1  H    0.049427
     2  C    0.379658
     3  H   -0.158689
     4  H    0.034333
     5  C    0.558624
     6  O   -0.934347
     7  N   -0.510532
     8  H   -0.001693
     9  C    0.246996
    10  H   -0.064454
    11  C    0.701429
    12  H   -0.032982
    13  H   -0.106003
    14  H   -0.037963
    15  C    0.698350
    16  O   -0.821469
    17  N   -0.349974
    18  H   -0.041238
    19  C    0.732238
    20  H   -0.072539
    21  H   -0.209439
    22  H   -0.059733
 Sum of Mulliken atomic charges =   0.00000

 Dipole moment (field-independent basis, Debye):
    X=             -4.0431    Y=              1.1809    Z=              0.8100  Tot=              4.2892
 Quadrupole moment (field-independent basis, Debye-Ang):
   XX=            -63.3310   YY=            -59.6721   ZZ=            -61.4252
   XY=             -8.9891   XZ=             -6.6244   YZ=             -2.9757

 Normal termination of Gaussian 09 at Mon Feb 13 19:15:57 2017.
