 Gaussian 09, Revision A.02,
 Gaussian 09:  EM64L-G09RevA.02 11-Jun-2009

 -------------------
 #SP MP2/aug-cc-pVDZ
 -------------------

 -------------------------------
 Single Point calculation at MP2
 -------------------------------
 Symbolic Z-matrix:
 Charge =  0 Multiplicity = 1

                         Standard orientation:
 ---------------------------------------------------------------------
 Center     Atomic      Atomic             Coordinates (Angstroms)
 Number     Number       Type             X           Y           Z
 ---------------------------------------------------------------------
      1          1           0        3.425040   -1.583126   -0.918700
      2          6           0        3.268318   -0.577129   -0.523200
      3          1           0        3.482402    0.157676   -1.306400
      4          1           0        3.981214   -0.428413    0.296100
      5          6           0        1.850416   -0.486260    0.028400
      6          8           0        1.321436   -1.412371    0.623100
      7          7           0        1.216790    0.711226   -0.201300
      8          1           0        1.768473    1.455738   -0.607500
      9          6           0       -0.037919    1.126299    0.437400
     10          1           0        0.144877    1.308403    1.504100
     11          6           0       -0.538847    2.419088   -0.211800
     12          1           0       -0.727945    2.292984   -1.283000
     13          1           0       -1.469754    2.741368    0.262900
     14          1           0        0.197735    3.222704   -0.086000
     15          6           0       -1.114095    0.010876    0.459800
     16          8           0       -1.518385   -0.451533    1.513000
     17          7           0       -1.728790   -0.226538   -0.745300
     18          1           0       -1.191595   -0.003126   -1.574200
     19          6           0       -2.694466   -1.309959   -0.869100
     20          1           0       -3.335467   -1.297672    0.013500
     21          1           0       -3.303270   -1.150872   -1.763600
     22          1           0       -2.212545   -2.294748   -0.928800
 ---------------------------------------------------------------------

 SCF Done:  E(RHF) =  -492.913780036     A.U. after   14 cycles
 E2 =    -0.1602669195D+01 EUMP2 =    -0.49451644923052D+03

 The electronic state is 1-A.
 Alpha  occ. eigenvalues --  -20.53423 -20.52315 -15.60575 -15.58621 -11.36719
 Alpha  occ. eigenvalues --  -11.35219 -11.29588 -11.25933 -11.25268 -11.25230
 Alpha  occ. eigenvalues --   -1.39088  -1.37557  -1.24657  -1.22026  -1.06126
 Alpha  occ. eigenvalues --   -0.99737  -0.94834  -0.88387  -0.80973  -0.77260
 Alpha  occ. eigenvalues --   -0.69893  -0.69417  -0.67346  -0.63220  -0.62026
 Alpha  occ. eigenvalues --   -0.61515  -0.59377  -0.58137  -0.57956  -0.55740
 Alpha  occ. eigenvalues --   -0.54962  -0.54508  -0.53708  -0.51301  -0.50316
 Alpha  occ. eigenvalues --   -0.42895  -0.41879  -0.39815  -0.38625
 Alpha virt. eigenvalues --    0.02241   0.03622   0.03872   0.04628   0.05536
 Alpha virt. eigenvalues --    0.05921   0.06079   0.06667   0.07292   0.08094
 Alpha virt. eigenvalues --    0.08506   0.09117   0.11438   0.11704   0.11999

 Mulliken atomic charges:
              1
     1  H    0.008196
     2  C    0.419699
     3  H   -0.123209
     4  H    0.063979
     5  C    0.506325
     6  O   -0.817018
     7  N   -0.460094
     8  H   -0.092308
     9  C    0.405336
    10  H   -0.239533
    11  C    0.695893
    12  H   -0.044262
    13  H   -0.052069
    14  H   -0.096353
    15  C    1.068025
    16  O   -0.861602
    17  N   -0.699470
    18  H   -0.043902
    19  C    0.711209
    20  H   -0.106559
    21  H   -0.183314
    22  H   -0.058968
 Sum of Mulliken atomic charges =   0.00000

 Dipole moment (field-independent basis, Debye):
    X=              2.3785    Y=              4.0914    Z=             -5.0098  Tot=              6.8916
 Quadrupole moment (field-independent basis, Debye-Ang):
   XX=            -53.6612   YY=            -60.7945   ZZ=            -64.6234
   XY=              3.7886   XZ=              3.0307   YZ=              4.9619

 Normal termination of Gaussian 09 at Mon Feb 13 20:08:55 2017.
