 Gaussian 09, Revision A.02,
 Gaussian 09:  EM64L-G09RevA.02 11-Jun-2009

 -------------------
 #SP MP2/aug-cc-pVDZ
 -------------------

 -------------------------------
 Single Point calculation at MP2
 -------------------------------
 Symbolic Z-matrix:
 Charge =  0 Multiplicity = 1

                         Standard orientation:
 ---------------------------------------------------------------------
 Center     Atomic      Atomic             Coordinates (Angstroms)
 Number     Number       Type             X           Y           Z
 ---------------------------------------------------------------------
      1          1           0       -3.859106   -1.103307    0.101295
      2          6           0       -3.141908   -0.520605    0.684195
      3          1           0       -2.976306   -1.050804    1.628895
      4          1           0       -3.569710    0.462094    0.905395
      5          6           0       -1.829108   -0.461601   -0.083305
      6          8           0       -1.397605   -1.461400   -0.660205
      7          7           0       -1.231611    0.764100   -0.115105
      8          1           0       -1.657713    1.451499    0.493695
      9          6           0        0.150888    1.127804   -0.508605
     10          1           0        0.198088    1.029504   -1.603005
     11          6           0        0.375884    2.590705   -0.137605
     12          1           0        0.371283    2.721405    0.949495
     13          1           0        1.351383    2.922008   -0.495705
     14          1           0       -0.400618    3.220103   -0.586505
     15          6           0        1.312990    0.242708    0.042195
     16          8           0        2.230189    0.761710    0.675595
     17          7           0        1.291194   -1.067093   -0.289005
     18          1           0        0.421995   -1.447495   -0.662605
     19          6           0        2.334397   -1.962190    0.182495
     20          1           0        3.317695   -1.540287   -0.041705
     21          1           0        2.278797   -2.124190    1.266795
     22          1           0        2.227599   -2.922990   -0.326605
 ---------------------------------------------------------------------

 SCF Done:  E(RHF) =  -492.919606767     A.U. after   14 cycles
 E2 =    -0.1604355108D+01 EUMP2 =    -0.49452396187504D+03

 The electronic state is 1-A.
 Alpha  occ. eigenvalues --  -20.54898 -20.52316 -15.61651 -15.57250 -11.38320
 Alpha  occ. eigenvalues --  -11.35097 -11.30211 -11.26006 -11.25611 -11.23858
 Alpha  occ. eigenvalues --   -1.40210  -1.37491  -1.25411  -1.21683  -1.06285
 Alpha  occ. eigenvalues --   -1.00115  -0.95270  -0.87334  -0.81673  -0.77035
 Alpha  occ. eigenvalues --   -0.72033  -0.69596  -0.67564  -0.63596  -0.62217
 Alpha  occ. eigenvalues --   -0.60914  -0.60115  -0.59488  -0.57891  -0.54920
 Alpha  occ. eigenvalues --   -0.54267  -0.53464  -0.52779  -0.52123  -0.50524
 Alpha  occ. eigenvalues --   -0.45034  -0.43730  -0.39720  -0.37560
 Alpha virt. eigenvalues --    0.02574   0.04043   0.04355   0.04595   0.05660
 Alpha virt. eigenvalues --    0.06184   0.06495   0.06784   0.07072   0.08076
 Alpha virt. eigenvalues --    0.09207   0.09949   0.11346   0.11898   0.12858

 Mulliken atomic charges:
              1
     1  H    0.022106
     2  C    0.379516
     3  H    0.049480
     4  H   -0.138292
     5  C    0.594639
     6  O   -0.926069
     7  N   -0.557492
     8  H   -0.003480
     9  C    0.207480
    10  H   -0.115766
    11  C    0.712385
    12  H   -0.009868
    13  H   -0.117176
    14  H   -0.039390
    15  C    0.755012
    16  O   -0.813733
    17  N   -0.399286
    18  H   -0.018985
    19  C    0.770213
    20  H   -0.108266
    21  H   -0.050299
    22  H   -0.192728
 Sum of Mulliken atomic charges =   0.00000

 Dipole moment (field-independent basis, Debye):
    X=             -3.7768    Y=              1.1453    Z=              0.3358  Tot=              3.9609
 Quadrupole moment (field-independent basis, Debye-Ang):
   XX=            -61.6710   YY=            -59.9449   ZZ=            -62.2397
   XY=             -8.4673   XZ=             -7.9139   YZ=             -3.4626

 Normal termination of Gaussian 09 at Mon Feb 13 20:13:34 2017.
