 Gaussian 09, Revision A.02,
 Gaussian 09:  EM64L-G09RevA.02 11-Jun-2009

 -------------------
 #SP MP2/aug-cc-pVDZ
 -------------------

 -------------------------------
 Single Point calculation at MP2
 -------------------------------
 Symbolic Z-matrix:
 Charge =  0 Multiplicity = 1

                         Standard orientation:
 ---------------------------------------------------------------------
 Center     Atomic      Atomic             Coordinates (Angstroms)
 Number     Number       Type             X           Y           Z
 ---------------------------------------------------------------------
      1          1           0       -3.747824   -1.316015    0.186995
      2          6           0       -3.074911   -0.636828    0.715195
      3          1           0       -2.848220   -1.085032    1.689595
      4          1           0       -3.581493    0.318982    0.881595
      5          6           0       -1.786009   -0.511453   -0.082905
      6          8           0       -1.299027   -1.487062   -0.654505
      7          7           0       -1.263384    0.749237   -0.152005
      8          1           0       -1.699571    1.422046    0.466695
      9          6           0        0.113923    1.127011   -0.543105
     10          1           0        0.182120    0.979609   -1.629405
     11          6           0        0.317451    2.604107   -0.223905
     12          1           0        0.329455    2.765006    0.858395
     13          1           0        1.280858    2.943588   -0.610105
     14          1           0       -0.475237    3.206222   -0.681405
     15          6           0        1.253107    0.272089    0.092495
     16          8           0        1.992416    0.754574    0.946695
     17          7           0        1.413783   -0.971814   -0.424605
     18          1           0        0.591375   -1.372599   -0.872805
     19          6           0        2.404465   -1.875634    0.137895
     20          1           0        3.334576   -1.328651    0.303895
     21          1           0        2.083257   -2.299727    1.098895
     22          1           0        2.582649   -2.691237   -0.567605
 ---------------------------------------------------------------------

 SCF Done:  E(RHF) =  -492.920643608     A.U. after   14 cycles
 E2 =    -0.1604026926D+01 EUMP2 =    -0.49452467053460D+03

 The electronic state is 1-A.
 Alpha  occ. eigenvalues --  -20.54818 -20.52651 -15.61418 -15.57418 -11.38100
 Alpha  occ. eigenvalues --  -11.35175 -11.30013 -11.25880 -11.25563 -11.23880
 Alpha  occ. eigenvalues --   -1.40103  -1.37680  -1.25218  -1.21813  -1.06185
 Alpha  occ. eigenvalues --   -1.00060  -0.95252  -0.87200  -0.81438  -0.76753
 Alpha  occ. eigenvalues --   -0.71930  -0.69518  -0.67463  -0.63732  -0.62163
 Alpha  occ. eigenvalues --   -0.61282  -0.59962  -0.59258  -0.57792  -0.54645
 Alpha  occ. eigenvalues --   -0.54351  -0.53502  -0.52749  -0.51778  -0.50892
 Alpha  occ. eigenvalues --   -0.45012  -0.43822  -0.39935  -0.37642
 Alpha virt. eigenvalues --    0.02681   0.04052   0.04311   0.04715   0.05652
 Alpha virt. eigenvalues --    0.06089   0.06499   0.06810   0.07310   0.08144
 Alpha virt. eigenvalues --    0.09155   0.10043   0.11141   0.11763   0.12962

 Mulliken atomic charges:
              1
     1  H    0.012872
     2  C    0.382964
     3  H    0.052056
     4  H   -0.122895
     5  C    0.614316
     6  O   -0.894222
     7  N   -0.594051
     8  H   -0.000455
     9  C    0.172298
    10  H   -0.186154
    11  C    0.720876
    12  H    0.018276
    13  H   -0.119278
    14  H   -0.040213
    15  C    0.891165
    16  O   -0.835812
    17  N   -0.507854
    18  H    0.017013
    19  C    0.777381
    20  H   -0.122254
    21  H   -0.063323
    22  H   -0.172704
 Sum of Mulliken atomic charges =   0.00000

 Dipole moment (field-independent basis, Debye):
    X=             -3.3935    Y=              1.1243    Z=             -0.1347  Tot=              3.5775
 Quadrupole moment (field-independent basis, Debye-Ang):
   XX=            -59.2949   YY=            -60.1747   ZZ=            -63.3751
   XY=             -7.5018   XZ=             -8.4394   YZ=             -3.8156

 Normal termination of Gaussian 09 at Mon Feb 13 20:10:53 2017.
