 Gaussian 09, Revision A.02,
 Gaussian 09:  EM64L-G09RevA.02 11-Jun-2009

 -------------------
 #SP MP2/aug-cc-pVDZ
 -------------------

 -------------------------------
 Single Point calculation at MP2
 -------------------------------
 Symbolic Z-matrix:
 Charge =  0 Multiplicity = 1

                         Standard orientation:
 ---------------------------------------------------------------------
 Center     Atomic      Atomic             Coordinates (Angstroms)
 Number     Number       Type             X           Y           Z
 ---------------------------------------------------------------------
      1          1           0        3.746201   -1.363171   -0.179599
      2          6           0        3.061397   -0.670575   -0.671699
      3          1           0        2.628500   -1.169478   -1.546799
      4          1           0        3.613391    0.211728   -1.014599
      5          6           0        1.937694   -0.317982    0.285801
      6          8           0        1.630499   -1.010484    1.240401
      7          7           0        1.315186    0.907214    0.039801
      8          1           0        1.519084    1.268115   -0.887699
      9          6           0       -0.095614    1.053005    0.379501
     10          1           0       -0.169415    1.099504    1.473801
     11          6           0       -0.621823    2.366701   -0.214699
     12          1           0       -0.614723    2.329101   -1.310899
     13          1           0       -1.648624    2.569695    0.100301
     14          1           0        0.008372    3.201005    0.109601
     15          6           0       -0.930807   -0.172801   -0.087099
     16          8           0       -0.467201   -1.055098   -0.794699
     17          7           0       -2.265907   -0.087509    0.207601
     18          1           0       -2.546111    0.559489    0.932701
     19          6           0       -3.178200   -1.181015   -0.094999
     20          1           0       -2.819197   -1.677113   -0.997299
     21          1           0       -3.222595   -1.922416    0.713601
     22          1           0       -4.182103   -0.783722   -0.271399
 ---------------------------------------------------------------------

 SCF Done:  E(RHF) =  -492.917462623     A.U. after   15 cycles
 E2 =    -0.1602584369D+01 EUMP2 =    -0.49452004699224D+03

 The electronic state is 1-A.
 Alpha  occ. eigenvalues --  -20.53353 -20.52436 -15.59656 -15.58736 -11.36007
 Alpha  occ. eigenvalues --  -11.35313 -11.29604 -11.26852 -11.25226 -11.23633
 Alpha  occ. eigenvalues --   -1.39200  -1.37351  -1.23499  -1.22976  -1.05434
 Alpha  occ. eigenvalues --   -0.98678  -0.95650  -0.87880  -0.79311  -0.77800
 Alpha  occ. eigenvalues --   -0.71708  -0.67112  -0.66584  -0.63325  -0.62705
 Alpha  occ. eigenvalues --   -0.61427  -0.59170  -0.57662  -0.57074  -0.56028
 Alpha  occ. eigenvalues --   -0.54907  -0.54357  -0.53361  -0.51325  -0.48917
 Alpha  occ. eigenvalues --   -0.44124  -0.41736  -0.39766  -0.38893
 Alpha virt. eigenvalues --    0.02733   0.03686   0.04212   0.04755   0.05659
 Alpha virt. eigenvalues --    0.05987   0.06149   0.06968   0.07411   0.07955
 Alpha virt. eigenvalues --    0.08889   0.09640   0.10622   0.11901   0.12376

 Mulliken atomic charges:
              1
     1  H   -0.043127
     2  C    0.299924
     3  H    0.084191
     4  H   -0.029022
     5  C    0.726928
     6  O   -0.877386
     7  N   -0.587576
     8  H    0.046405
     9  C    0.062282
    10  H   -0.145197
    11  C    0.771193
    12  H   -0.034771
    13  H   -0.130864
    14  H   -0.037569
    15  C    0.997831
    16  O   -0.832419
    17  N   -0.523712
    18  H   -0.100095
    19  C    0.708651
    20  H   -0.116661
    21  H   -0.061200
    22  H   -0.177807
 Sum of Mulliken atomic charges =   0.00000

 Dipole moment (field-independent basis, Debye):
    X=             -2.2959    Y=              3.9897    Z=             -1.1792  Tot=              4.7517
 Quadrupole moment (field-independent basis, Debye-Ang):
   XX=            -49.6833   YY=            -62.4662   ZZ=            -63.8666
   XY=              1.4556   XZ=             -9.2877   YZ=              1.2746

 Normal termination of Gaussian 09 at Mon Feb 13 18:41:37 2017.
