 Gaussian 09, Revision A.02,
 Gaussian 09:  EM64L-G09RevA.02 11-Jun-2009

 -------------------------------------------
 # HF/6-31G* Opt=(ModRedundant) geom=nocrowd
 -------------------------------------------

 ------------------
 Phi Psi fixed scan
 ------------------
 Symbolic Z-matrix:
 Charge =  0 Multiplicity = 1

 SCF Done:  E(RHF) =  -492.824447035     A.U. after   15 cycles
 SCF Done:  E(RHF) =  -492.844825233     A.U. after   15 cycles
 SCF Done:  E(RHF) =  -492.847842757     A.U. after   13 cycles
 SCF Done:  E(RHF) =  -492.848417431     A.U. after   13 cycles
 SCF Done:  E(RHF) =  -492.849068232     A.U. after   12 cycles
 SCF Done:  E(RHF) =  -492.849507024     A.U. after   13 cycles
 SCF Done:  E(RHF) =  -492.849516665     A.U. after   13 cycles
 SCF Done:  E(RHF) =  -492.849931217     A.U. after   12 cycles
 SCF Done:  E(RHF) =  -492.850105920     A.U. after   12 cycles
 SCF Done:  E(RHF) =  -492.850279257     A.U. after   12 cycles
 SCF Done:  E(RHF) =  -492.850954242     A.U. after   11 cycles
 SCF Done:  E(RHF) =  -492.850959467     A.U. after   11 cycles
 SCF Done:  E(RHF) =  -492.850973130     A.U. after   11 cycles
 SCF Done:  E(RHF) =  -492.850973325     A.U. after   12 cycles
 SCF Done:  E(RHF) =  -492.850985164     A.U. after   11 cycles
 SCF Done:  E(RHF) =  -492.850988408     A.U. after    9 cycles
 SCF Done:  E(RHF) =  -492.850979462     A.U. after   16 cycles
 SCF Done:  E(RHF) =  -492.850990589     A.U. after   16 cycles
 SCF Done:  E(RHF) =  -492.850990715     A.U. after    9 cycles
 SCF Done:  E(RHF) =  -492.850990725     A.U. after    7 cycles
 Optimization completed.
    -- Stationary point found.

                         Standard orientation:
 ---------------------------------------------------------------------
 Center     Atomic      Atomic             Coordinates (Angstroms)
 Number     Number       Type             X           Y           Z
 ---------------------------------------------------------------------
      1          1           0       -3.477782   -1.571846    0.497152
      2          6           0       -3.249451   -0.525965    0.350409
      3          1           0       -3.393282    0.012711    1.279839
      4          1           0       -3.939615   -0.127479   -0.386319
      5          6           0       -1.839928   -0.405755   -0.190408
      6          8           0       -1.347587   -1.275201   -0.861620
      7          7           0       -1.206717    0.750966    0.101133
      8          1           0       -1.676356    1.373968    0.717054
      9          6           0        0.127617    1.169756   -0.315476
     10          1           0        0.094560    1.429916   -1.366797
     11          6           0        0.501423    2.422431    0.480909
     12          1           0        0.568342    2.197950    1.541211
     13          1           0        1.456984    2.796027    0.144595
     14          1           0       -0.243571    3.199059    0.336291
     15          6           0        1.301576    0.182060   -0.226193
     16          8           0        2.330868    0.527564   -0.741378
     17          7           0        1.187666   -0.948887    0.501465
     18          1           0        0.283458   -1.358793    0.529770
     19          6           0        2.299308   -1.880470    0.518850
     20          1           0        3.194530   -1.372476    0.845022
     21          1           0        2.069911   -2.673593    1.218438
     22          1           0        2.486658   -2.311233   -0.458996
 ---------------------------------------------------------------------

 The electronic state is 1-A.
 Alpha  occ. eigenvalues --  -20.53646 -20.51715 -15.60143 -15.56998 -11.36388
 Alpha  occ. eigenvalues --  -11.34012 -11.28583 -11.24490 -11.24462 -11.23365
 Alpha  occ. eigenvalues --   -1.40652  -1.38663  -1.25297  -1.21989  -1.06375
 Alpha  occ. eigenvalues --   -1.00227  -0.95017  -0.88132  -0.81576  -0.77548
 Alpha  occ. eigenvalues --   -0.71611  -0.69628  -0.67586  -0.63301  -0.62408
 Alpha  occ. eigenvalues --   -0.62338  -0.59615  -0.58826  -0.58308  -0.55659
 Alpha  occ. eigenvalues --   -0.55021  -0.54159  -0.53736  -0.52238  -0.49586
 Alpha  occ. eigenvalues --   -0.43357  -0.42797  -0.39882  -0.37859
 Alpha virt. eigenvalues --    0.18451   0.19919   0.20842   0.25614   0.26099
 Alpha virt. eigenvalues --    0.27671   0.29255   0.29623   0.30652   0.31758
 Alpha virt. eigenvalues --    0.32367   0.33226   0.34313   0.35047   0.37956

 Mulliken atomic charges:
              1
     1  H    0.215323
     2  C   -0.581800
     3  H    0.172955
     4  H    0.209011
     5  C    0.741981
     6  O   -0.620639
     7  N   -0.833164
     8  H    0.390567
     9  C    0.025487
    10  H    0.221042
    11  C   -0.530494
    12  H    0.176541
    13  H    0.226867
    14  H    0.169023
    15  C    0.755172
    16  O   -0.621526
    17  N   -0.789190
    18  H    0.414914
    19  C   -0.282991
    20  H    0.195568
    21  H    0.165449
    22  H    0.179906
 Sum of Mulliken atomic charges =   0.00000

 Dipole moment (field-independent basis, Debye):
    X=             -4.0214    Y=              1.3746    Z=              3.3224  Tot=              5.3945
 Quadrupole moment (field-independent basis, Debye-Ang):
   XX=            -60.5513   YY=            -57.1315   ZZ=            -62.9451
   XY=             -6.9316   XZ=              0.3385   YZ=             -1.9428

 Normal termination of Gaussian 09 at Fri Feb 10 20:52:28 2017.
