 Gaussian 09, Revision A.02,
 Gaussian 09:  EM64L-G09RevA.02 11-Jun-2009

 -------------------------------------------
 # HF/6-31G* Opt=(ModRedundant) geom=nocrowd
 -------------------------------------------

 ------------------
 Phi Psi fixed scan
 ------------------
 Symbolic Z-matrix:
 Charge =  0 Multiplicity = 1

 SCF Done:  E(RHF) =  -492.765342000     A.U. after   16 cycles
 SCF Done:  E(RHF) =  -492.812972037     A.U. after   15 cycles
 SCF Done:  E(RHF) =  -492.821964992     A.U. after   14 cycles
 SCF Done:  E(RHF) =  -492.826642537     A.U. after   13 cycles
 SCF Done:  E(RHF) =  -492.828607463     A.U. after   13 cycles
 SCF Done:  E(RHF) =  -492.830902690     A.U. after   15 cycles
 SCF Done:  E(RHF) =  -492.832031733     A.U. after   15 cycles
 SCF Done:  E(RHF) =  -492.832683915     A.U. after   13 cycles
 SCF Done:  E(RHF) =  -492.833140139     A.U. after   13 cycles
 SCF Done:  E(RHF) =  -492.833241888     A.U. after   13 cycles
 SCF Done:  E(RHF) =  -492.833508423     A.U. after   11 cycles
 SCF Done:  E(RHF) =  -492.833587949     A.U. after   12 cycles
 SCF Done:  E(RHF) =  -492.833703118     A.U. after   12 cycles
 SCF Done:  E(RHF) =  -492.833778665     A.U. after   11 cycles
 SCF Done:  E(RHF) =  -492.833789374     A.U. after   13 cycles
 SCF Done:  E(RHF) =  -492.833869298     A.U. after   11 cycles
 SCF Done:  E(RHF) =  -492.833884711     A.U. after   11 cycles
 SCF Done:  E(RHF) =  -492.833889581     A.U. after   11 cycles
 SCF Done:  E(RHF) =  -492.833890128     A.U. after   10 cycles
 SCF Done:  E(RHF) =  -492.833890261     A.U. after    9 cycles
 Optimization completed.
    -- Stationary point found.

                         Standard orientation:
 ---------------------------------------------------------------------
 Center     Atomic      Atomic             Coordinates (Angstroms)
 Number     Number       Type             X           Y           Z
 ---------------------------------------------------------------------
      1          1           0       -3.561082   -1.381329    0.824787
      2          6           0       -2.789832   -0.687509    1.124299
      3          1           0       -2.105706   -1.188371    1.802899
      4          1           0       -3.237631    0.149791    1.650743
      5          6           0       -2.030979   -0.232409   -0.102438
      6          8           0       -2.167350   -0.742451   -1.167522
      7          7           0       -1.236490    0.897147    0.094154
      8          1           0       -1.248958    1.176247    1.054299
      9          6           0        0.117116    1.026266   -0.438241
     10          1           0        0.021570    1.100940   -1.516728
     11          6           0        0.699277    2.341722    0.074708
     12          1           0        0.890190    2.311570    1.143949
     13          1           0        1.623458    2.596755   -0.432104
     14          1           0       -0.007142    3.138396   -0.121358
     15          6           0        0.979165   -0.237283   -0.230434
     16          8           0        0.541742   -1.337580   -0.409482
     17          7           0        2.243463   -0.047475    0.214920
     18          1           0        2.620198    0.867440    0.266727
     19          6           0        3.155848   -1.165595    0.343295
     20          1           0        2.713450   -1.935468    0.958899
     21          1           0        3.398719   -1.598577   -0.620388
     22          1           0        4.065422   -0.816004    0.813653
 ---------------------------------------------------------------------

 The electronic state is 1-A.
 Alpha  occ. eigenvalues --  -20.52311 -20.51643 -15.59042 -15.57734 -11.34699
 Alpha  occ. eigenvalues --  -11.33816 -11.28667 -11.26043 -11.24496 -11.22473
 Alpha  occ. eigenvalues --   -1.39813  -1.38119  -1.23766  -1.22938  -1.05756
 Alpha  occ. eigenvalues --   -0.98910  -0.95935  -0.88958  -0.79589  -0.78063
 Alpha  occ. eigenvalues --   -0.71935  -0.66930  -0.66120  -0.64415  -0.62535
 Alpha  occ. eigenvalues --   -0.61427  -0.59526  -0.58181  -0.57503  -0.56450
 Alpha  occ. eigenvalues --   -0.55721  -0.55255  -0.53683  -0.50821  -0.49402
 Alpha  occ. eigenvalues --   -0.44247  -0.40969  -0.39291  -0.37438
 Alpha virt. eigenvalues --    0.18354   0.20255   0.22088   0.23507   0.25618
 Alpha virt. eigenvalues --    0.27674   0.28028   0.28972   0.30108   0.31258
 Alpha virt. eigenvalues --    0.32135   0.32941   0.33767   0.34177   0.37880

 Mulliken atomic charges:
              1
     1  H    0.215410
     2  C   -0.601285
     3  H    0.195680
     4  H    0.174893
     5  C    0.766039
     6  O   -0.555780
     7  N   -0.782162
     8  H    0.357388
     9  C   -0.037544
    10  H    0.228316
    11  C   -0.535932
    12  H    0.170428
    13  H    0.172915
    14  H    0.209690
    15  C    0.752234
    16  O   -0.592934
    17  N   -0.808880
    18  H    0.391863
    19  C   -0.270520
    20  H    0.200916
    21  H    0.184163
    22  H    0.165102
 Sum of Mulliken atomic charges =   0.00000

 Dipole moment (field-independent basis, Debye):
    X=              3.6298    Y=              4.0718    Z=              3.8760  Tot=              6.6917
 Quadrupole moment (field-independent basis, Debye-Ang):
   XX=            -53.2989   YY=            -62.0191   ZZ=            -61.7092
   XY=              0.1527   XZ=             -7.2507   YZ=             -3.3104

 Normal termination of Gaussian 09 at Fri Feb 10 20:16:35 2017.
