 Gaussian 09, Revision A.02,
 Gaussian 09:  EM64L-G09RevA.02 11-Jun-2009

 -------------------------------------------
 # HF/6-31G* Opt=(ModRedundant) geom=nocrowd
 -------------------------------------------

 ------------------
 Phi Psi fixed scan
 ------------------
 Symbolic Z-matrix:
 Charge =  0 Multiplicity = 1

 SCF Done:  E(RHF) =  -492.845470676     A.U. after   15 cycles
 SCF Done:  E(RHF) =  -492.851734767     A.U. after   13 cycles
 SCF Done:  E(RHF) =  -492.852646150     A.U. after   13 cycles
 SCF Done:  E(RHF) =  -492.853509683     A.U. after   13 cycles
 SCF Done:  E(RHF) =  -492.854518082     A.U. after   13 cycles
 SCF Done:  E(RHF) =  -492.855194782     A.U. after   13 cycles
 SCF Done:  E(RHF) =  -492.855607098     A.U. after   13 cycles
 SCF Done:  E(RHF) =  -492.855813612     A.U. after   11 cycles
 SCF Done:  E(RHF) =  -492.856092807     A.U. after   12 cycles
 SCF Done:  E(RHF) =  -492.856304483     A.U. after   12 cycles
 SCF Done:  E(RHF) =  -492.856496957     A.U. after   12 cycles
 SCF Done:  E(RHF) =  -492.856539934     A.U. after   11 cycles
 SCF Done:  E(RHF) =  -492.856558347     A.U. after   11 cycles
 SCF Done:  E(RHF) =  -492.856567734     A.U. after   11 cycles
 SCF Done:  E(RHF) =  -492.856568167     A.U. after    9 cycles
 SCF Done:  E(RHF) =  -492.856568246     A.U. after    8 cycles
 SCF Done:  E(RHF) =  -492.856568286     A.U. after    7 cycles
 SCF Done:  E(RHF) =  -492.856568353     A.U. after    8 cycles
 SCF Done:  E(RHF) =  -492.856568372     A.U. after    8 cycles
 Optimization completed.
    -- Stationary point found.

                         Standard orientation:
 ---------------------------------------------------------------------
 Center     Atomic      Atomic             Coordinates (Angstroms)
 Number     Number       Type             X           Y           Z
 ---------------------------------------------------------------------
      1          1           0       -3.390091   -1.873523    0.124832
      2          6           0       -3.008982   -0.937131    0.505474
      3          1           0       -2.821701   -1.046450    1.569428
      4          1           0       -3.747512   -0.155998    0.366319
      5          6           0       -1.705909   -0.617267   -0.189013
      6          8           0       -1.022681   -1.462140   -0.701354
      7          7           0       -1.355435    0.696882   -0.209697
      8          1           0       -1.844054    1.292095    0.422190
      9          6           0        0.006654    1.099339   -0.522705
     10          1           0        0.151860    0.978234   -1.589920
     11          6           0        0.204614    2.566183   -0.157529
     12          1           0        0.101894    2.705497    0.911935
     13          1           0        1.196119    2.894903   -0.446445
     14          1           0       -0.522193    3.184685   -0.673531
     15          6           0        1.031396    0.235639    0.225891
     16          8           0        1.079774    0.257120    1.425901
     17          7           0        1.893354   -0.460575   -0.546685
     18          1           0        1.552298   -0.706740   -1.448809
     19          6           0        2.801514   -1.406615    0.069772
     20          1           0        3.352460   -0.914656    0.857198
     21          1           0        2.274851   -2.254997    0.493910
     22          1           0        3.498168   -1.757919   -0.680143
 ---------------------------------------------------------------------

 The electronic state is 1-A.
 Alpha  occ. eigenvalues --  -20.53118 -20.51966 -15.58885 -15.57448 -11.35291
 Alpha  occ. eigenvalues --  -11.33744 -11.28058 -11.24602 -11.23492 -11.23083
 Alpha  occ. eigenvalues --   -1.40131  -1.38497  -1.24223  -1.22431  -1.05782
 Alpha  occ. eigenvalues --   -0.99585  -0.95382  -0.87317  -0.80203  -0.77234
 Alpha  occ. eigenvalues --   -0.71763  -0.68711  -0.67165  -0.63507  -0.62064
 Alpha  occ. eigenvalues --   -0.61725  -0.59597  -0.58493  -0.57654  -0.55355
 Alpha  occ. eigenvalues --   -0.54221  -0.54126  -0.52736  -0.51872  -0.50159
 Alpha  occ. eigenvalues --   -0.43256  -0.42473  -0.39535  -0.37934
 Alpha virt. eigenvalues --    0.18964   0.20652   0.22051   0.24207   0.26266
 Alpha virt. eigenvalues --    0.27710   0.28808   0.30111   0.30785   0.31657
 Alpha virt. eigenvalues --    0.32542   0.33076   0.34332   0.35525   0.38019

 Mulliken atomic charges:
              1
     1  H    0.214867
     2  C   -0.593049
     3  H    0.208081
     4  H    0.180941
     5  C    0.754416
     6  O   -0.617485
     7  N   -0.783009
     8  H    0.384975
     9  C   -0.016430
    10  H    0.193434
    11  C   -0.521187
    12  H    0.198173
    13  H    0.189045
    14  H    0.177559
    15  C    0.769689
    16  O   -0.627065
    17  N   -0.768353
    18  H    0.392452
    19  C   -0.285724
    20  H    0.198625
    21  H    0.182711
    22  H    0.167333
 Sum of Mulliken atomic charges =   0.00000

 Dipole moment (field-independent basis, Debye):
    X=             -1.4663    Y=              1.7913    Z=             -1.3383  Tot=              2.6739
 Quadrupole moment (field-independent basis, Debye-Ang):
   XX=            -51.4075   YY=            -59.3921   ZZ=            -63.9881
   XY=             -4.3731   XZ=             -7.1915   YZ=             -1.7923

 Normal termination of Gaussian 09 at Fri Feb 10 19:55:15 2017.
