 Gaussian 09, Revision A.02,
 Gaussian 09:  EM64L-G09RevA.02 11-Jun-2009

 -------------------------------------------
 # HF/6-31G* Opt=(ModRedundant) geom=nocrowd
 -------------------------------------------

 ------------------
 Phi Psi fixed scan
 ------------------
 Symbolic Z-matrix:
 Charge =  0 Multiplicity = 1

 SCF Done:  E(RHF) =  -492.657421000     A.U. after   15 cycles
 SCF Done:  E(RHF) =  -492.749571609     A.U. after   14 cycles
 SCF Done:  E(RHF) =  -492.799017473     A.U. after   15 cycles
 SCF Done:  E(RHF) =  -492.811564694     A.U. after   13 cycles
 SCF Done:  E(RHF) =  -492.828274085     A.U. after   14 cycles
 SCF Done:  E(RHF) =  -492.835500146     A.U. after   12 cycles
 SCF Done:  E(RHF) =  -492.843719352     A.U. after   13 cycles
 SCF Done:  E(RHF) =  -492.845679055     A.U. after   13 cycles
 SCF Done:  E(RHF) =  -492.847381094     A.U. after   13 cycles
 SCF Done:  E(RHF) =  -492.848391554     A.U. after   13 cycles
 SCF Done:  E(RHF) =  -492.850219799     A.U. after   15 cycles
 SCF Done:  E(RHF) =  -492.850300465     A.U. after   14 cycles
 SCF Done:  E(RHF) =  -492.850344259     A.U. after   11 cycles
 SCF Done:  E(RHF) =  -492.850508285     A.U. after   11 cycles
 SCF Done:  E(RHF) =  -492.850548750     A.U. after   11 cycles
 SCF Done:  E(RHF) =  -492.850552411     A.U. after   10 cycles
 SCF Done:  E(RHF) =  -492.850552550     A.U. after    7 cycles
 SCF Done:  E(RHF) =  -492.850552899     A.U. after    9 cycles
 SCF Done:  E(RHF) =  -492.850552985     A.U. after    8 cycles
 SCF Done:  E(RHF) =  -492.850553019     A.U. after    7 cycles
 Optimization completed.
    -- Stationary point found.

                         Standard orientation:
 ---------------------------------------------------------------------
 Center     Atomic      Atomic             Coordinates (Angstroms)
 Number     Number       Type             X           Y           Z
 ---------------------------------------------------------------------
      1          1           0       -3.827236   -1.176785    0.107526
      2          6           0       -3.178622   -0.468152    0.601442
      3          1           0       -2.993435   -0.820709    1.611568
      4          1           0       -3.668873    0.496434    0.659545
      5          6           0       -1.862662   -0.413934   -0.145893
      6          8           0       -1.474574   -1.361587   -0.782618
      7          7           0       -1.206046    0.763385   -0.054090
      8          1           0       -1.619308    1.411283    0.578143
      9          6           0        0.169822    1.127720   -0.420788
     10          1           0        0.212485    1.158904   -1.506975
     11          6           0        0.415389    2.541616    0.099529
     12          1           0        0.397299    2.562746    1.184934
     13          1           0        1.381541    2.894284   -0.222332
     14          1           0       -0.350388    3.211542   -0.278092
     15          6           0        1.349944    0.206907   -0.037080
     16          8           0        2.429239    0.719033    0.122556
     17          7           0        1.160541   -1.114077    0.062948
     18          1           0        0.312365   -1.503870   -0.285480
     19          6           0        2.290600   -1.989903    0.288450
     20          1           0        2.823008   -1.694179    1.181632
     21          1           0        1.919159   -2.997923    0.416232
     22          1           0        2.987760   -1.971982   -0.542169
 ---------------------------------------------------------------------

 The electronic state is 1-A.
 Alpha  occ. eigenvalues --  -20.54075 -20.51390 -15.60396 -15.56547 -11.36823
 Alpha  occ. eigenvalues --  -11.33917 -11.29003 -11.24521 -11.24496 -11.22769
 Alpha  occ. eigenvalues --   -1.40902  -1.38369  -1.25432  -1.21856  -1.06343
 Alpha  occ. eigenvalues --   -1.00121  -0.95381  -0.87807  -0.81525  -0.77646
 Alpha  occ. eigenvalues --   -0.72094  -0.69621  -0.67633  -0.63521  -0.62436
 Alpha  occ. eigenvalues --   -0.61650  -0.59610  -0.59532  -0.58286  -0.55199
 Alpha  occ. eigenvalues --   -0.54417  -0.53879  -0.53492  -0.52445  -0.49984
 Alpha  occ. eigenvalues --   -0.44190  -0.43080  -0.39008  -0.37642
 Alpha virt. eigenvalues --    0.18031   0.19999   0.21660   0.25682   0.26674
 Alpha virt. eigenvalues --    0.28184   0.28668   0.29465   0.30722   0.31777
 Alpha virt. eigenvalues --    0.32613   0.32903   0.34783   0.35660   0.38974

 Mulliken atomic charges:
              1
     1  H    0.220156
     2  C   -0.590665
     3  H    0.204281
     4  H    0.180355
     5  C    0.771954
     6  O   -0.640379
     7  N   -0.824615
     8  H    0.390980
     9  C   -0.011709
    10  H    0.217164
    11  C   -0.515662
    12  H    0.171277
    13  H    0.229227
    14  H    0.167292
    15  C    0.761422
    16  O   -0.626658
    17  N   -0.836319
    18  H    0.467559
    19  C   -0.269839
    20  H    0.189570
    21  H    0.168129
    22  H    0.176480
 Sum of Mulliken atomic charges =   0.00000

 Dipole moment (field-independent basis, Debye):
    X=             -3.7337    Y=              1.0163    Z=              1.5188  Tot=              4.1570
 Quadrupole moment (field-independent basis, Debye-Ang):
   XX=            -63.3277   YY=            -58.4539   ZZ=            -60.5393
   XY=             -8.6365   XZ=             -5.2588   YZ=             -2.3012

 Normal termination of Gaussian 09 at Fri Feb 10 19:33:13 2017.
