 Gaussian 09, Revision A.02,
 Gaussian 09:  EM64L-G09RevA.02 11-Jun-2009

 -------------------------------------------
 # HF/6-31G* Opt=(ModRedundant) geom=nocrowd
 -------------------------------------------

 ------------------
 Phi Psi fixed scan
 ------------------
 Symbolic Z-matrix:
 Charge =  0 Multiplicity = 1

 SCF Done:  E(RHF) =  -492.833208317     A.U. after   15 cycles
 SCF Done:  E(RHF) =  -492.844023734     A.U. after   15 cycles
 SCF Done:  E(RHF) =  -492.847914941     A.U. after   13 cycles
 SCF Done:  E(RHF) =  -492.849433158     A.U. after   13 cycles
 SCF Done:  E(RHF) =  -492.851210518     A.U. after   13 cycles
 SCF Done:  E(RHF) =  -492.852353027     A.U. after   13 cycles
 SCF Done:  E(RHF) =  -492.852774215     A.U. after   13 cycles
 SCF Done:  E(RHF) =  -492.852968794     A.U. after   13 cycles
 SCF Done:  E(RHF) =  -492.853180969     A.U. after   12 cycles
 SCF Done:  E(RHF) =  -492.853437564     A.U. after   12 cycles
 SCF Done:  E(RHF) =  -492.853569586     A.U. after   12 cycles
 SCF Done:  E(RHF) =  -492.853790381     A.U. after   12 cycles
 SCF Done:  E(RHF) =  -492.853897706     A.U. after   11 cycles
 SCF Done:  E(RHF) =  -492.853928165     A.U. after   12 cycles
 SCF Done:  E(RHF) =  -492.853936451     A.U. after   12 cycles
 SCF Done:  E(RHF) =  -492.853936764     A.U. after    9 cycles
 SCF Done:  E(RHF) =  -492.853936889     A.U. after    8 cycles
 SCF Done:  E(RHF) =  -492.853936983     A.U. after    8 cycles
 SCF Done:  E(RHF) =  -492.853937107     A.U. after    8 cycles
 SCF Done:  E(RHF) =  -492.853937154     A.U. after    8 cycles
 Optimization completed.
    -- Stationary point found.

                         Standard orientation:
 ---------------------------------------------------------------------
 Center     Atomic      Atomic             Coordinates (Angstroms)
 Number     Number       Type             X           Y           Z
 ---------------------------------------------------------------------
      1          1           0       -3.467419   -1.721502    0.371004
      2          6           0       -3.007078   -0.795446    0.682354
      3          1           0       -2.763876   -0.866408    1.738288
      4          1           0       -3.704568    0.023429    0.548120
      5          6           0       -1.732834   -0.592351   -0.107379
      6          8           0       -1.168798   -1.507110   -0.646642
      7          7           0       -1.300847    0.692727   -0.183780
      8          1           0       -1.769121    1.331327    0.420893
      9          6           0        0.053320    1.111115   -0.553866
     10          1           0        0.154939    0.958186   -1.622807
     11          6           0        0.207106    2.594543   -0.250690
     12          1           0        0.154503    2.774162    0.815665
     13          1           0        1.169039    2.950528   -0.596892
     14          1           0       -0.569527    3.160136   -0.754941
     15          6           0        1.172061    0.302348    0.134802
     16          8           0        1.655783    0.687487    1.166545
     17          7           0        1.596692   -0.798264   -0.515647
     18          1           0        0.930911   -1.220494   -1.124515
     19          6           0        2.553967   -1.681738    0.116533
     20          1           0        3.418693   -1.116157    0.430681
     21          1           0        2.137092   -2.181514    0.985168
     22          1           0        2.863292   -2.426773   -0.604425
 ---------------------------------------------------------------------

 The electronic state is 1-A.
 Alpha  occ. eigenvalues --  -20.53823 -20.52051 -15.59746 -15.56853 -11.36156
 Alpha  occ. eigenvalues --  -11.33773 -11.28427 -11.24468 -11.24099 -11.22775
 Alpha  occ. eigenvalues --   -1.40596  -1.38615  -1.24864  -1.22113  -1.06043
 Alpha  occ. eigenvalues --   -0.99909  -0.95426  -0.87316  -0.80869  -0.76895
 Alpha  occ. eigenvalues --   -0.71931  -0.69279  -0.67391  -0.63768  -0.62313
 Alpha  occ. eigenvalues --   -0.61715  -0.59895  -0.59041  -0.57891  -0.54810
 Alpha  occ. eigenvalues --   -0.54419  -0.53841  -0.52945  -0.51490  -0.51204
 Alpha  occ. eigenvalues --   -0.44238  -0.43135  -0.39376  -0.37408
 Alpha virt. eigenvalues --    0.18687   0.19630   0.22022   0.24943   0.26441
 Alpha virt. eigenvalues --    0.27838   0.28476   0.29860   0.30679   0.31867
 Alpha virt. eigenvalues --    0.32518   0.32717   0.34474   0.35354   0.38838

 Mulliken atomic charges:
              1
     1  H    0.218046
     2  C   -0.594248
     3  H    0.204020
     4  H    0.183692
     5  C    0.758061
     6  O   -0.621785
     7  N   -0.799112
     8  H    0.386402
     9  C   -0.017329
    10  H    0.201248
    11  C   -0.511270
    12  H    0.197193
    13  H    0.192732
    14  H    0.171304
    15  C    0.742378
    16  O   -0.616449
    17  N   -0.776218
    18  H    0.423356
    19  C   -0.280835
    20  H    0.195976
    21  H    0.173174
    22  H    0.169664
 Sum of Mulliken atomic charges =   0.00000

 Dipole moment (field-independent basis, Debye):
    X=             -2.6382    Y=              1.0659    Z=             -0.5764  Tot=              2.9032
 Quadrupole moment (field-independent basis, Debye-Ang):
   XX=            -55.9017   YY=            -59.4852   ZZ=            -63.3488
   XY=             -6.3873   XZ=             -7.8474   YZ=             -3.2967

 Normal termination of Gaussian 09 at Fri Feb 10 19:50:21 2017.
