 Gaussian 09, Revision A.02,
 Gaussian 09:  EM64L-G09RevA.02 11-Jun-2009

 -------------------------------------------
 # HF/6-31G* Opt=(ModRedundant) geom=nocrowd
 -------------------------------------------

 ------------------
 Phi Psi fixed scan
 ------------------
 Symbolic Z-matrix:
 Charge =  0 Multiplicity = 1

 SCF Done:  E(RHF) =  -492.841100163     A.U. after   15 cycles
 SCF Done:  E(RHF) =  -492.849733314     A.U. after   14 cycles
 SCF Done:  E(RHF) =  -492.850775986     A.U. after   13 cycles
 SCF Done:  E(RHF) =  -492.850734626     A.U. after   13 cycles
 SCF Done:  E(RHF) =  -492.851314585     A.U. after   12 cycles
 SCF Done:  E(RHF) =  -492.851566593     A.U. after   13 cycles
 SCF Done:  E(RHF) =  -492.851558994     A.U. after   14 cycles
 SCF Done:  E(RHF) =  -492.851787152     A.U. after   12 cycles
 SCF Done:  E(RHF) =  -492.851934331     A.U. after   12 cycles
 SCF Done:  E(RHF) =  -492.852196122     A.U. after   13 cycles
 SCF Done:  E(RHF) =  -492.852500516     A.U. after   12 cycles
 SCF Done:  E(RHF) =  -492.852501999     A.U. after   11 cycles
 SCF Done:  E(RHF) =  -492.852518003     A.U. after   11 cycles
 SCF Done:  E(RHF) =  -492.852525727     A.U. after   11 cycles
 SCF Done:  E(RHF) =  -492.852530984     A.U. after   10 cycles
 SCF Done:  E(RHF) =  -492.852533308     A.U. after   10 cycles
 SCF Done:  E(RHF) =  -492.852534287     A.U. after    9 cycles
 SCF Done:  E(RHF) =  -492.852535559     A.U. after    9 cycles
 SCF Done:  E(RHF) =  -492.852536650     A.U. after    9 cycles
 SCF Done:  E(RHF) =  -492.852536835     A.U. after    8 cycles
 Optimization completed.
    -- Stationary point found.

                         Standard orientation:
 ---------------------------------------------------------------------
 Center     Atomic      Atomic             Coordinates (Angstroms)
 Number     Number       Type             X           Y           Z
 ---------------------------------------------------------------------
      1          1           0        3.369895   -1.698547   -0.372128
      2          6           0        3.173361   -0.636803   -0.334831
      3          1           0        3.326469   -0.201755   -1.316075
      4          1           0        3.879636   -0.182906    0.353366
      5          6           0        1.769365   -0.417408    0.187741
      6          8           0        1.223020   -1.209586    0.902867
      7          7           0        1.182401    0.745942   -0.194188
      8          1           0        1.714897    1.381460   -0.743316
      9          6           0       -0.102246    1.215000    0.303119
     10          1           0        0.001198    1.531597    1.333408
     11          6           0       -0.572227    2.400399   -0.539731
     12          1           0       -0.705106    2.115327   -1.577515
     13          1           0       -1.516959    2.767461   -0.159186
     14          1           0        0.147408    3.212466   -0.490410
     15          6           0       -1.201790    0.150336    0.352589
     16          8           0       -1.985431    0.159360    1.258551
     17          7           0       -1.326509   -0.648972   -0.733366
     18          1           0       -0.513856   -0.761287   -1.294331
     19          6           0       -2.252021   -1.763288   -0.704773
     20          1           0       -3.225460   -1.412937   -0.396976
     21          1           0       -2.327137   -2.178290   -1.701773
     22          1           0       -1.929594   -2.538986   -0.018213
 ---------------------------------------------------------------------

 The electronic state is 1-A.
 Alpha  occ. eigenvalues --  -20.53341 -20.51471 -15.59882 -15.57197 -11.35892
 Alpha  occ. eigenvalues --  -11.33638 -11.28117 -11.24509 -11.24305 -11.23686
 Alpha  occ. eigenvalues --   -1.40404  -1.38295  -1.25131  -1.21890  -1.06284
 Alpha  occ. eigenvalues --   -1.00188  -0.94956  -0.88218  -0.81282  -0.77480
 Alpha  occ. eigenvalues --   -0.70891  -0.69577  -0.67693  -0.62590  -0.62365
 Alpha  occ. eigenvalues --   -0.62274  -0.59657  -0.58595  -0.58343  -0.55808
 Alpha  occ. eigenvalues --   -0.55037  -0.54336  -0.54064  -0.51842  -0.50001
 Alpha  occ. eigenvalues --   -0.42731  -0.42052  -0.39552  -0.37992
 Alpha virt. eigenvalues --    0.18947   0.20361   0.20750   0.24942   0.25561
 Alpha virt. eigenvalues --    0.27741   0.28677   0.29640   0.29785   0.31310
 Alpha virt. eigenvalues --    0.32264   0.33231   0.34187   0.35041   0.37304

 Mulliken atomic charges:
              1
     1  H    0.217247
     2  C   -0.585957
     3  H    0.172278
     4  H    0.205762
     5  C    0.738150
     6  O   -0.593021
     7  N   -0.837692
     8  H    0.386429
     9  C   -0.004806
    10  H    0.223259
    11  C   -0.517809
    12  H    0.179251
    13  H    0.209347
    14  H    0.169355
    15  C    0.774905
    16  O   -0.613773
    17  N   -0.769295
    18  H    0.380555
    19  C   -0.283406
    20  H    0.202032
    21  H    0.162167
    22  H    0.185022
 Sum of Mulliken atomic charges =   0.00000

 Dipole moment (field-independent basis, Debye):
    X=              3.7266    Y=              2.1038    Z=             -4.7767  Tot=              6.4132
 Quadrupole moment (field-independent basis, Debye-Ang):
   XX=            -57.5685   YY=            -56.8310   ZZ=            -64.4773
   XY=              4.7174   XZ=              2.2226   YZ=              3.2815

 Normal termination of Gaussian 09 at Fri Feb 10 20:45:32 2017.
