 Gaussian 09, Revision A.02,
 Gaussian 09:  EM64L-G09RevA.02 11-Jun-2009

 -------------------------------------------
 # HF/6-31G* Opt=(ModRedundant) geom=nocrowd
 -------------------------------------------

 ------------------
 Phi Psi fixed scan
 ------------------
 Symbolic Z-matrix:
 Charge =  0 Multiplicity = 1

 SCF Done:  E(RHF) =  -492.840094793     A.U. after   15 cycles
 SCF Done:  E(RHF) =  -492.848289537     A.U. after   13 cycles
 SCF Done:  E(RHF) =  -492.850936997     A.U. after   14 cycles
 SCF Done:  E(RHF) =  -492.852270098     A.U. after   13 cycles
 SCF Done:  E(RHF) =  -492.853582096     A.U. after   13 cycles
 SCF Done:  E(RHF) =  -492.854612595     A.U. after   14 cycles
 SCF Done:  E(RHF) =  -492.854880844     A.U. after   13 cycles
 SCF Done:  E(RHF) =  -492.854973091     A.U. after   12 cycles
 SCF Done:  E(RHF) =  -492.855044254     A.U. after   11 cycles
 SCF Done:  E(RHF) =  -492.855218128     A.U. after   12 cycles
 SCF Done:  E(RHF) =  -492.855325438     A.U. after   11 cycles
 SCF Done:  E(RHF) =  -492.855454548     A.U. after   12 cycles
 SCF Done:  E(RHF) =  -492.855556287     A.U. after   11 cycles
 SCF Done:  E(RHF) =  -492.855601921     A.U. after   12 cycles
 SCF Done:  E(RHF) =  -492.855607671     A.U. after   10 cycles
 SCF Done:  E(RHF) =  -492.855612649     A.U. after   10 cycles
 SCF Done:  E(RHF) =  -492.855615539     A.U. after   10 cycles
 SCF Done:  E(RHF) =  -492.855616315     A.U. after    9 cycles
 SCF Done:  E(RHF) =  -492.855616400     A.U. after    8 cycles
 Optimization completed.
    -- Stationary point found.

                         Standard orientation:
 ---------------------------------------------------------------------
 Center     Atomic      Atomic             Coordinates (Angstroms)
 Number     Number       Type             X           Y           Z
 ---------------------------------------------------------------------
      1          1           0       -3.548351   -1.662041    0.043063
      2          6           0       -3.074558   -0.795668    0.480965
      3          1           0       -2.808022   -1.024900    1.508286
      4          1           0       -3.765286    0.040139    0.483544
      5          6           0       -1.812043   -0.481503   -0.284303
      6          8           0       -1.251341   -1.285837   -0.973226
      7          7           0       -1.351366    0.803237   -0.164753
      8          1           0       -1.716289    1.303999    0.616446
      9          6           0        0.046181    1.065890   -0.440749
     10          1           0        0.187884    1.033032   -1.514681
     11          6           0        0.419620    2.456826    0.070944
     12          1           0        0.312564    2.506254    1.149627
     13          1           0        1.448136    2.690386   -0.175899
     14          1           0       -0.221155    3.206064   -0.380651
     15          6           0        0.951261    0.018516    0.217797
     16          8           0        0.693345   -0.429328    1.301108
     17          7           0        2.109739   -0.232089   -0.432153
     18          1           0        2.129951   -0.048021   -1.409482
     19          6           0        3.025465   -1.239662    0.064423
     20          1           0        3.219912   -1.062016    1.111339
     21          1           0        2.625134   -2.241562   -0.046676
     22          1           0        3.955325   -1.164441   -0.484092
 ---------------------------------------------------------------------

 The electronic state is 1-A.
 Alpha  occ. eigenvalues --  -20.52433 -20.52011 -15.58220 -15.58049 -11.34469
 Alpha  occ. eigenvalues --  -11.34001 -11.27962 -11.25229 -11.23503 -11.22762
 Alpha  occ. eigenvalues --   -1.39810  -1.38349  -1.23669  -1.22946  -1.05615
 Alpha  occ. eigenvalues --   -0.99159  -0.95659  -0.87540  -0.79565  -0.77793
 Alpha  occ. eigenvalues --   -0.71900  -0.67907  -0.66875  -0.63394  -0.62343
 Alpha  occ. eigenvalues --   -0.61505  -0.59523  -0.58089  -0.57395  -0.55823
 Alpha  occ. eigenvalues --   -0.54820  -0.54057  -0.53306  -0.51691  -0.49347
 Alpha  occ. eigenvalues --   -0.42905  -0.41676  -0.39214  -0.38801
 Alpha virt. eigenvalues --    0.19231   0.20488   0.22418   0.23477   0.26421
 Alpha virt. eigenvalues --    0.27425   0.29672   0.30444   0.30663   0.31444
 Alpha virt. eigenvalues --    0.32042   0.32992   0.34250   0.34847   0.37974

 Mulliken atomic charges:
              1
     1  H    0.212468
     2  C   -0.597000
     3  H    0.210812
     4  H    0.179033
     5  C    0.759484
     6  O   -0.606412
     7  N   -0.770520
     8  H    0.377962
     9  C   -0.031615
    10  H    0.195642
    11  C   -0.511831
    12  H    0.186151
    13  H    0.188560
    14  H    0.186196
    15  C    0.783282
    16  O   -0.629811
    17  N   -0.788438
    18  H    0.382157
    19  C   -0.280422
    20  H    0.202500
    21  H    0.184835
    22  H    0.166966
 Sum of Mulliken atomic charges =   0.00000

 Dipole moment (field-independent basis, Debye):
    X=              0.4826    Y=              3.0074    Z=             -0.6587  Tot=              3.1163
 Quadrupole moment (field-independent basis, Debye-Ang):
   XX=            -48.9588   YY=            -60.5478   ZZ=            -63.3899
   XY=             -3.0499   XZ=             -8.1037   YZ=             -0.6680

 Normal termination of Gaussian 09 at Fri Feb 10 20:00:06 2017.
