 Gaussian 09, Revision A.02,
 Gaussian 09:  EM64L-G09RevA.02 11-Jun-2009

 -------------------------------------------
 # HF/6-31G* Opt=(ModRedundant) geom=nocrowd
 -------------------------------------------

 ------------------
 Phi Psi fixed scan
 ------------------
 Symbolic Z-matrix:
 Charge =  0 Multiplicity = 1

 SCF Done:  E(RHF) =  -492.813263681     A.U. after   15 cycles
 SCF Done:  E(RHF) =  -492.833770836     A.U. after   14 cycles
 SCF Done:  E(RHF) =  -492.840574382     A.U. after   14 cycles
 SCF Done:  E(RHF) =  -492.843129744     A.U. after   16 cycles
 SCF Done:  E(RHF) =  -492.845077415     A.U. after   14 cycles
 SCF Done:  E(RHF) =  -492.846705063     A.U. after   13 cycles
 SCF Done:  E(RHF) =  -492.847534972     A.U. after   13 cycles
 SCF Done:  E(RHF) =  -492.847915683     A.U. after   12 cycles
 SCF Done:  E(RHF) =  -492.848023203     A.U. after   11 cycles
 SCF Done:  E(RHF) =  -492.848101114     A.U. after   11 cycles
 SCF Done:  E(RHF) =  -492.848177760     A.U. after   11 cycles
 SCF Done:  E(RHF) =  -492.848274165     A.U. after   11 cycles
 SCF Done:  E(RHF) =  -492.848459391     A.U. after   12 cycles
 SCF Done:  E(RHF) =  -492.848579241     A.U. after   11 cycles
 SCF Done:  E(RHF) =  -492.848631480     A.U. after   11 cycles
 SCF Done:  E(RHF) =  -492.848651680     A.U. after   11 cycles
 SCF Done:  E(RHF) =  -492.848657113     A.U. after   11 cycles
 SCF Done:  E(RHF) =  -492.848659243     A.U. after   10 cycles
 SCF Done:  E(RHF) =  -492.848659499     A.U. after    9 cycles
 SCF Done:  E(RHF) =  -492.848659597     A.U. after    8 cycles
 Optimization completed.
    -- Stationary point found.

                         Standard orientation:
 ---------------------------------------------------------------------
 Center     Atomic      Atomic             Coordinates (Angstroms)
 Number     Number       Type             X           Y           Z
 ---------------------------------------------------------------------
      1          1           0        3.651733   -1.441962   -0.242602
      2          6           0        3.025266   -0.681091   -0.684345
      3          1           0        2.571188   -1.076731   -1.587259
      4          1           0        3.627819    0.181009   -0.950787
      5          6           0        1.926974   -0.318847    0.285365
      6          8           0        1.642226   -0.993402    1.229021
      7          7           0        1.306384    0.894224    0.047451
      8          1           0        1.512481    1.257166   -0.859764
      9          6           0       -0.095407    1.043146    0.383601
     10          1           0       -0.175711    1.101978    1.463737
     11          6           0       -0.609916    2.350660   -0.224651
     12          1           0       -0.603973    2.301009   -1.309523
     13          1           0       -1.622262    2.568233    0.089048
     14          1           0        0.027291    3.169716    0.087442
     15          6           0       -0.932686   -0.161788   -0.078736
     16          8           0       -0.481238   -1.027080   -0.774255
     17          7           0       -2.256375   -0.080658    0.208198
     18          1           0       -2.530542    0.519902    0.952682
     19          6           0       -3.142685   -1.186226   -0.099783
     20          1           0       -3.012617   -1.471352   -1.132633
     21          1           0       -2.948407   -2.052914    0.523027
     22          1           0       -4.164241   -0.862288    0.050244
 ---------------------------------------------------------------------

 The electronic state is 1-A.
 Alpha  occ. eigenvalues --  -20.52815 -20.51616 -15.58740 -15.57570 -11.34568
 Alpha  occ. eigenvalues --  -11.33835 -11.28282 -11.25750 -11.23965 -11.22158
 Alpha  occ. eigenvalues --   -1.40063  -1.38094  -1.23600  -1.23100  -1.05536
 Alpha  occ. eigenvalues --   -0.98756  -0.95799  -0.88076  -0.79335  -0.77861
 Alpha  occ. eigenvalues --   -0.72009  -0.67202  -0.66563  -0.63619  -0.62856
 Alpha  occ. eigenvalues --   -0.61550  -0.59347  -0.57742  -0.57181  -0.56148
 Alpha  occ. eigenvalues --   -0.55387  -0.54542  -0.53561  -0.51292  -0.49064
 Alpha  occ. eigenvalues --   -0.43703  -0.41116  -0.39467  -0.38440
 Alpha virt. eigenvalues --    0.19128   0.20684   0.21620   0.23016   0.26445
 Alpha virt. eigenvalues --    0.27419   0.29135   0.30470   0.31118   0.31180
 Alpha virt. eigenvalues --    0.32191   0.32291   0.33592   0.35161   0.37491

 Mulliken atomic charges:
              1
     1  H    0.211110
     2  C   -0.601879
     3  H    0.210933
     4  H    0.174843
     5  C    0.770924
     6  O   -0.594114
     7  N   -0.765653
     8  H    0.367220
     9  C   -0.055585
    10  H    0.211324
    11  C   -0.500150
    12  H    0.176031
    13  H    0.177418
    14  H    0.192918
    15  C    0.771544
    16  O   -0.613354
    17  N   -0.787222
    18  H    0.377563
    19  C   -0.278823
    20  H    0.205511
    21  H    0.181379
    22  H    0.168059
 Sum of Mulliken atomic charges =   0.00000

 Dipole moment (field-independent basis, Debye):
    X=             -2.3287    Y=              3.6789    Z=             -1.0892  Tot=              4.4882
 Quadrupole moment (field-independent basis, Debye-Ang):
   XX=            -49.6480   YY=            -61.8580   ZZ=            -62.5589
   XY=              1.7090   XZ=             -9.2233   YZ=              1.0523

 Normal termination of Gaussian 09 at Fri Feb 10 20:05:17 2017.
