 Gaussian 09, Revision A.02,
 Gaussian 09:  EM64L-G09RevA.02 11-Jun-2009

 -------------------------------------------
 # HF/6-31G* Opt=(ModRedundant) geom=nocrowd
 -------------------------------------------

 ------------------
 Phi Psi fixed scan
 ------------------
 Symbolic Z-matrix:
 Charge =  0 Multiplicity = 1

 SCF Done:  E(RHF) =  -492.844837907     A.U. after   15 cycles
 SCF Done:  E(RHF) =  -492.851279147     A.U. after   13 cycles
 SCF Done:  E(RHF) =  -492.852303670     A.U. after   13 cycles
 SCF Done:  E(RHF) =  -492.853568307     A.U. after   13 cycles
 SCF Done:  E(RHF) =  -492.854474089     A.U. after   13 cycles
 SCF Done:  E(RHF) =  -492.855494277     A.U. after   13 cycles
 SCF Done:  E(RHF) =  -492.855870619     A.U. after   13 cycles
 SCF Done:  E(RHF) =  -492.856032505     A.U. after   12 cycles
 SCF Done:  E(RHF) =  -492.856152024     A.U. after   12 cycles
 SCF Done:  E(RHF) =  -492.856327219     A.U. after   12 cycles
 SCF Done:  E(RHF) =  -492.856575175     A.U. after   12 cycles
 SCF Done:  E(RHF) =  -492.856679329     A.U. after   12 cycles
 SCF Done:  E(RHF) =  -492.856709835     A.U. after   11 cycles
 SCF Done:  E(RHF) =  -492.856743501     A.U. after   11 cycles
 SCF Done:  E(RHF) =  -492.856746066     A.U. after   10 cycles
 SCF Done:  E(RHF) =  -492.856747862     A.U. after   10 cycles
 SCF Done:  E(RHF) =  -492.856749242     A.U. after   10 cycles
 SCF Done:  E(RHF) =  -492.856749628     A.U. after    9 cycles
 Optimization completed.
    -- Stationary point found.

                         Standard orientation:
 ---------------------------------------------------------------------
 Center     Atomic      Atomic             Coordinates (Angstroms)
 Number     Number       Type             X           Y           Z
 ---------------------------------------------------------------------
      1          1           0       -3.452559   -1.797941    0.052709
      2          6           0       -3.044909   -0.885521    0.462930
      3          1           0       -2.838663   -1.040497    1.517674
      4          1           0       -3.768767   -0.084014    0.369064
      5          6           0       -1.749078   -0.562781   -0.241790
      6          8           0       -1.099246   -1.391227   -0.817624
      7          7           0       -1.361080    0.744630   -0.199148
      8          1           0       -1.798899    1.301943    0.501389
      9          6           0        0.020329    1.083602   -0.484632
     10          1           0        0.170441    1.000832   -1.554647
     11          6           0        0.300798    2.520019   -0.051195
     12          1           0        0.183558    2.620596    1.021948
     13          1           0        1.315876    2.799911   -0.307617
     14          1           0       -0.378160    3.203504   -0.549598
     15          6           0        0.982145    0.134938    0.239654
     16          8           0        0.862564   -0.071744    1.416475
     17          7           0        2.009208   -0.335398   -0.501263
     18          1           0        1.856726   -0.386463   -1.483081
     19          6           0        2.920975   -1.310550    0.062703
     20          1           0        3.295343   -0.946422    1.007531
     21          1           0        2.437908   -2.267556    0.228213
     22          1           0        3.752203   -1.442990   -0.617529
 ---------------------------------------------------------------------

 The electronic state is 1-A.
 Alpha  occ. eigenvalues --  -20.52801 -20.51874 -15.58432 -15.57848 -11.34870
 Alpha  occ. eigenvalues --  -11.33814 -11.27950 -11.24890 -11.23274 -11.23134
 Alpha  occ. eigenvalues --   -1.39948  -1.38385  -1.23909  -1.22680  -1.05678
 Alpha  occ. eigenvalues --   -0.99381  -0.95505  -0.87392  -0.79832  -0.77577
 Alpha  occ. eigenvalues --   -0.71818  -0.68326  -0.67012  -0.63429  -0.62117
 Alpha  occ. eigenvalues --   -0.61593  -0.59527  -0.58310  -0.57516  -0.55614
 Alpha  occ. eigenvalues --   -0.54470  -0.54087  -0.52909  -0.51901  -0.49661
 Alpha  occ. eigenvalues --   -0.42954  -0.42015  -0.39454  -0.38361
 Alpha virt. eigenvalues --    0.19119   0.20661   0.22253   0.23847   0.26356
 Alpha virt. eigenvalues --    0.27590   0.29286   0.30313   0.30847   0.31352
 Alpha virt. eigenvalues --    0.32325   0.33217   0.34345   0.35147   0.38060

 Mulliken atomic charges:
              1
     1  H    0.213627
     2  C   -0.594463
     3  H    0.209426
     4  H    0.180352
     5  C    0.756002
     6  O   -0.612611
     7  N   -0.775840
     8  H    0.382216
     9  C   -0.021784
    10  H    0.192734
    11  C   -0.518089
    12  H    0.192725
    13  H    0.189134
    14  H    0.181889
    15  C    0.780958
    16  O   -0.631380
    17  N   -0.780077
    18  H    0.386269
    19  C   -0.283410
    20  H    0.200567
    21  H    0.184879
    22  H    0.166875
 Sum of Mulliken atomic charges =   0.00000

 Dipole moment (field-independent basis, Debye):
    X=             -0.5446    Y=              2.3847    Z=             -1.2043  Tot=              2.7265
 Quadrupole moment (field-independent basis, Debye-Ang):
   XX=            -49.8804   YY=            -59.8108   ZZ=            -63.7576
   XY=             -3.7072   XZ=             -7.5366   YZ=             -1.0574

 Normal termination of Gaussian 09 at Fri Feb 10 19:57:42 2017.
