 Gaussian 09, Revision A.02,
 Gaussian 09:  EM64L-G09RevA.02 11-Jun-2009

 -------------------------------------------
 # HF/6-31G* Opt=(ModRedundant) geom=nocrowd
 -------------------------------------------

 ------------------
 Phi Psi fixed scan
 ------------------
 Symbolic Z-matrix:
 Charge =  0 Multiplicity = 1

 SCF Done:  E(RHF) =  -492.842069632     A.U. after   15 cycles
 SCF Done:  E(RHF) =  -492.848814847     A.U. after   14 cycles
 SCF Done:  E(RHF) =  -492.851043844     A.U. after   13 cycles
 SCF Done:  E(RHF) =  -492.851873802     A.U. after   13 cycles
 SCF Done:  E(RHF) =  -492.853128461     A.U. after   13 cycles
 SCF Done:  E(RHF) =  -492.854026952     A.U. after   13 cycles
 SCF Done:  E(RHF) =  -492.854363787     A.U. after   12 cycles
 SCF Done:  E(RHF) =  -492.854503445     A.U. after   13 cycles
 SCF Done:  E(RHF) =  -492.854761641     A.U. after   12 cycles
 SCF Done:  E(RHF) =  -492.855117880     A.U. after   13 cycles
 SCF Done:  E(RHF) =  -492.855264853     A.U. after   11 cycles
 SCF Done:  E(RHF) =  -492.855366118     A.U. after   11 cycles
 SCF Done:  E(RHF) =  -492.855389892     A.U. after   11 cycles
 SCF Done:  E(RHF) =  -492.855405578     A.U. after   12 cycles
 SCF Done:  E(RHF) =  -492.855407179     A.U. after   10 cycles
 SCF Done:  E(RHF) =  -492.855407272     A.U. after    8 cycles
 SCF Done:  E(RHF) =  -492.855407296     A.U. after    7 cycles
 SCF Done:  E(RHF) =  -492.855407338     A.U. after    8 cycles
 SCF Done:  E(RHF) =  -492.855407363     A.U. after    7 cycles
 Optimization completed.
    -- Stationary point found.

                         Standard orientation:
 ---------------------------------------------------------------------
 Center     Atomic      Atomic             Coordinates (Angstroms)
 Number     Number       Type             X           Y           Z
 ---------------------------------------------------------------------
      1          1           0       -3.394864   -1.848715    0.251147
      2          6           0       -2.993080   -0.906159    0.593076
      3          1           0       -2.786213   -0.983090    1.656257
      4          1           0       -3.724188   -0.119958    0.443626
      5          6           0       -1.700832   -0.628286   -0.140868
      6          8           0       -1.051521   -1.503027   -0.648423
      7          7           0       -1.334267    0.678376   -0.202928
      8          1           0       -1.830559    1.297609    0.399262
      9          6           0        0.017090    1.108173   -0.547905
     10          1           0        0.144569    0.961545   -1.614488
     11          6           0        0.170226    2.589510   -0.229368
     12          1           0        0.094092    2.756902    0.837707
     13          1           0        1.140625    2.945035   -0.554489
     14          1           0       -0.592566    3.164866   -0.743538
     15          6           0        1.097280    0.294541    0.186203
     16          8           0        1.349508    0.520744    1.339317
     17          7           0        1.755654   -0.620047   -0.556718
     18          1           0        1.236477   -0.991698   -1.320795
     19          6           0        2.678079   -1.532121    0.088078
     20          1           0        3.395939   -0.970093    0.666519
     21          1           0        2.168199   -2.225023    0.749522
     22          1           0        3.202303   -2.091378   -0.675670
 ---------------------------------------------------------------------

 The electronic state is 1-A.
 Alpha  occ. eigenvalues --  -20.53456 -20.52090 -15.59336 -15.57121 -11.35725
 Alpha  occ. eigenvalues --  -11.33757 -11.28233 -11.24471 -11.23813 -11.22918
 Alpha  occ. eigenvalues --   -1.40344  -1.38617  -1.24554  -1.22257  -1.05911
 Alpha  occ. eigenvalues --   -0.99759  -0.95370  -0.87294  -0.80556  -0.76961
 Alpha  occ. eigenvalues --   -0.71807  -0.69019  -0.67295  -0.63655  -0.62149
 Alpha  occ. eigenvalues --   -0.61801  -0.59738  -0.58730  -0.57778  -0.55066
 Alpha  occ. eigenvalues --   -0.54318  -0.53935  -0.52854  -0.51574  -0.50787
 Alpha  occ. eigenvalues --   -0.43742  -0.42899  -0.39507  -0.37601
 Alpha virt. eigenvalues --    0.18822   0.20174   0.22020   0.24707   0.26235
 Alpha virt. eigenvalues --    0.27777   0.28480   0.29954   0.30712   0.31833
 Alpha virt. eigenvalues --    0.32632   0.32848   0.34323   0.35534   0.38238

 Mulliken atomic charges:
              1
     1  H    0.216357
     2  C   -0.593328
     3  H    0.206159
     4  H    0.182104
     5  C    0.754791
     6  O   -0.619473
     7  N   -0.790665
     8  H    0.386040
     9  C   -0.016216
    10  H    0.197055
    11  C   -0.518623
    12  H    0.200268
    13  H    0.189602
    14  H    0.174070
    15  C    0.753647
    16  O   -0.619959
    17  N   -0.764977
    18  H    0.404269
    19  C   -0.284942
    20  H    0.197262
    21  H    0.178095
    22  H    0.168463
 Sum of Mulliken atomic charges =   0.00000

 Dipole moment (field-independent basis, Debye):
    X=             -2.1500    Y=              1.3389    Z=             -1.0817  Tot=              2.7541
 Quadrupole moment (field-independent basis, Debye-Ang):
   XX=            -53.4042   YY=            -59.3773   ZZ=            -63.9111
   XY=             -5.2446   XZ=             -7.3421   YZ=             -2.6623

 Normal termination of Gaussian 09 at Fri Feb 10 19:52:44 2017.
