 Gaussian 09, Revision A.02,
 Gaussian 09:  EM64L-G09RevA.02 11-Jun-2009

 -------------------------------------------
 # HF/6-31G* Opt=(ModRedundant) geom=nocrowd
 -------------------------------------------

 ------------------
 Phi Psi fixed scan
 ------------------
 Symbolic Z-matrix:
 Charge =  0 Multiplicity = 1

 SCF Done:  E(RHF) =  -492.814142888     A.U. after   15 cycles
 SCF Done:  E(RHF) =  -492.833013481     A.U. after   14 cycles
 SCF Done:  E(RHF) =  -492.836829582     A.U. after   16 cycles
 SCF Done:  E(RHF) =  -492.837584813     A.U. after   16 cycles
 SCF Done:  E(RHF) =  -492.837709708     A.U. after   12 cycles
 SCF Done:  E(RHF) =  -492.837939853     A.U. after   16 cycles
 SCF Done:  E(RHF) =  -492.838152627     A.U. after   13 cycles
 SCF Done:  E(RHF) =  -492.838256785     A.U. after   13 cycles
 SCF Done:  E(RHF) =  -492.838344738     A.U. after   11 cycles
 SCF Done:  E(RHF) =  -492.838543706     A.U. after   12 cycles
 SCF Done:  E(RHF) =  -492.839210280     A.U. after   12 cycles
 SCF Done:  E(RHF) =  -492.839216636     A.U. after   11 cycles
 SCF Done:  E(RHF) =  -492.839230253     A.U. after   12 cycles
 SCF Done:  E(RHF) =  -492.839242085     A.U. after   12 cycles
 SCF Done:  E(RHF) =  -492.839244483     A.U. after   10 cycles
 SCF Done:  E(RHF) =  -492.839244917     A.U. after    9 cycles
 SCF Done:  E(RHF) =  -492.839245058     A.U. after    9 cycles
 SCF Done:  E(RHF) =  -492.839245152     A.U. after    9 cycles
 SCF Done:  E(RHF) =  -492.839245283     A.U. after    9 cycles
 SCF Done:  E(RHF) =  -492.839245347     A.U. after    8 cycles
 Optimization completed.
    -- Stationary point found.

                         Standard orientation:
 ---------------------------------------------------------------------
 Center     Atomic      Atomic             Coordinates (Angstroms)
 Number     Number       Type             X           Y           Z
 ---------------------------------------------------------------------
      1          1           0        3.667675   -1.436948   -0.781294
      2          6           0        3.322959   -0.430108   -0.597553
      3          1           0        3.379684    0.147331   -1.514092
      4          1           0        3.976940    0.032864    0.135503
      5          6           0        1.910872   -0.491717   -0.047558
      6          8           0        1.451015   -1.492664    0.413571
      7          7           0        1.227464    0.685161   -0.135695
      8          1           0        1.746660    1.468459   -0.462904
      9          6           0       -0.034159    1.022316    0.517058
     10          1           0        0.133473    1.102705    1.585053
     11          6           0       -0.507238    2.378262   -0.001750
     12          1           0       -0.630313    2.383738   -1.079349
     13          1           0       -1.451855    2.650595    0.451504
     14          1           0        0.218600    3.144485    0.254123
     15          6           0       -1.106379   -0.081952    0.431905
     16          8           0       -1.311038   -0.804511    1.359760
     17          7           0       -1.937160   -0.032488   -0.646049
     18          1           0       -1.578361    0.388216   -1.473286
     19          6           0       -2.927069   -1.075299   -0.833773
     20          1           0       -3.529055   -1.159889    0.058194
     21          1           0       -3.564706   -0.800907   -1.664340
     22          1           0       -2.474601   -2.040976   -1.033526
 ---------------------------------------------------------------------

 The electronic state is 1-A.
 Alpha  occ. eigenvalues --  -20.52276 -20.51644 -15.59093 -15.57830 -11.34883
 Alpha  occ. eigenvalues --  -11.33800 -11.28404 -11.24927 -11.24122 -11.23443
 Alpha  occ. eigenvalues --   -1.39491  -1.38423  -1.24352  -1.22224  -1.06150
 Alpha  occ. eigenvalues --   -0.99511  -0.94987  -0.88679  -0.80560  -0.77513
 Alpha  occ. eigenvalues --   -0.69802  -0.69466  -0.66927  -0.63393  -0.62271
 Alpha  occ. eigenvalues --   -0.61571  -0.59312  -0.58083  -0.57997  -0.55863
 Alpha  occ. eigenvalues --   -0.55280  -0.54599  -0.54020  -0.51367  -0.50438
 Alpha  occ. eigenvalues --   -0.42436  -0.40803  -0.38917  -0.38294
 Alpha virt. eigenvalues --    0.19247   0.20198   0.21041   0.23263   0.25886
 Alpha virt. eigenvalues --    0.27550   0.28147   0.29194   0.30159   0.31651
 Alpha virt. eigenvalues --    0.32429   0.33092   0.34505   0.35401   0.38405

 Mulliken atomic charges:
              1
     1  H    0.218062
     2  C   -0.592552
     3  H    0.174140
     4  H    0.195334
     5  C    0.743700
     6  O   -0.571249
     7  N   -0.826366
     8  H    0.379174
     9  C   -0.019083
    10  H    0.217873
    11  C   -0.509883
    12  H    0.162260
    13  H    0.202127
    14  H    0.171675
    15  C    0.775898
    16  O   -0.583377
    17  N   -0.781033
    18  H    0.374933
    19  C   -0.280690
    20  H    0.204938
    21  H    0.163351
    22  H    0.180768
 Sum of Mulliken atomic charges =   0.00000

 Dipole moment (field-independent basis, Debye):
    X=              1.3434    Y=              4.9537    Z=             -4.1768  Tot=              6.6174
 Quadrupole moment (field-independent basis, Debye-Ang):
   XX=            -51.7900   YY=            -62.3287   ZZ=            -61.7686
   XY=              3.9388   XZ=              2.8403   YZ=              4.8714

 Normal termination of Gaussian 09 at Fri Feb 10 20:36:56 2017.
