 Gaussian 09, Revision A.02,
 Gaussian 09:  EM64L-G09RevA.02 11-Jun-2009

 -------------------------------------------
 # HF/6-31G* Opt=(ModRedundant) geom=nocrowd
 -------------------------------------------

 ------------------
 Phi Psi fixed scan
 ------------------
 Symbolic Z-matrix:
 Charge =  0 Multiplicity = 1

 SCF Done:  E(RHF) =  -492.830199314     A.U. after   15 cycles
 SCF Done:  E(RHF) =  -492.842571344     A.U. after   14 cycles
 SCF Done:  E(RHF) =  -492.847089738     A.U. after   14 cycles
 SCF Done:  E(RHF) =  -492.848857575     A.U. after   13 cycles
 SCF Done:  E(RHF) =  -492.850331558     A.U. after   13 cycles
 SCF Done:  E(RHF) =  -492.851448159     A.U. after   14 cycles
 SCF Done:  E(RHF) =  -492.852114355     A.U. after   13 cycles
 SCF Done:  E(RHF) =  -492.852320637     A.U. after   13 cycles
 SCF Done:  E(RHF) =  -492.852387623     A.U. after   11 cycles
 SCF Done:  E(RHF) =  -492.852459953     A.U. after   11 cycles
 SCF Done:  E(RHF) =  -492.852540956     A.U. after   11 cycles
 SCF Done:  E(RHF) =  -492.852649126     A.U. after   11 cycles
 SCF Done:  E(RHF) =  -492.852843580     A.U. after   12 cycles
 SCF Done:  E(RHF) =  -492.852905300     A.U. after   11 cycles
 SCF Done:  E(RHF) =  -492.852944653     A.U. after   11 cycles
 SCF Done:  E(RHF) =  -492.852951532     A.U. after   11 cycles
 SCF Done:  E(RHF) =  -492.852963202     A.U. after   11 cycles
 SCF Done:  E(RHF) =  -492.852963848     A.U. after    9 cycles
 SCF Done:  E(RHF) =  -492.852964465     A.U. after    9 cycles
 SCF Done:  E(RHF) =  -492.852964602     A.U. after    8 cycles
 Optimization completed.
    -- Stationary point found.

                         Standard orientation:
 ---------------------------------------------------------------------
 Center     Atomic      Atomic             Coordinates (Angstroms)
 Number     Number       Type             X           Y           Z
 ---------------------------------------------------------------------
      1          1           0       -3.622137   -1.530595    0.105560
      2          6           0       -3.069282   -0.720922    0.558834
      3          1           0       -2.714230   -1.039850    1.533935
      4          1           0       -3.717948    0.137987    0.692644
      5          6           0       -1.873304   -0.394095   -0.301513
      6          8           0       -1.437971   -1.145314   -1.124585
      7          7           0       -1.331413    0.856614   -0.109676
      8          1           0       -1.617116    1.287000    0.744031
      9          6           0        0.072895    1.052682   -0.402854
     10          1           0        0.191840    1.071548   -1.480222
     11          6           0        0.527294    2.395120    0.173955
     12          1           0        0.458846    2.389126    1.257611
     13          1           0        1.554715    2.606204   -0.093473
     14          1           0       -0.099588    3.192145   -0.209333
     15          6           0        0.935256   -0.085183    0.161366
     16          8           0        0.565107   -0.763174    1.078902
     17          7           0        2.193865   -0.144105   -0.334354
     18          1           0        2.355825    0.268953   -1.224917
     19          6           0        3.098311   -1.200081    0.075480
     20          1           0        3.122054   -1.252310    1.153407
     21          1           0        2.795791   -2.168001   -0.309413
     22          1           0        4.090690   -0.966988   -0.287761
 ---------------------------------------------------------------------

 The electronic state is 1-A.
 Alpha  occ. eigenvalues --  -20.52390 -20.52016 -15.58507 -15.57760 -11.34273
 Alpha  occ. eigenvalues --  -11.34112 -11.28083 -11.25527 -11.23739 -11.22415
 Alpha  occ. eigenvalues --   -1.39848  -1.38275  -1.23548  -1.23119  -1.05570
 Alpha  occ. eigenvalues --   -0.98937  -0.95761  -0.87768  -0.79410  -0.77853
 Alpha  occ. eigenvalues --   -0.71968  -0.67519  -0.66730  -0.63398  -0.62675
 Alpha  occ. eigenvalues --   -0.61507  -0.59469  -0.57867  -0.57287  -0.55996
 Alpha  occ. eigenvalues --   -0.55134  -0.54227  -0.53543  -0.51465  -0.49166
 Alpha  occ. eigenvalues --   -0.43190  -0.41403  -0.39184  -0.38841
 Alpha virt. eigenvalues --    0.19231   0.20462   0.22280   0.23070   0.26500
 Alpha virt. eigenvalues --    0.27319   0.29543   0.30471   0.30823   0.31596
 Alpha virt. eigenvalues --    0.31915   0.32481   0.33952   0.34938   0.37704

 Mulliken atomic charges:
              1
     1  H    0.211476
     2  C   -0.599744
     3  H    0.211805
     4  H    0.176934
     5  C    0.764753
     6  O   -0.600755
     7  N   -0.767015
     8  H    0.372727
     9  C   -0.043998
    10  H    0.202196
    11  C   -0.505062
    12  H    0.179906
    13  H    0.185375
    14  H    0.189720
    15  C    0.778927
    16  O   -0.622898
    17  N   -0.789558
    18  H    0.379055
    19  C   -0.278829
    20  H    0.204108
    21  H    0.183428
    22  H    0.167449
 Sum of Mulliken atomic charges =   0.00000

 Dipole moment (field-independent basis, Debye):
    X=              1.4635    Y=              3.4595    Z=              0.1789  Tot=              3.7605
 Quadrupole moment (field-independent basis, Debye-Ang):
   XX=            -48.9114   YY=            -61.3026   ZZ=            -62.9672
   XY=             -2.3628   XZ=             -8.6909   YZ=             -0.6854

 Normal termination of Gaussian 09 at Fri Feb 10 20:02:38 2017.
