 Gaussian 09, Revision A.02,
 Gaussian 09:  EM64L-G09RevA.02 11-Jun-2009

 -------------------------------------------
 # HF/6-31G* Opt=(ModRedundant) geom=nocrowd
 -------------------------------------------

 ------------------
 Phi Psi fixed scan
 ------------------
 Symbolic Z-matrix:
 Charge =  0 Multiplicity = 1

 SCF Done:  E(RHF) =  -492.798247456     A.U. after   16 cycles
 SCF Done:  E(RHF) =  -492.825390209     A.U. after   14 cycles
 SCF Done:  E(RHF) =  -492.831061924     A.U. after   13 cycles
 SCF Done:  E(RHF) =  -492.832203274     A.U. after   13 cycles
 SCF Done:  E(RHF) =  -492.832543910     A.U. after   13 cycles
 SCF Done:  E(RHF) =  -492.832845637     A.U. after   13 cycles
 SCF Done:  E(RHF) =  -492.833077725     A.U. after   13 cycles
 SCF Done:  E(RHF) =  -492.833215915     A.U. after   13 cycles
 SCF Done:  E(RHF) =  -492.833537828     A.U. after   11 cycles
 SCF Done:  E(RHF) =  -492.833889310     A.U. after   13 cycles
 SCF Done:  E(RHF) =  -492.834110546     A.U. after   13 cycles
 SCF Done:  E(RHF) =  -492.834246187     A.U. after   12 cycles
 SCF Done:  E(RHF) =  -492.834337874     A.U. after   13 cycles
 SCF Done:  E(RHF) =  -492.834396119     A.U. after   11 cycles
 SCF Done:  E(RHF) =  -492.834455953     A.U. after   12 cycles
 SCF Done:  E(RHF) =  -492.834487355     A.U. after   12 cycles
 SCF Done:  E(RHF) =  -492.834503245     A.U. after   11 cycles
 SCF Done:  E(RHF) =  -492.834512723     A.U. after   12 cycles
 SCF Done:  E(RHF) =  -492.834513962     A.U. after   10 cycles
 SCF Done:  E(RHF) =  -492.834514106     A.U. after    8 cycles
 Optimization completed.
    -- Stationary point found.

                         Standard orientation:
 ---------------------------------------------------------------------
 Center     Atomic      Atomic             Coordinates (Angstroms)
 Number     Number       Type             X           Y           Z
 ---------------------------------------------------------------------
      1          1           0       -3.745213   -1.225997    0.828381
      2          6           0       -3.038288   -0.450706    1.083447
      3          1           0       -2.561420   -0.706189    2.025520
      4          1           0       -3.562711    0.490014    1.215435
      5          6           0       -1.997123   -0.359405   -0.016537
      6          8           0       -1.899939   -1.182791   -0.870942
      7          7           0       -1.228841    0.779340    0.045701
      8          1           0       -1.355172    1.300721    0.885767
      9          6           0        0.083562    0.981738   -0.567071
     10          1           0       -0.066448    0.990862   -1.639120
     11          6           0        0.597887    2.355803   -0.148264
     12          1           0        0.699880    2.448489    0.930871
     13          1           0        1.561145    2.562451   -0.597527
     14          1           0       -0.101441    3.116099   -0.475627
     15          6           0        1.073418   -0.188939   -0.381059
     16          8           0        1.022502   -1.163389   -1.070140
     17          7           0        2.070512   -0.006623    0.523187
     18          1           0        2.006162    0.736861    1.176741
     19          6           0        3.020183   -1.064868    0.796842
     20          1           0        3.437439   -1.427368   -0.130963
     21          1           0        3.817273   -0.665705    1.410605
     22          1           0        2.560470   -1.901555    1.312212
 ---------------------------------------------------------------------

 The electronic state is 1-A.
 Alpha  occ. eigenvalues --  -20.52049 -20.51818 -15.58715 -15.58481 -11.34407
 Alpha  occ. eigenvalues --  -11.34038 -11.28472 -11.25627 -11.24481 -11.23151
 Alpha  occ. eigenvalues --   -1.39380  -1.38476  -1.24072  -1.22693  -1.06128
 Alpha  occ. eigenvalues --   -0.99301  -0.95568  -0.88978  -0.79905  -0.78347
 Alpha  occ. eigenvalues --   -0.71470  -0.67757  -0.66508  -0.63943  -0.62043
 Alpha  occ. eigenvalues --   -0.61755  -0.59419  -0.58381  -0.57979  -0.56249
 Alpha  occ. eigenvalues --   -0.55748  -0.54925  -0.53518  -0.51170  -0.50380
 Alpha  occ. eigenvalues --   -0.43536  -0.41308  -0.38667  -0.37507
 Alpha virt. eigenvalues --    0.19089   0.20191   0.20747   0.23359   0.25642
 Alpha virt. eigenvalues --    0.27318   0.27683   0.29223   0.30338   0.30969
 Alpha virt. eigenvalues --    0.32185   0.32899   0.33684   0.34372   0.38035

 Mulliken atomic charges:
              1
     1  H    0.219074
     2  C   -0.597397
     3  H    0.184707
     4  H    0.180949
     5  C    0.741841
     6  O   -0.549142
     7  N   -0.813236
     8  H    0.368428
     9  C   -0.008010
    10  H    0.228934
    11  C   -0.527601
    12  H    0.146265
    13  H    0.199899
    14  H    0.198710
    15  C    0.745420
    16  O   -0.572457
    17  N   -0.802200
    18  H    0.380710
    19  C   -0.272020
    20  H    0.206336
    21  H    0.163598
    22  H    0.177192
 Sum of Mulliken atomic charges =   0.00000

 Dipole moment (field-independent basis, Debye):
    X=              1.2371    Y=              4.9185    Z=              5.2470  Tot=              7.2975
 Quadrupole moment (field-independent basis, Debye-Ang):
   XX=            -54.5338   YY=            -62.7473   ZZ=            -60.7999
   XY=             -1.7965   XZ=             -1.8323   YZ=             -4.9242

 Normal termination of Gaussian 09 at Fri Feb 10 20:33:48 2017.
