 Gaussian 09, Revision A.02,
 Gaussian 09:  EM64L-G09RevA.02 11-Jun-2009

 -------------------------------------------
 # HF/6-31G* Opt=(ModRedundant) geom=nocrowd
 -------------------------------------------

 ------------------
 Phi Psi fixed scan
 ------------------
 Symbolic Z-matrix:
 Charge =  0 Multiplicity = 1

 SCF Done:  E(RHF) =  -492.759509499     A.U. after   15 cycles
 SCF Done:  E(RHF) =  -492.808446460     A.U. after   14 cycles
 SCF Done:  E(RHF) =  -492.832473724     A.U. after   14 cycles
 SCF Done:  E(RHF) =  -492.843589521     A.U. after   14 cycles
 SCF Done:  E(RHF) =  -492.847254571     A.U. after   13 cycles
 SCF Done:  E(RHF) =  -492.848825792     A.U. after   13 cycles
 SCF Done:  E(RHF) =  -492.849848859     A.U. after   12 cycles
 SCF Done:  E(RHF) =  -492.850236129     A.U. after   13 cycles
 SCF Done:  E(RHF) =  -492.850497996     A.U. after   13 cycles
 SCF Done:  E(RHF) =  -492.850631877     A.U. after   12 cycles
 SCF Done:  E(RHF) =  -492.851251781     A.U. after   10 cycles
 SCF Done:  E(RHF) =  -492.851420477     A.U. after   13 cycles
 SCF Done:  E(RHF) =  -492.851453777     A.U. after   11 cycles
 SCF Done:  E(RHF) =  -492.851496624     A.U. after   12 cycles
 SCF Done:  E(RHF) =  -492.851506501     A.U. after   11 cycles
 SCF Done:  E(RHF) =  -492.851514898     A.U. after   11 cycles
 SCF Done:  E(RHF) =  -492.851515503     A.U. after   10 cycles
 SCF Done:  E(RHF) =  -492.851515875     A.U. after    9 cycles
 SCF Done:  E(RHF) =  -492.851515947     A.U. after    7 cycles
 SCF Done:  E(RHF) =  -492.851515971     A.U. after    7 cycles
 Optimization completed.
    -- Stationary point found.

                         Standard orientation:
 ---------------------------------------------------------------------
 Center     Atomic      Atomic             Coordinates (Angstroms)
 Number     Number       Type             X           Y           Z
 ---------------------------------------------------------------------
      1          1           0       -3.691125   -1.382592    0.354115
      2          6           0       -3.099211   -0.553215    0.711946
      3          1           0       -2.849379   -0.730705    1.753722
      4          1           0       -3.677610    0.361421    0.651404
      5          6           0       -1.821834   -0.481724   -0.097834
      6          8           0       -1.407324   -1.444897   -0.690216
      7          7           0       -1.235453    0.739224   -0.124033
      8          1           0       -1.653618    1.401683    0.490936
      9          6           0        0.135308    1.112520   -0.505853
     10          1           0        0.196477    1.021073   -1.586949
     11          6           0        0.336937    2.575564   -0.134855
     12          1           0        0.315035    2.709645    0.940495
     13          1           0        1.297396    2.922767   -0.485175
     14          1           0       -0.441285    3.180336   -0.589163
     15          6           0        1.295827    0.248165    0.040494
     16          8           0        2.179602    0.772031    0.670427
     17          7           0        1.311586   -1.050904   -0.278374
     18          1           0        0.500401   -1.454679   -0.692339
     19          6           0        2.376581   -1.909875    0.190015
     20          1           0        3.337609   -1.547620   -0.150415
     21          1           0        2.400417   -1.962889    1.272601
     22          1           0        2.212877   -2.902366   -0.207550
 ---------------------------------------------------------------------

 The electronic state is 1-A.
 Alpha  occ. eigenvalues --  -20.54179 -20.51498 -15.60257 -15.56512 -11.36712
 Alpha  occ. eigenvalues --  -11.33722 -11.28804 -11.24548 -11.24432 -11.22626
 Alpha  occ. eigenvalues --   -1.40894  -1.38296  -1.25272  -1.21862  -1.06235
 Alpha  occ. eigenvalues --   -1.00054  -0.95517  -0.87503  -0.81329  -0.77374
 Alpha  occ. eigenvalues --   -0.72098  -0.69551  -0.67574  -0.63614  -0.62494
 Alpha  occ. eigenvalues --   -0.61223  -0.60159  -0.59479  -0.58092  -0.54936
 Alpha  occ. eigenvalues --   -0.54519  -0.53613  -0.52786  -0.52467  -0.50627
 Alpha  occ. eigenvalues --   -0.44560  -0.43118  -0.38865  -0.37324
 Alpha virt. eigenvalues --    0.18291   0.19704   0.22080   0.25071   0.26641
 Alpha virt. eigenvalues --    0.27863   0.28748   0.29803   0.30577   0.31636
 Alpha virt. eigenvalues --    0.32389   0.32628   0.34709   0.35654   0.39658

 Mulliken atomic charges:
              1
     1  H    0.220044
     2  C   -0.593427
     3  H    0.202738
     4  H    0.183490
     5  C    0.769369
     6  O   -0.633065
     7  N   -0.816759
     8  H    0.388784
     9  C   -0.018077
    10  H    0.207980
    11  C   -0.502697
    12  H    0.182516
    13  H    0.209458
    14  H    0.166835
    15  C    0.751361
    16  O   -0.624683
    17  N   -0.820159
    18  H    0.461483
    19  C   -0.267622
    20  H    0.187058
    21  H    0.175932
    22  H    0.169439
 Sum of Mulliken atomic charges =   0.00000

 Dipole moment (field-independent basis, Debye):
    X=             -3.3370    Y=              0.9150    Z=              0.4607  Tot=              3.4907
 Quadrupole moment (field-independent basis, Debye-Ang):
   XX=            -60.9591   YY=            -59.2031   ZZ=            -61.3018
   XY=             -8.3972   XZ=             -7.7993   YZ=             -3.1857

 Normal termination of Gaussian 09 at Fri Feb 10 19:44:49 2017.
