 Gaussian 09, Revision A.02,
 Gaussian 09:  EM64L-G09RevA.02 11-Jun-2009

 -------------------------------------------
 # HF/6-31G* Opt=(ModRedundant) geom=nocrowd
 -------------------------------------------

 ------------------
 Phi Psi fixed scan
 ------------------
 Symbolic Z-matrix:
 Charge =  0 Multiplicity = 1

 SCF Done:  E(RHF) =  -492.789530370     A.U. after   16 cycles
 SCF Done:  E(RHF) =  -492.823091239     A.U. after   14 cycles
 SCF Done:  E(RHF) =  -492.831241929     A.U. after   13 cycles
 SCF Done:  E(RHF) =  -492.835358302     A.U. after   14 cycles
 SCF Done:  E(RHF) =  -492.838480797     A.U. after   16 cycles
 SCF Done:  E(RHF) =  -492.840542167     A.U. after   15 cycles
 SCF Done:  E(RHF) =  -492.841708335     A.U. after   13 cycles
 SCF Done:  E(RHF) =  -492.841889898     A.U. after   13 cycles
 SCF Done:  E(RHF) =  -492.842201829     A.U. after   13 cycles
 SCF Done:  E(RHF) =  -492.842349245     A.U. after   12 cycles
 SCF Done:  E(RHF) =  -492.842631892     A.U. after   11 cycles
 SCF Done:  E(RHF) =  -492.842803028     A.U. after   12 cycles
 SCF Done:  E(RHF) =  -492.842921937     A.U. after   13 cycles
 SCF Done:  E(RHF) =  -492.842971381     A.U. after   11 cycles
 SCF Done:  E(RHF) =  -492.843015553     A.U. after   12 cycles
 SCF Done:  E(RHF) =  -492.843043059     A.U. after   11 cycles
 SCF Done:  E(RHF) =  -492.843051862     A.U. after   10 cycles
 SCF Done:  E(RHF) =  -492.843053891     A.U. after   10 cycles
 SCF Done:  E(RHF) =  -492.843054265     A.U. after    9 cycles
 SCF Done:  E(RHF) =  -492.843054310     A.U. after    8 cycles
 Optimization completed.
    -- Stationary point found.

                         Standard orientation:
 ---------------------------------------------------------------------
 Center     Atomic      Atomic             Coordinates (Angstroms)
 Number     Number       Type             X           Y           Z
 ---------------------------------------------------------------------
      1          1           0        3.631724   -1.406116   -0.435663
      2          6           0        2.940942   -0.681418   -0.840575
      3          1           0        2.381602   -1.137646   -1.650938
      4          1           0        3.491000    0.166404   -1.236509
      5          6           0        1.972915   -0.262886    0.239710
      6          8           0        1.858957   -0.847168    1.272903
      7          7           0        1.279596    0.914408   -0.014999
      8          1           0        1.406045    1.219022   -0.958422
      9          6           0       -0.111492    1.038284    0.383067
     10          1           0       -0.136632    1.122164    1.465044
     11          6           0       -0.666237    2.330992   -0.221226
     12          1           0       -0.748778    2.255623   -1.301189
     13          1           0       -1.645302    2.579944    0.167156
     14          1           0        0.002256    3.148861    0.018639
     15          6           0       -0.940460   -0.210395    0.022647
     16          8           0       -0.442305   -1.210994   -0.408173
     17          7           0       -2.288312   -0.049884    0.069763
     18          1           0       -2.651445    0.698507    0.613958
     19          6           0       -3.165524   -1.185033   -0.143568
     20          1           0       -2.901604   -1.672804   -1.069537
     21          1           0       -3.098263   -1.912520    0.658363
     22          1           0       -4.183678   -0.825073   -0.212410
 ---------------------------------------------------------------------

 The electronic state is 1-A.
 Alpha  occ. eigenvalues --  -20.53020 -20.51354 -15.58942 -15.57475 -11.34810
 Alpha  occ. eigenvalues --  -11.33674 -11.28506 -11.25908 -11.24182 -11.22047
 Alpha  occ. eigenvalues --   -1.40238  -1.37921  -1.23703  -1.23007  -1.05529
 Alpha  occ. eigenvalues --   -0.98660  -0.95839  -0.88428  -0.79378  -0.77868
 Alpha  occ. eigenvalues --   -0.72017  -0.66946  -0.66406  -0.64026  -0.62813
 Alpha  occ. eigenvalues --   -0.61552  -0.59278  -0.57789  -0.57114  -0.56280
 Alpha  occ. eigenvalues --   -0.55554  -0.54823  -0.53581  -0.51148  -0.49017
 Alpha  occ. eigenvalues --   -0.44163  -0.40869  -0.39625  -0.38065
 Alpha virt. eigenvalues --    0.18891   0.20816   0.21195   0.23131   0.26254
 Alpha virt. eigenvalues --    0.27531   0.28757   0.30116   0.30686   0.31484
 Alpha virt. eigenvalues --    0.32093   0.32819   0.33442   0.35231   0.37664

 Mulliken atomic charges:
              1
     1  H    0.211622
     2  C   -0.603184
     3  H    0.207862
     4  H    0.173300
     5  C    0.775890
     6  O   -0.584622
     7  N   -0.767203
     8  H    0.362121
     9  C   -0.061922
    10  H    0.220486
    11  C   -0.502323
    12  H    0.176135
    13  H    0.167186
    14  H    0.197635
    15  C    0.765004
    16  O   -0.604972
    17  N   -0.788388
    18  H    0.379379
    19  C   -0.278241
    20  H    0.205999
    21  H    0.180111
    22  H    0.168126
 Sum of Mulliken atomic charges =   0.00000

 Dipole moment (field-independent basis, Debye):
    X=             -3.0837    Y=              3.7596    Z=             -1.9911  Tot=              5.2543
 Quadrupole moment (field-independent basis, Debye-Ang):
   XX=            -50.8839   YY=            -62.1025   ZZ=            -62.2241
   XY=              0.9731   XZ=             -9.4729   YZ=              1.6533

 Normal termination of Gaussian 09 at Fri Feb 10 20:08:15 2017.
