 Gaussian 09, Revision A.02,
 Gaussian 09:  EM64L-G09RevA.02 11-Jun-2009

 -------------------------------------------
 # HF/6-31G* Opt=(ModRedundant) geom=nocrowd
 -------------------------------------------

 ------------------
 Phi Psi fixed scan
 ------------------
 Symbolic Z-matrix:
 Charge =  0 Multiplicity = 1

 SCF Done:  E(RHF) =  -492.731106976     A.U. after   15 cycles
 SCF Done:  E(RHF) =  -492.805431210     A.U. after   15 cycles
 SCF Done:  E(RHF) =  -492.831310050     A.U. after   14 cycles
 SCF Done:  E(RHF) =  -492.841904111     A.U. after   13 cycles
 SCF Done:  E(RHF) =  -492.845246992     A.U. after   13 cycles
 SCF Done:  E(RHF) =  -492.847267257     A.U. after   13 cycles
 SCF Done:  E(RHF) =  -492.848499143     A.U. after   13 cycles
 SCF Done:  E(RHF) =  -492.848821722     A.U. after   13 cycles
 SCF Done:  E(RHF) =  -492.849104654     A.U. after   13 cycles
 SCF Done:  E(RHF) =  -492.849345590     A.U. after   11 cycles
 SCF Done:  E(RHF) =  -492.850471527     A.U. after   12 cycles
 SCF Done:  E(RHF) =  -492.850492997     A.U. after   11 cycles
 SCF Done:  E(RHF) =  -492.850505641     A.U. after   11 cycles
 SCF Done:  E(RHF) =  -492.850511233     A.U. after   10 cycles
 SCF Done:  E(RHF) =  -492.850525197     A.U. after   11 cycles
 SCF Done:  E(RHF) =  -492.850531833     A.U. after   10 cycles
 SCF Done:  E(RHF) =  -492.850536824     A.U. after   10 cycles
 SCF Done:  E(RHF) =  -492.850537153     A.U. after    8 cycles
 SCF Done:  E(RHF) =  -492.850537288     A.U. after    8 cycles
 SCF Done:  E(RHF) =  -492.850537306     A.U. after    7 cycles
 Optimization completed.
    -- Stationary point found.

                         Standard orientation:
 ---------------------------------------------------------------------
 Center     Atomic      Atomic             Coordinates (Angstroms)
 Number     Number       Type             X           Y           Z
 ---------------------------------------------------------------------
      1          1           0       -3.853173   -1.126791   -0.043519
      2          6           0       -3.207022   -0.471820    0.522799
      3          1           0       -3.063977   -0.904330    1.508282
      4          1           0       -3.679568    0.496381    0.637782
      5          6           0       -1.865396   -0.395231   -0.175296
      6          8           0       -1.453317   -1.321572   -0.828567
      7          7           0       -1.202320    0.768619   -0.011580
      8          1           0       -1.627645    1.404460    0.624205
      9          6           0        0.167405    1.142199   -0.381173
     10          1           0        0.193019    1.255625   -1.461301
     11          6           0        0.446835    2.509574    0.242287
     12          1           0        0.437112    2.447830    1.326718
     13          1           0        1.416344    2.864679   -0.066652
     14          1           0       -0.307916    3.222956   -0.073107
     15          6           0        1.351309    0.194346   -0.094017
     16          8           0        2.455805    0.669496   -0.164858
     17          7           0        1.137067   -1.093308    0.216857
     18          1           0        0.268503   -1.494905   -0.059215
     19          6           0        2.270427   -1.983492    0.365512
     20          1           0        2.950550   -1.596555    1.110579
     21          1           0        1.904523   -2.948872    0.689237
     22          1           0        2.817747   -2.104502   -0.563229
 ---------------------------------------------------------------------

 The electronic state is 1-A.
 Alpha  occ. eigenvalues --  -20.53946 -20.51506 -15.60390 -15.56654 -11.36763
 Alpha  occ. eigenvalues --  -11.34021 -11.28956 -11.24538 -11.24459 -11.22949
 Alpha  occ. eigenvalues --   -1.40850  -1.38509  -1.25449  -1.21903  -1.06377
 Alpha  occ. eigenvalues --   -1.00169  -0.95246  -0.87953  -0.81597  -0.77604
 Alpha  occ. eigenvalues --   -0.72003  -0.69655  -0.67645  -0.63500  -0.62396
 Alpha  occ. eigenvalues --   -0.62003  -0.59593  -0.59210  -0.58340  -0.55277
 Alpha  occ. eigenvalues --   -0.54595  -0.54147  -0.53580  -0.52378  -0.49747
 Alpha  occ. eigenvalues --   -0.43898  -0.43096  -0.39393  -0.37715
 Alpha virt. eigenvalues --    0.18032   0.20036   0.21229   0.25793   0.26621
 Alpha virt. eigenvalues --    0.28314   0.28675   0.29446   0.30825   0.31697
 Alpha virt. eigenvalues --    0.32744   0.33022   0.34949   0.35530   0.38490

 Mulliken atomic charges:
              1
     1  H    0.219971
     2  C   -0.588713
     3  H    0.204461
     4  H    0.178725
     5  C    0.765644
     6  O   -0.638250
     7  N   -0.827596
     8  H    0.391775
     9  C    0.002291
    10  H    0.220153
    11  C   -0.524699
    12  H    0.170257
    13  H    0.234067
    14  H    0.168194
    15  C    0.759564
    16  O   -0.624915
    17  N   -0.828607
    18  H    0.456878
    19  C   -0.274844
    20  H    0.191700
    21  H    0.167288
    22  H    0.176657
 Sum of Mulliken atomic charges =   0.00000

 Dipole moment (field-independent basis, Debye):
    X=             -3.8755    Y=              1.1050    Z=              2.1285  Tot=              4.5575
 Quadrupole moment (field-independent basis, Debye-Ang):
   XX=            -63.1715   YY=            -57.9354   ZZ=            -61.0165
   XY=             -8.1756   XZ=             -3.4256   YZ=             -1.9814

 Normal termination of Gaussian 09 at Fri Feb 10 19:29:06 2017.
