 Gaussian 09, Revision A.02,
 Gaussian 09:  EM64L-G09RevA.02 11-Jun-2009

 -------------------------------------------
 # HF/6-31G* Opt=(ModRedundant) geom=nocrowd
 -------------------------------------------

 ------------------
 Phi Psi fixed scan
 ------------------
 Symbolic Z-matrix:
 Charge =  0 Multiplicity = 1

 SCF Done:  E(RHF) =  -492.836892914     A.U. after   15 cycles
 SCF Done:  E(RHF) =  -492.846478475     A.U. after   14 cycles
 SCF Done:  E(RHF) =  -492.848245735     A.U. after   13 cycles
 SCF Done:  E(RHF) =  -492.848490585     A.U. after   12 cycles
 SCF Done:  E(RHF) =  -492.848896723     A.U. after   13 cycles
 SCF Done:  E(RHF) =  -492.849231582     A.U. after   13 cycles
 SCF Done:  E(RHF) =  -492.849462215     A.U. after   13 cycles
 SCF Done:  E(RHF) =  -492.849558146     A.U. after   12 cycles
 SCF Done:  E(RHF) =  -492.849685690     A.U. after   11 cycles
 SCF Done:  E(RHF) =  -492.849983786     A.U. after   13 cycles
 SCF Done:  E(RHF) =  -492.850276442     A.U. after   12 cycles
 SCF Done:  E(RHF) =  -492.850368676     A.U. after   12 cycles
 SCF Done:  E(RHF) =  -492.850399643     A.U. after   11 cycles
 SCF Done:  E(RHF) =  -492.850410435     A.U. after   11 cycles
 SCF Done:  E(RHF) =  -492.850418212     A.U. after   11 cycles
 SCF Done:  E(RHF) =  -492.850419950     A.U. after   10 cycles
 SCF Done:  E(RHF) =  -492.850420312     A.U. after    8 cycles
 SCF Done:  E(RHF) =  -492.850420779     A.U. after    9 cycles
 SCF Done:  E(RHF) =  -492.850421274     A.U. after    9 cycles
 SCF Done:  E(RHF) =  -492.850421477     A.U. after    9 cycles
 Optimization completed.
    -- Stationary point found.

                         Standard orientation:
 ---------------------------------------------------------------------
 Center     Atomic      Atomic             Coordinates (Angstroms)
 Number     Number       Type             X           Y           Z
 ---------------------------------------------------------------------
      1          1           0        3.424648   -1.700144   -0.435310
      2          6           0        3.200110   -0.644568   -0.388497
      3          1           0        3.350810   -0.194651   -1.363509
      4          1           0        3.886414   -0.177651    0.311466
      5          6           0        1.783197   -0.467595    0.114702
      6          8           0        1.223165   -1.306474    0.760516
      7          7           0        1.194163    0.712211   -0.219534
      8          1           0        1.760207    1.396175   -0.669180
      9          6           0       -0.059618    1.186603    0.351655
     10          1           0        0.095758    1.466018    1.386689
     11          6           0       -0.548852    2.405724   -0.427652
     12          1           0       -0.714472    2.170376   -1.472338
     13          1           0       -1.479492    2.764549   -0.005255
     14          1           0        0.177380    3.211142   -0.364680
     15          6           0       -1.145610    0.107284    0.422561
     16          8           0       -1.735346   -0.087184    1.444683
     17          7           0       -1.514760   -0.437965   -0.765554
     18          1           0       -0.823914   -0.427577   -1.482379
     19          6           0       -2.441854   -1.552199   -0.784128
     20          1           0       -3.329219   -1.287110   -0.229677
     21          1           0       -2.717542   -1.757186   -1.810727
     22          1           0       -2.013194   -2.445895   -0.342918
 ---------------------------------------------------------------------

 The electronic state is 1-A.
 Alpha  occ. eigenvalues --  -20.53229 -20.51464 -15.59687 -15.57244 -11.35698
 Alpha  occ. eigenvalues --  -11.33580 -11.28086 -11.24516 -11.24122 -11.23740
 Alpha  occ. eigenvalues --   -1.40284  -1.38258  -1.24949  -1.21856  -1.06214
 Alpha  occ. eigenvalues --   -1.00071  -0.94830  -0.88264  -0.81064  -0.77224
 Alpha  occ. eigenvalues --   -0.70418  -0.69588  -0.67559  -0.62769  -0.62340
 Alpha  occ. eigenvalues --   -0.62035  -0.59601  -0.58331  -0.58242  -0.55793
 Alpha  occ. eigenvalues --   -0.55038  -0.54409  -0.54013  -0.51537  -0.50375
 Alpha  occ. eigenvalues --   -0.42536  -0.41655  -0.39489  -0.38152
 Alpha virt. eigenvalues --    0.19115   0.20427   0.20885   0.24371   0.25734
 Alpha virt. eigenvalues --    0.27847   0.28390   0.29685   0.29861   0.31068
 Alpha virt. eigenvalues --    0.32340   0.33273   0.34330   0.35049   0.37357

 Mulliken atomic charges:
              1
     1  H    0.218462
     2  C   -0.588684
     3  H    0.174834
     4  H    0.202048
     5  C    0.743192
     6  O   -0.587195
     7  N   -0.829445
     8  H    0.382758
     9  C   -0.025486
    10  H    0.221032
    11  C   -0.507166
    12  H    0.177162
    13  H    0.202892
    14  H    0.167046
    15  C    0.781112
    16  O   -0.604851
    17  N   -0.769459
    18  H    0.376708
    19  C   -0.283875
    20  H    0.202522
    21  H    0.162290
    22  H    0.184103
 Sum of Mulliken atomic charges =   0.00000

 Dipole moment (field-independent basis, Debye):
    X=              3.2251    Y=              2.8318    Z=             -4.8548  Tot=              6.4799
 Quadrupole moment (field-independent basis, Debye-Ang):
   XX=            -55.1715   YY=            -58.0741   ZZ=            -64.4452
   XY=              4.3043   XZ=              2.8232   YZ=              4.1060

 Normal termination of Gaussian 09 at Fri Feb 10 20:42:39 2017.
