 Gaussian 09, Revision A.02,
 Gaussian 09:  EM64L-G09RevA.02 11-Jun-2009

 -------------------------------------------
 # HF/6-31G* Opt=(ModRedundant) geom=nocrowd
 -------------------------------------------

 ------------------
 Phi Psi fixed scan
 ------------------
 Symbolic Z-matrix:
 Charge =  0 Multiplicity = 1

 SCF Done:  E(RHF) =  -492.838409940     A.U. after   15 cycles
 SCF Done:  E(RHF) =  -492.848699166     A.U. after   14 cycles
 SCF Done:  E(RHF) =  -492.849694050     A.U. after   13 cycles
 SCF Done:  E(RHF) =  -492.850253711     A.U. after   12 cycles
 SCF Done:  E(RHF) =  -492.850703237     A.U. after   12 cycles
 SCF Done:  E(RHF) =  -492.850831931     A.U. after   12 cycles
 SCF Done:  E(RHF) =  -492.850989305     A.U. after   12 cycles
 SCF Done:  E(RHF) =  -492.851110867     A.U. after   12 cycles
 SCF Done:  E(RHF) =  -492.851270288     A.U. after   13 cycles
 SCF Done:  E(RHF) =  -492.851362378     A.U. after   12 cycles
 SCF Done:  E(RHF) =  -492.851870201     A.U. after   12 cycles
 SCF Done:  E(RHF) =  -492.851876321     A.U. after    9 cycles
 SCF Done:  E(RHF) =  -492.851883591     A.U. after   11 cycles
 SCF Done:  E(RHF) =  -492.851886535     A.U. after   10 cycles
 SCF Done:  E(RHF) =  -492.851890735     A.U. after   10 cycles
 SCF Done:  E(RHF) =  -492.851900188     A.U. after   11 cycles
 SCF Done:  E(RHF) =  -492.851901577     A.U. after    9 cycles
 SCF Done:  E(RHF) =  -492.851901909     A.U. after    8 cycles
 SCF Done:  E(RHF) =  -492.851902215     A.U. after    8 cycles
 SCF Done:  E(RHF) =  -492.851902419     A.U. after    9 cycles
 Optimization completed.
    -- Stationary point found.

                         Standard orientation:
 ---------------------------------------------------------------------
 Center     Atomic      Atomic             Coordinates (Angstroms)
 Number     Number       Type             X           Y           Z
 ---------------------------------------------------------------------
      1          1           0        3.416137   -1.648205   -0.369487
      2          6           0        3.198349   -0.590529   -0.334654
      3          1           0        3.326448   -0.158417   -1.320765
      4          1           0        3.906473   -0.117776    0.338563
      5          6           0        1.799147   -0.396822    0.211776
      6          8           0        1.281871   -1.202180    0.936118
      7          7           0        1.193119    0.761153   -0.147013
      8          1           0        1.678186    1.362923   -0.772214
      9          6           0       -0.122615    1.199966    0.294397
     10          1           0       -0.065810    1.500079    1.333025
     11          6           0       -0.549586    2.406199   -0.544055
     12          1           0       -0.643997    2.136528   -1.591152
     13          1           0       -1.504697    2.772606   -0.193572
     14          1           0        0.176667    3.208554   -0.454664
     15          6           0       -1.257695    0.169888    0.277907
     16          8           0       -2.194112    0.360586    1.003997
     17          7           0       -1.224474   -0.819752   -0.640475
     18          1           0       -0.330345   -1.085942   -0.977569
     19          6           0       -2.229838   -1.862997   -0.603433
     20          1           0       -3.212577   -1.416600   -0.594639
     21          1           0       -2.128095   -2.472741   -1.491880
     22          1           0       -2.127562   -2.492305    0.274227
 ---------------------------------------------------------------------

 The electronic state is 1-A.
 Alpha  occ. eigenvalues --  -20.53449 -20.51561 -15.59966 -15.57294 -11.36059
 Alpha  occ. eigenvalues --  -11.33831 -11.28280 -11.24583 -11.24412 -11.23561
 Alpha  occ. eigenvalues --   -1.40490  -1.38475  -1.25186  -1.22049  -1.06322
 Alpha  occ. eigenvalues --   -1.00217  -0.95087  -0.88191  -0.81389  -0.77772
 Alpha  occ. eigenvalues --   -0.71395  -0.69473  -0.67657  -0.62876  -0.62393
 Alpha  occ. eigenvalues --   -0.62340  -0.59638  -0.58811  -0.58361  -0.55770
 Alpha  occ. eigenvalues --   -0.55035  -0.54305  -0.53979  -0.52095  -0.49718
 Alpha  occ. eigenvalues --   -0.42991  -0.42512  -0.39719  -0.37872
 Alpha virt. eigenvalues --    0.18721   0.20227   0.20564   0.25377   0.25589
 Alpha virt. eigenvalues --    0.27738   0.29134   0.29524   0.29645   0.31843
 Alpha virt. eigenvalues --    0.32086   0.33036   0.34163   0.35007   0.37605

 Mulliken atomic charges:
              1
     1  H    0.216229
     2  C   -0.584473
     3  H    0.172006
     4  H    0.207625
     5  C    0.730884
     6  O   -0.600948
     7  N   -0.837435
     8  H    0.388638
     9  C    0.015709
    10  H    0.223855
    11  C   -0.526829
    12  H    0.177570
    13  H    0.218173
    14  H    0.171199
    15  C    0.767345
    16  O   -0.621370
    17  N   -0.772873
    18  H    0.389880
    19  C   -0.282964
    20  H    0.200419
    21  H    0.163429
    22  H    0.183930
 Sum of Mulliken atomic charges =   0.00000

 Dipole moment (field-independent basis, Debye):
    X=              3.9249    Y=              1.5679    Z=             -4.2900  Tot=              6.0222
 Quadrupole moment (field-independent basis, Debye-Ang):
   XX=            -59.5125   YY=            -56.6377   ZZ=            -63.8413
   XY=              5.6444   XZ=              1.2752   YZ=              2.6022

 Normal termination of Gaussian 09 at Fri Feb 10 20:48:30 2017.
