 Gaussian 09, Revision A.02,
 Gaussian 09:  EM64L-G09RevA.02 11-Jun-2009

 -------------------------------------------
 # HF/6-31G* Opt=(ModRedundant) geom=nocrowd
 -------------------------------------------

 ------------------
 Phi Psi fixed scan
 ------------------
 Symbolic Z-matrix:
 Charge =  0 Multiplicity = 1

 SCF Done:  E(RHF) =  -492.811407675     A.U. after   15 cycles
 SCF Done:  E(RHF) =  -492.836381151     A.U. after   14 cycles
 SCF Done:  E(RHF) =  -492.845567127     A.U. after   14 cycles
 SCF Done:  E(RHF) =  -492.849292547     A.U. after   13 cycles
 SCF Done:  E(RHF) =  -492.849810977     A.U. after   13 cycles
 SCF Done:  E(RHF) =  -492.851187459     A.U. after   12 cycles
 SCF Done:  E(RHF) =  -492.851633530     A.U. after   13 cycles
 SCF Done:  E(RHF) =  -492.851733574     A.U. after   13 cycles
 SCF Done:  E(RHF) =  -492.851835012     A.U. after   12 cycles
 SCF Done:  E(RHF) =  -492.851970255     A.U. after   12 cycles
 SCF Done:  E(RHF) =  -492.852484767     A.U. after   15 cycles
 SCF Done:  E(RHF) =  -492.852529972     A.U. after   12 cycles
 SCF Done:  E(RHF) =  -492.852580270     A.U. after   11 cycles
 SCF Done:  E(RHF) =  -492.852597062     A.U. after   11 cycles
 SCF Done:  E(RHF) =  -492.852601528     A.U. after   10 cycles
 SCF Done:  E(RHF) =  -492.852608139     A.U. after   11 cycles
 SCF Done:  E(RHF) =  -492.852610307     A.U. after   10 cycles
 SCF Done:  E(RHF) =  -492.852611160     A.U. after    9 cycles
 SCF Done:  E(RHF) =  -492.852611618     A.U. after    9 cycles
 SCF Done:  E(RHF) =  -492.852611773     A.U. after    8 cycles
 Optimization completed.
    -- Stationary point found.

                         Standard orientation:
 ---------------------------------------------------------------------
 Center     Atomic      Atomic             Coordinates (Angstroms)
 Number     Number       Type             X           Y           Z
 ---------------------------------------------------------------------
      1          1           0       -3.580225   -1.544204    0.406441
      2          6           0       -3.048792   -0.658878    0.722686
      3          1           0       -2.789290   -0.765876    1.771702
      4          1           0       -3.689460    0.209194    0.617713
      5          6           0       -1.779804   -0.533851   -0.092760
      6          8           0       -1.304794   -1.481740   -0.661901
      7          7           0       -1.263603    0.719006   -0.155431
      8          1           0       -1.700814    1.374164    0.454609
      9          6           0        0.099206    1.111779   -0.538265
     10          1           0        0.176005    0.979290   -1.612900
     11          6           0        0.276635    2.588020   -0.213969
     12          1           0        0.241338    2.755257    0.855522
     13          1           0        1.237709    2.936728   -0.565750
     14          1           0       -0.501501    3.168736   -0.698548
     15          6           0        1.242793    0.278145    0.083149
     16          8           0        1.948732    0.758540    0.931903
     17          7           0        1.440327   -0.950443   -0.421157
     18          1           0        0.676890   -1.370677   -0.904256
     19          6           0        2.445876   -1.818740    0.152229
     20          1           0        3.404812   -1.320652    0.158679
     21          1           0        2.204701   -2.104875    1.170899
     22          1           0        2.515788   -2.710274   -0.456435
 ---------------------------------------------------------------------

 The electronic state is 1-A.
 Alpha  occ. eigenvalues --  -20.54087 -20.51813 -15.60069 -15.56623 -11.36507
 Alpha  occ. eigenvalues --  -11.33748 -11.28628 -11.24501 -11.24314 -11.22676
 Alpha  occ. eigenvalues --   -1.40800  -1.38473  -1.25115  -1.21965  -1.06159
 Alpha  occ. eigenvalues --   -1.00011  -0.95478  -0.87390  -0.81145  -0.77061
 Alpha  occ. eigenvalues --   -0.72044  -0.69465  -0.67494  -0.63731  -0.62450
 Alpha  occ. eigenvalues --   -0.61462  -0.60059  -0.59314  -0.57995  -0.54713
 Alpha  occ. eigenvalues --   -0.54572  -0.53739  -0.52843  -0.52022  -0.50961
 Alpha  occ. eigenvalues --   -0.44527  -0.43177  -0.39137  -0.37311
 Alpha virt. eigenvalues --    0.18486   0.19507   0.22042   0.24953   0.26582
 Alpha virt. eigenvalues --    0.27848   0.28669   0.29831   0.30665   0.31812
 Alpha virt. eigenvalues --    0.32395   0.32599   0.34674   0.35408   0.39471

 Mulliken atomic charges:
              1
     1  H    0.219396
     2  C   -0.594290
     3  H    0.202762
     4  H    0.184263
     5  C    0.763703
     6  O   -0.626815
     7  N   -0.808817
     8  H    0.387439
     9  C   -0.017352
    10  H    0.204513
    11  C   -0.504472
    12  H    0.190299
    13  H    0.199722
    14  H    0.168711
    15  C    0.743309
    16  O   -0.619424
    17  N   -0.797604
    18  H    0.444377
    19  C   -0.274529
    20  H    0.193254
    21  H    0.171548
    22  H    0.170006
 Sum of Mulliken atomic charges =   0.00000

 Dipole moment (field-independent basis, Debye):
    X=             -3.0320    Y=              0.9560    Z=             -0.0367  Tot=              3.1794
 Quadrupole moment (field-independent basis, Debye-Ang):
   XX=            -58.5891   YY=            -59.4353   ZZ=            -62.3579
   XY=             -7.5343   XZ=             -8.1194   YZ=             -3.4373

 Normal termination of Gaussian 09 at Fri Feb 10 19:47:43 2017.
