 Gaussian 09, Revision A.02,
 Gaussian 09:  EM64L-G09RevA.02 11-Jun-2009

 -------------------------------------------
 # HF/6-31G* Opt=(ModRedundant) geom=nocrowd
 -------------------------------------------

 ------------------
 Phi Psi fixed scan
 ------------------
 Symbolic Z-matrix:
 Charge =  0 Multiplicity = 1

 SCF Done:  E(RHF) =  -492.768404223     A.U. after   16 cycles
 SCF Done:  E(RHF) =  -492.814554303     A.U. after   14 cycles
 SCF Done:  E(RHF) =  -492.823531589     A.U. after   14 cycles
 SCF Done:  E(RHF) =  -492.828325884     A.U. after   13 cycles
 SCF Done:  E(RHF) =  -492.831587335     A.U. after   14 cycles
 SCF Done:  E(RHF) =  -492.834904370     A.U. after   16 cycles
 SCF Done:  E(RHF) =  -492.835786714     A.U. after   14 cycles
 SCF Done:  E(RHF) =  -492.836587121     A.U. after   16 cycles
 SCF Done:  E(RHF) =  -492.836549505     A.U. after   16 cycles
 SCF Done:  E(RHF) =  -492.836822231     A.U. after   12 cycles
 SCF Done:  E(RHF) =  -492.837300335     A.U. after   12 cycles
 SCF Done:  E(RHF) =  -492.837373532     A.U. after   11 cycles
 SCF Done:  E(RHF) =  -492.837037104     A.U. after   15 cycles
 SCF Done:  E(RHF) =  -492.837527623     A.U. after   13 cycles
 SCF Done:  E(RHF) =  -492.837541814     A.U. after   11 cycles
 SCF Done:  E(RHF) =  -492.837561004     A.U. after   11 cycles
 SCF Done:  E(RHF) =  -492.837564259     A.U. after   11 cycles
 SCF Done:  E(RHF) =  -492.837565297     A.U. after   10 cycles
 SCF Done:  E(RHF) =  -492.837566129     A.U. after    9 cycles
 SCF Done:  E(RHF) =  -492.837566270     A.U. after    8 cycles
 Optimization completed.
    -- Stationary point found.

                         Standard orientation:
 ---------------------------------------------------------------------
 Center     Atomic      Atomic             Coordinates (Angstroms)
 Number     Number       Type             X           Y           Z
 ---------------------------------------------------------------------
      1          1           0        3.575095   -1.409989   -0.647828
      2          6           0        2.831196   -0.711173   -1.000496
      3          1           0        2.176068   -1.213929   -1.704931
      4          1           0        3.318567    0.112200   -1.513591
      5          6           0        2.009969   -0.228981    0.172067
      6          8           0        2.064288   -0.730823    1.250055
      7          7           0        1.254540    0.918258   -0.072487
      8          1           0        1.308624    1.182206   -1.035577
      9          6           0       -0.119222    1.036997    0.395807
     10          1           0       -0.079387    1.127374    1.477252
     11          6           0       -0.699820    2.333319   -0.171539
     12          1           0       -0.874878    2.259902   -1.240514
     13          1           0       -1.633788    2.607729    0.304737
     14          1           0        0.000923    3.138766    0.009060
     15          6           0       -0.954242   -0.233530    0.130240
     16          8           0       -0.451961   -1.314119    0.007538
     17          7           0       -2.282328   -0.047576   -0.070674
     18          1           0       -2.693323    0.818506    0.184682
     19          6           0       -3.168730   -1.185942   -0.212303
     20          1           0       -2.792611   -1.844831   -0.980470
     21          1           0       -3.257387   -1.751018    0.709213
     22          1           0       -4.146915   -0.826284   -0.503304
 ---------------------------------------------------------------------

 The electronic state is 1-A.
 Alpha  occ. eigenvalues --  -20.52797 -20.51363 -15.59080 -15.57490 -11.34884
 Alpha  occ. eigenvalues --  -11.33660 -11.28656 -11.26031 -11.24382 -11.22139
 Alpha  occ. eigenvalues --   -1.40140  -1.37913  -1.23779  -1.22928  -1.05593
 Alpha  occ. eigenvalues --   -0.98710  -0.95929  -0.88753  -0.79527  -0.77894
 Alpha  occ. eigenvalues --   -0.71998  -0.66819  -0.66227  -0.64330  -0.62701
 Alpha  occ. eigenvalues --   -0.61507  -0.59384  -0.57977  -0.57208  -0.56391
 Alpha  occ. eigenvalues --   -0.55655  -0.55083  -0.53672  -0.50973  -0.49077
 Alpha  occ. eigenvalues --   -0.44338  -0.40786  -0.39555  -0.37724
 Alpha virt. eigenvalues --    0.18569   0.20303   0.21792   0.23317   0.25985
 Alpha virt. eigenvalues --    0.27497   0.28468   0.29425   0.30487   0.31462
 Alpha virt. eigenvalues --    0.32040   0.32886   0.33895   0.34875   0.38006

 Mulliken atomic charges:
              1
     1  H    0.213006
     2  C   -0.603195
     3  H    0.203097
     4  H    0.172700
     5  C    0.775614
     6  O   -0.570879
     7  N   -0.772499
     8  H    0.358118
     9  C   -0.056048
    10  H    0.226762
    11  C   -0.519443
    12  H    0.176888
    13  H    0.165077
    14  H    0.204948
    15  C    0.760234
    16  O   -0.600225
    17  N   -0.797618
    18  H    0.385257
    19  C   -0.274836
    20  H    0.204930
    21  H    0.181005
    22  H    0.167107
 Sum of Mulliken atomic charges =   0.00000

 Dipole moment (field-independent basis, Debye):
    X=             -3.6482    Y=              3.8319    Z=             -2.9554  Tot=              6.0603
 Quadrupole moment (field-independent basis, Debye-Ang):
   XX=            -52.2993   YY=            -62.0204   ZZ=            -61.9802
   XY=              0.1325   XZ=             -8.8679   YZ=              2.3804

 Normal termination of Gaussian 09 at Fri Feb 10 20:11:43 2017.
