 Gaussian 09, Revision A.02,
 Gaussian 09:  EM64L-G09RevA.02 11-Jun-2009

 -------------------------------------------
 # HF/6-31G* Opt=(ModRedundant) geom=nocrowd
 -------------------------------------------

 ------------------
 Phi Psi fixed scan
 ------------------
 Symbolic Z-matrix:
 Charge =  0 Multiplicity = 1

 SCF Done:  E(RHF) =  -492.827504734     A.U. after   15 cycles
 SCF Done:  E(RHF) =  -492.840370324     A.U. after   14 cycles
 SCF Done:  E(RHF) =  -492.842802719     A.U. after   14 cycles
 SCF Done:  E(RHF) =  -492.843332319     A.U. after   13 cycles
 SCF Done:  E(RHF) =  -492.843758806     A.U. after   13 cycles
 SCF Done:  E(RHF) =  -492.843967299     A.U. after   13 cycles
 SCF Done:  E(RHF) =  -492.844207958     A.U. after   13 cycles
 SCF Done:  E(RHF) =  -492.844442772     A.U. after   12 cycles
 SCF Done:  E(RHF) =  -492.844711138     A.U. after   13 cycles
 SCF Done:  E(RHF) =  -492.844853120     A.U. after   13 cycles
 SCF Done:  E(RHF) =  -492.845369109     A.U. after   12 cycles
 SCF Done:  E(RHF) =  -492.845411873     A.U. after   12 cycles
 SCF Done:  E(RHF) =  -492.845425376     A.U. after   12 cycles
 SCF Done:  E(RHF) =  -492.845433272     A.U. after   11 cycles
 SCF Done:  E(RHF) =  -492.845440635     A.U. after   12 cycles
 SCF Done:  E(RHF) =  -492.845441489     A.U. after    9 cycles
 SCF Done:  E(RHF) =  -492.845441730     A.U. after    8 cycles
 SCF Done:  E(RHF) =  -492.845441903     A.U. after    8 cycles
 SCF Done:  E(RHF) =  -492.845442218     A.U. after    9 cycles
 SCF Done:  E(RHF) =  -492.845442313     A.U. after    8 cycles
 Optimization completed.
    -- Stationary point found.

                         Standard orientation:
 ---------------------------------------------------------------------
 Center     Atomic      Atomic             Coordinates (Angstroms)
 Number     Number       Type             X           Y           Z
 ---------------------------------------------------------------------
      1          1           0        3.538788   -1.609703   -0.597682
      2          6           0        3.260468   -0.571666   -0.490290
      3          1           0        3.380267   -0.061054   -1.439575
      4          1           0        3.926299   -0.107488    0.231151
      5          6           0        1.837059   -0.497905    0.022870
      6          8           0        1.305821   -1.418864    0.570690
      7          7           0        1.212761    0.692735   -0.197881
      8          1           0        1.772519    1.428221   -0.567578
      9          6           0       -0.032572    1.115202    0.433873
     10          1           0        0.146480    1.304201    1.485789
     11          6           0       -0.520999    2.404104   -0.222934
     12          1           0       -0.683506    2.280271   -1.287136
     13          1           0       -1.451482    2.725007    0.228994
     14          1           0        0.208745    3.195871   -0.079559
     15          6           0       -1.112725    0.022369    0.453100
     16          8           0       -1.502477   -0.427752    1.488824
     17          7           0       -1.733144   -0.218188   -0.734047
     18          1           0       -1.199433   -0.031628   -1.553963
     19          6           0       -2.693998   -1.300070   -0.830370
     20          1           0       -3.448731   -1.174236   -0.069047
     21          1           0       -3.166028   -1.258098   -1.803641
     22          1           0       -2.231385   -2.272463   -0.697862
 ---------------------------------------------------------------------

 The electronic state is 1-A.
 Alpha  occ. eigenvalues --  -20.52850 -20.51540 -15.59401 -15.57521 -11.35339
 Alpha  occ. eigenvalues --  -11.33662 -11.28189 -11.24689 -11.23881 -11.23820
 Alpha  occ. eigenvalues --   -1.39940  -1.38345  -1.24658  -1.22012  -1.06155
 Alpha  occ. eigenvalues --   -0.99834  -0.94859  -0.88424  -0.80799  -0.77276
 Alpha  occ. eigenvalues --   -0.70065  -0.69520  -0.67280  -0.63060  -0.62325
 Alpha  occ. eigenvalues --   -0.61807  -0.59456  -0.58163  -0.58135  -0.55798
 Alpha  occ. eigenvalues --   -0.55075  -0.54571  -0.53980  -0.51298  -0.50608
 Alpha  occ. eigenvalues --   -0.42386  -0.41285  -0.39307  -0.38264
 Alpha virt. eigenvalues --    0.19235   0.20262   0.20984   0.23714   0.25884
 Alpha virt. eigenvalues --    0.27757   0.28229   0.29585   0.29880   0.31401
 Alpha virt. eigenvalues --    0.32348   0.33160   0.34461   0.35215   0.37789

 Mulliken atomic charges:
              1
     1  H    0.218581
     2  C   -0.590889
     3  H    0.175567
     4  H    0.198504
     5  C    0.743689
     6  O   -0.580000
     7  N   -0.823824
     8  H    0.380022
     9  C   -0.032587
    10  H    0.219590
    11  C   -0.502302
    12  H    0.169660
    13  H    0.200555
    14  H    0.167455
    15  C    0.783757
    16  O   -0.595726
    17  N   -0.772935
    18  H    0.374650
    19  C   -0.282979
    20  H    0.203687
    21  H    0.162943
    22  H    0.182583
 Sum of Mulliken atomic charges =   0.00000

 Dipole moment (field-independent basis, Debye):
    X=              2.3807    Y=              3.8340    Z=             -4.6475  Tot=              6.4781
 Quadrupole moment (field-independent basis, Debye-Ang):
   XX=            -53.1452   YY=            -60.1224   ZZ=            -63.3980
   XY=              4.1002   XZ=              3.0346   YZ=              4.7998

 Normal termination of Gaussian 09 at Fri Feb 10 20:39:53 2017.
