 Gaussian 09, Revision A.02,
 Gaussian 09:  EM64L-G09RevA.02 11-Jun-2009

 -------------------------------------------
 # HF/6-31G* Opt=(ModRedundant) geom=nocrowd
 -------------------------------------------

 ------------------
 Phi Psi fixed scan
 ------------------
 Symbolic Z-matrix:
 Charge =  0 Multiplicity = 1

 SCF Done:  E(RHF) =  -492.675913945     A.U. after   15 cycles
 SCF Done:  E(RHF) =  -492.764125393     A.U. after   13 cycles
 SCF Done:  E(RHF) =  -492.806370091     A.U. after   14 cycles
 SCF Done:  E(RHF) =  -492.815767887     A.U. after   13 cycles
 SCF Done:  E(RHF) =  -492.827028060     A.U. after   13 cycles
 SCF Done:  E(RHF) =  -492.834668081     A.U. after   13 cycles
 SCF Done:  E(RHF) =  -492.845394218     A.U. after   13 cycles
 SCF Done:  E(RHF) =  -492.847738253     A.U. after   13 cycles
 SCF Done:  E(RHF) =  -492.848606045     A.U. after   13 cycles
 SCF Done:  E(RHF) =  -492.849230000     A.U. after   13 cycles
 SCF Done:  E(RHF) =  -492.850755852     A.U. after   14 cycles
 SCF Done:  E(RHF) =  -492.850796683     A.U. after   11 cycles
 SCF Done:  E(RHF) =  -492.850819169     A.U. after   12 cycles
 SCF Done:  E(RHF) =  -492.850830077     A.U. after   11 cycles
 SCF Done:  E(RHF) =  -492.850832332     A.U. after   10 cycles
 SCF Done:  E(RHF) =  -492.850832850     A.U. after   10 cycles
 SCF Done:  E(RHF) =  -492.850833248     A.U. after    8 cycles
 SCF Done:  E(RHF) =  -492.850833469     A.U. after    8 cycles
 SCF Done:  E(RHF) =  -492.850833554     A.U. after    8 cycles
 SCF Done:  E(RHF) =  -492.850833580     A.U. after    7 cycles
 Optimization completed.
    -- Stationary point found.

                         Standard orientation:
 ---------------------------------------------------------------------
 Center     Atomic      Atomic             Coordinates (Angstroms)
 Number     Number       Type             X           Y           Z
 ---------------------------------------------------------------------
      1          1           0       -3.771078   -1.264951    0.251908
      2          6           0       -3.141245   -0.493421    0.669634
      3          1           0       -2.916032   -0.753296    1.699629
      4          1           0       -3.669950    0.452588    0.663820
      5          6           0       -1.849010   -0.442256   -0.118151
      6          8           0       -1.462669   -1.402595   -0.735335
      7          7           0       -1.217340    0.754042   -0.091659
      8          1           0       -1.626985    1.411842    0.533378
      9          6           0        0.158706    1.117242   -0.464311
     10          1           0        0.211944    1.078763   -1.549867
     11          6           0        0.381188    2.561552   -0.030353
     12          1           0        0.364039    2.648726    1.050899
     13          1           0        1.343012    2.911082   -0.370534
     14          1           0       -0.393601    3.194558   -0.450833
     15          6           0        1.330021    0.224114    0.006382
     16          8           0        2.337117    0.755137    0.402942
     17          7           0        1.216588   -1.102488   -0.105050
     18          1           0        0.387023   -1.492543   -0.495022
     19          6           0        2.328512   -1.964789    0.229238
     20          1           0        2.651281   -1.799080    1.248826
     21          1           0        2.005599   -2.991765    0.123796
     22          1           0        3.175393   -1.791796   -0.424531
 ---------------------------------------------------------------------

 The electronic state is 1-A.
 Alpha  occ. eigenvalues --  -20.54156 -20.51346 -15.60342 -15.56507 -11.36798
 Alpha  occ. eigenvalues --  -11.33787 -11.28937 -11.24550 -11.24485 -11.22652
 Alpha  occ. eigenvalues --   -1.40912  -1.38260  -1.25363  -1.21838  -1.06287
 Alpha  occ. eigenvalues --   -1.00078  -0.95494  -0.87644  -0.81430  -0.77601
 Alpha  occ. eigenvalues --   -0.72117  -0.69583  -0.67607  -0.63546  -0.62472
 Alpha  occ. eigenvalues --   -0.61320  -0.59956  -0.59542  -0.58192  -0.55108
 Alpha  occ. eigenvalues --   -0.54444  -0.53512  -0.53293  -0.52494  -0.50281
 Alpha  occ. eigenvalues --   -0.44426  -0.43070  -0.38769  -0.37491
 Alpha virt. eigenvalues --    0.18130   0.19900   0.21991   0.25365   0.26676
 Alpha virt. eigenvalues --    0.27981   0.28739   0.29646   0.30587   0.31679
 Alpha virt. eigenvalues --    0.32473   0.32743   0.34717   0.35716   0.39438

 Mulliken atomic charges:
              1
     1  H    0.220227
     2  C   -0.592328
     3  H    0.203379
     4  H    0.182172
     5  C    0.772976
     6  O   -0.638177
     7  N   -0.821154
     8  H    0.389831
     9  C   -0.018262
    10  H    0.212495
    11  C   -0.506831
    12  H    0.175665
    13  H    0.219933
    14  H    0.166540
    15  C    0.758689
    16  O   -0.627255
    17  N   -0.833927
    18  H    0.469198
    19  C   -0.266068
    20  H    0.184815
    21  H    0.168809
    22  H    0.179272
 Sum of Mulliken atomic charges =   0.00000

 Dipole moment (field-independent basis, Debye):
    X=             -3.5501    Y=              0.9326    Z=              0.9618  Tot=              3.7945
 Quadrupole moment (field-independent basis, Debye-Ang):
   XX=            -62.6127   YY=            -58.8726   ZZ=            -60.6114
   XY=             -8.7635   XZ=             -6.8183   YZ=             -2.7415

 Normal termination of Gaussian 09 at Fri Feb 10 19:41:00 2017.
