 Gaussian 09, Revision A.02,
 Gaussian 09:  EM64L-G09RevA.02 11-Jun-2009

 -------------------------------------------
 # HF/6-31G* Opt=(ModRedundant) geom=nocrowd
 -------------------------------------------

 ------------------
 Phi Psi fixed scan
 ------------------
 Symbolic Z-matrix:
 Charge =  0 Multiplicity = 1

 SCF Done:  E(RHF) =  -492.790861607     A.U. after   15 cycles
 SCF Done:  E(RHF) =  -492.833576251     A.U. after   15 cycles
 SCF Done:  E(RHF) =  -492.841483736     A.U. after   14 cycles
 SCF Done:  E(RHF) =  -492.847787722     A.U. after   13 cycles
 SCF Done:  E(RHF) =  -492.848401208     A.U. after   13 cycles
 SCF Done:  E(RHF) =  -492.849137391     A.U. after   13 cycles
 SCF Done:  E(RHF) =  -492.849322526     A.U. after   13 cycles
 SCF Done:  E(RHF) =  -492.849414954     A.U. after   13 cycles
 SCF Done:  E(RHF) =  -492.849625770     A.U. after   12 cycles
 SCF Done:  E(RHF) =  -492.850013680     A.U. after   13 cycles
 SCF Done:  E(RHF) =  -492.850620586     A.U. after   11 cycles
 SCF Done:  E(RHF) =  -492.850637559     A.U. after   12 cycles
 SCF Done:  E(RHF) =  -492.850653875     A.U. after   11 cycles
 SCF Done:  E(RHF) =  -492.850670847     A.U. after   11 cycles
 SCF Done:  E(RHF) =  -492.850675740     A.U. after   11 cycles
 SCF Done:  E(RHF) =  -492.850675859     A.U. after   11 cycles
 SCF Done:  E(RHF) =  -492.850682006     A.U. after   10 cycles
 SCF Done:  E(RHF) =  -492.850682236     A.U. after    8 cycles
 SCF Done:  E(RHF) =  -492.850682261     A.U. after    8 cycles
 SCF Done:  E(RHF) =  -492.850682261     A.U. after    7 cycles
 Optimization completed.
    -- Stationary point found.

                         Standard orientation:
 ---------------------------------------------------------------------
 Center     Atomic      Atomic             Coordinates (Angstroms)
 Number     Number       Type             X           Y           Z
 ---------------------------------------------------------------------
      1          1           0       -3.848349   -1.124007   -0.170063
      2          6           0       -3.223228   -0.495536    0.447732
      3          1           0       -3.112946   -0.973797    1.416076
      4          1           0       -3.702223    0.465578    0.591906
      5          6           0       -1.859575   -0.384262   -0.201420
      6          8           0       -1.411834   -1.281927   -0.869983
      7          7           0       -1.203361    0.770316    0.034860
      8          1           0       -1.645638    1.394559    0.670083
      9          6           0        0.154811    1.158317   -0.347169
     10          1           0        0.157932    1.354730   -1.414045
     11          6           0        0.481140    2.465584    0.378005
     12          1           0        0.499636    2.314449    1.453534
     13          1           0        1.448525    2.825645    0.065615
     14          1           0       -0.264883    3.219268    0.145887
     15          6           0        1.333305    0.183954   -0.159127
     16          8           0        2.422960    0.604067   -0.448458
     17          7           0        1.138701   -1.043102    0.359835
     18          1           0        0.250660   -1.458431    0.190393
     19          6           0        2.266847   -1.949881    0.447522
     20          1           0        3.062860   -1.491126    1.015369
     21          1           0        1.943244   -2.848140    0.956731
     22          1           0        2.654997   -2.215409   -0.530085
 ---------------------------------------------------------------------

 The electronic state is 1-A.
 Alpha  occ. eigenvalues --  -20.53798 -20.51666 -15.60301 -15.56813 -11.36613
 Alpha  occ. eigenvalues --  -11.34068 -11.28804 -11.24531 -11.24453 -11.23168
 Alpha  occ. eigenvalues --   -1.40765  -1.38647  -1.25402  -1.21957  -1.06391
 Alpha  occ. eigenvalues --   -1.00212  -0.95117  -0.88065  -0.81620  -0.77540
 Alpha  occ. eigenvalues --   -0.71838  -0.69659  -0.67647  -0.63470  -0.62364
 Alpha  occ. eigenvalues --   -0.62289  -0.59591  -0.58967  -0.58333  -0.55405
 Alpha  occ. eigenvalues --   -0.54847  -0.54197  -0.53694  -0.52305  -0.49618
 Alpha  occ. eigenvalues --   -0.43616  -0.43042  -0.39734  -0.37799
 Alpha virt. eigenvalues --    0.18170   0.19997   0.20879   0.25660   0.26485
 Alpha virt. eigenvalues --    0.28357   0.28706   0.29525   0.30943   0.31424
 Alpha virt. eigenvalues --    0.32768   0.32959   0.35052   0.35339   0.38120

 Mulliken atomic charges:
              1
     1  H    0.219913
     2  C   -0.587007
     3  H    0.203444
     4  H    0.177809
     5  C    0.755984
     6  O   -0.631745
     7  N   -0.830123
     8  H    0.391749
     9  C    0.017475
    10  H    0.221298
    11  C   -0.529778
    12  H    0.172331
    13  H    0.232824
    14  H    0.168802
    15  C    0.755005
    16  O   -0.622380
    17  N   -0.811639
    18  H    0.438230
    19  C   -0.279863
    20  H    0.193375
    21  H    0.166408
    22  H    0.177889
 Sum of Mulliken atomic charges =   0.00000

 Dipole moment (field-independent basis, Debye):
    X=             -3.9486    Y=              1.1971    Z=              2.7615  Tot=              4.9649
 Quadrupole moment (field-independent basis, Debye-Ang):
   XX=            -62.3172   YY=            -57.3889   ZZ=            -61.8928
   XY=             -7.4830   XZ=             -1.6427   YZ=             -1.8359

 Normal termination of Gaussian 09 at Fri Feb 10 19:25:48 2017.
