 Gaussian 09, Revision A.02,
 Gaussian 09:  EM64L-G09RevA.02 11-Jun-2009

 -------------------
 #SP MP2/aug-cc-pVDZ
 -------------------

 -------------------------------
 Single Point calculation at MP2
 -------------------------------
 Symbolic Z-matrix:
 Charge =  0 Multiplicity = 1

                         Standard orientation:
 ---------------------------------------------------------------------
 Center     Atomic      Atomic             Coordinates (Angstroms)
 Number     Number       Type             X           Y           Z
 ---------------------------------------------------------------------
      1          1           0        4.185094   -0.795700   -0.093803
      2          6           0        3.212894   -0.959200   -0.565403
      3          1           0        3.030595   -2.039801   -0.581103
      4          1           0        3.242494   -0.594100   -1.596503
      5          6           0        2.139894   -0.289301    0.278797
      6          8           0        2.142494   -0.349701    1.502197
      7          7           0        1.188793    0.404998   -0.433903
      8          1           0        1.079693    0.169698   -1.414603
      9          6           0       -0.047307    0.836297    0.200197
     10          1           0        0.111593    0.726398    1.276897
     11          6           0       -0.368108    2.300797   -0.140703
     12          1           0       -0.504608    2.421697   -1.221003
     13          1           0       -1.288408    2.627097    0.356497
     14          1           0        0.453892    2.946698    0.181397
     15          6           0       -1.189906   -0.078803   -0.278503
     16          8           0       -1.187306   -0.547703   -1.413603
     17          7           0       -2.203006   -0.259804    0.612197
     18          1           0       -2.077306    0.084296    1.553797
     19          6           0       -3.374606   -1.068805    0.319797
     20          1           0       -3.337106   -1.326305   -0.739303
     21          1           0       -3.380805   -1.992905    0.910297
     22          1           0       -4.294306   -0.510105    0.525497
 ---------------------------------------------------------------------

 SCF Done:  E(RHF) =  -492.927758273     A.U. after   14 cycles
 E2 =    -0.1599819754D+01 EUMP2 =    -0.49452757802738D+03

 The electronic state is 1-A.
 Alpha  occ. eigenvalues --  -20.53822 -20.53028 -15.60421 -15.59014 -11.36522
 Alpha  occ. eigenvalues --  -11.36167 -11.29035 -11.27376 -11.24361 -11.24094
 Alpha  occ. eigenvalues --   -1.39350  -1.38170  -1.24118  -1.23517  -1.05558
 Alpha  occ. eigenvalues --   -0.99125  -0.96287  -0.87713  -0.80182  -0.78495
 Alpha  occ. eigenvalues --   -0.73212  -0.67481  -0.66009  -0.63730  -0.62901
 Alpha  occ. eigenvalues --   -0.61931  -0.60122  -0.58479  -0.57502  -0.56543
 Alpha  occ. eigenvalues --   -0.55293  -0.53903  -0.52691  -0.51826  -0.50018
 Alpha  occ. eigenvalues --   -0.43625  -0.42494  -0.40297  -0.39178
 Alpha virt. eigenvalues --    0.02991   0.03882   0.04301   0.04778   0.05586
 Alpha virt. eigenvalues --    0.06102   0.06170   0.07194   0.07256   0.07733
 Alpha virt. eigenvalues --    0.09326   0.09493   0.10848   0.11998   0.12596

 Mulliken atomic charges:
              1
     1  H    0.013383
     2  C    0.375634
     3  H    0.058919
     4  H   -0.118479
     5  C    0.598927
     6  O   -0.857284
     7  N   -0.408927
     8  H   -0.027818
     9  C   -0.237715
    10  H   -0.162260
    11  C    0.805577
    12  H   -0.017292
    13  H   -0.045656
    14  H   -0.058820
    15  C    1.221196
    16  O   -0.882470
    17  N   -0.499126
    18  H   -0.111687
    19  C    0.702145
    20  H   -0.141345
    21  H   -0.083884
    22  H   -0.123019
 Sum of Mulliken atomic charges =   0.00000

 Dipole moment (field-independent basis, Debye):
    X=             -1.8323    Y=              0.9983    Z=             -0.0528  Tot=              2.0873
 Quadrupole moment (field-independent basis, Debye-Ang):
   XX=            -54.4712   YY=            -59.5314   ZZ=            -67.3378
   XY=             -0.8397   XZ=            -14.2563   YZ=              0.2981

 Normal termination of Gaussian 09 at Mon Feb 13 09:33:48 2017.
