 Gaussian 09, Revision A.02,
 Gaussian 09:  EM64L-G09RevA.02 11-Jun-2009

 -------------------
 #SP MP2/aug-cc-pVDZ
 -------------------

 -------------------------------
 Single Point calculation at MP2
 -------------------------------
 Symbolic Z-matrix:
 Charge =  0 Multiplicity = 1

                         Standard orientation:
 ---------------------------------------------------------------------
 Center     Atomic      Atomic             Coordinates (Angstroms)
 Number     Number       Type             X           Y           Z
 ---------------------------------------------------------------------
      1          1           0        3.472502   -1.830203   -0.191799
      2          6           0        3.194506   -0.844901   -0.574799
      3          1           0        2.988906   -0.919700   -1.647499
      4          1           0        4.055209   -0.182805   -0.428899
      5          6           0        2.022309   -0.315496    0.239101
      6          8           0        1.989709   -0.387996    1.458301
      7          7           0        1.002711    0.249008   -0.497899
      8          1           0        1.161512    0.401708   -1.485499
      9          6           0       -0.089385    0.995313    0.125201
     10          1           0        0.205915    1.140212    1.169601
     11          6           0       -0.288079    2.358514   -0.546099
     12          1           0       -0.509480    2.245215   -1.615499
     13          1           0       -1.134177    2.868218   -0.081099
     14          1           0        0.609524    2.975910   -0.439399
     15          6           0       -1.433089    0.235419    0.185901
     16          8           0       -2.420286    0.781124    0.666701
     17          7           0       -1.435394   -1.018381   -0.340899
     18          1           0       -0.542196   -1.399185   -0.619199
     19          6           0       -2.594998   -1.888076   -0.269799
     20          1           0       -3.442295   -1.277972    0.046601
     21          1           0       -2.810200   -2.328375   -1.249899
     22          1           0       -2.449402   -2.697076    0.457101
 ---------------------------------------------------------------------

 SCF Done:  E(RHF) =  -492.925092192     A.U. after   14 cycles
 E2 =    -0.1601629844D+01 EUMP2 =    -0.49452672203645D+03

 The electronic state is 1-A.
 Alpha  occ. eigenvalues --  -20.54272 -20.52517 -15.61020 -15.59377 -11.37588
 Alpha  occ. eigenvalues --  -11.35620 -11.29239 -11.26671 -11.25949 -11.23986
 Alpha  occ. eigenvalues --   -1.39769  -1.37981  -1.25467  -1.22604  -1.05921
 Alpha  occ. eigenvalues --   -1.00053  -0.96077  -0.87824  -0.81012  -0.78532
 Alpha  occ. eigenvalues --   -0.73001  -0.68545  -0.67228  -0.63375  -0.62333
 Alpha  occ. eigenvalues --   -0.62236  -0.59881  -0.59361  -0.58277  -0.56014
 Alpha  occ. eigenvalues --   -0.54749  -0.54444  -0.53141  -0.52062  -0.49751
 Alpha  occ. eigenvalues --   -0.44496  -0.43531  -0.39584  -0.38917
 Alpha virt. eigenvalues --    0.02169   0.03664   0.04106   0.04574   0.05577
 Alpha virt. eigenvalues --    0.06106   0.06301   0.06509   0.07269   0.08022
 Alpha virt. eigenvalues --    0.08488   0.09368   0.11594   0.11947   0.12312

 Mulliken atomic charges:
              1
     1  H    0.029781
     2  C    0.338535
     3  H   -0.154993
     4  H    0.048958
     5  C    0.613712
     6  O   -0.855710
     7  N   -0.331787
     8  H   -0.049736
     9  C   -0.409235
    10  H    0.033699
    11  C    0.816218
    12  H   -0.057935
    13  H   -0.035761
    14  H   -0.048487
    15  C    1.137257
    16  O   -0.877309
    17  N   -0.525512
    18  H   -0.069163
    19  C    0.729165
    20  H   -0.145025
    21  H   -0.110700
    22  H   -0.075972
 Sum of Mulliken atomic charges =   0.00000

 Dipole moment (field-independent basis, Debye):
    X=              2.7265    Y=             -1.4474    Z=             -5.2128  Tot=              6.0583
 Quadrupole moment (field-independent basis, Debye-Ang):
   XX=            -65.6925   YY=            -56.6156   ZZ=            -65.3155
   XY=              6.0821   XZ=             -4.4073   YZ=              0.7728

 Normal termination of Gaussian 09 at Mon Feb 13 09:32:36 2017.
