 Gaussian 09, Revision A.02,
 Gaussian 09:  EM64L-G09RevA.02 11-Jun-2009

 -------------------
 #SP MP2/aug-cc-pVDZ
 -------------------

 -------------------------------
 Single Point calculation at MP2
 -------------------------------
 Symbolic Z-matrix:
 Charge =  0 Multiplicity = 1

                         Standard orientation:
 ---------------------------------------------------------------------
 Center     Atomic      Atomic             Coordinates (Angstroms)
 Number     Number       Type             X           Y           Z
 ---------------------------------------------------------------------
      1          1           0        4.069208   -0.870309   -0.774092
      2          6           0        3.010908   -1.069808   -0.955692
      3          1           0        2.827307   -2.128308   -0.736692
      4          1           0        2.782808   -0.890008   -2.011592
      5          6           0        2.182209   -0.216407   -0.006692
      6          8           0        2.544109    0.035592    1.132008
      7          7           0        1.002109    0.258894   -0.538592
      8          1           0        0.715309   -0.099906   -1.440092
      9          6           0       -0.034890    0.861095    0.298008
     10          1           0        0.412810    0.942494    1.290608
     11          6           0       -0.422789    2.255095   -0.209292
     12          1           0       -0.746989    2.243796   -1.258792
     13          1           0       -1.227588    2.686496    0.396608
     14          1           0        0.444712    2.918994   -0.151292
     15          6           0       -1.195791   -0.147304    0.456008
     16          8           0       -1.173392   -1.009404    1.322608
     17          7           0       -2.184491   -0.068503   -0.491192
     18          1           0       -2.222390    0.749097   -1.082092
     19          6           0       -3.345492   -0.943402   -0.466092
     20          1           0       -3.102693   -1.790902    0.175908
     21          1           0       -4.230491   -0.437001   -0.059592
     22          1           0       -3.575992   -1.302302   -1.474792
 ---------------------------------------------------------------------

 SCF Done:  E(RHF) =  -492.917097953     A.U. after   14 cycles
 E2 =    -0.1601420314D+01 EUMP2 =    -0.49451851826711D+03

 The electronic state is 1-A.
 Alpha  occ. eigenvalues --  -20.53349 -20.52981 -15.60239 -15.60017 -11.36339
 Alpha  occ. eigenvalues --  -11.36230 -11.29146 -11.27297 -11.24926 -11.24724
 Alpha  occ. eigenvalues --   -1.38991  -1.38219  -1.24519  -1.23183  -1.05853
 Alpha  occ. eigenvalues --   -0.99404  -0.95939  -0.88871  -0.79798  -0.79399
 Alpha  occ. eigenvalues --   -0.72933  -0.67464  -0.65730  -0.64891  -0.62751
 Alpha  occ. eigenvalues --   -0.61661  -0.59345  -0.58751  -0.57778  -0.56740
 Alpha  occ. eigenvalues --   -0.55360  -0.54728  -0.52637  -0.51800  -0.50594
 Alpha  occ. eigenvalues --   -0.44209  -0.42315  -0.39836  -0.38868
 Alpha virt. eigenvalues --    0.02233   0.03608   0.03938   0.04600   0.05546
 Alpha virt. eigenvalues --    0.05896   0.06214   0.06553   0.07563   0.07851
 Alpha virt. eigenvalues --    0.08517   0.09299   0.11376   0.11576   0.12600

 Mulliken atomic charges:
              1
     1  H    0.000182
     2  C    0.351005
     3  H    0.067258
     4  H   -0.114075
     5  C    0.678575
     6  O   -0.823656
     7  N   -0.415352
     8  H   -0.087331
     9  C   -0.083276
    10  H   -0.122007
    11  C    0.759508
    12  H   -0.032669
    13  H   -0.034297
    14  H   -0.112380
    15  C    1.067438
    16  O   -0.850527
    17  N   -0.547843
    18  H   -0.098980
    19  C    0.754375
    20  H   -0.138841
    21  H   -0.082714
    22  H   -0.134391
 Sum of Mulliken atomic charges =   0.00000

 Dipole moment (field-independent basis, Debye):
    X=             -2.6422    Y=              1.7110    Z=             -6.0593  Tot=              6.8282
 Quadrupole moment (field-independent basis, Debye-Ang):
   XX=            -58.7388   YY=            -59.5516   ZZ=            -65.4153
   XY=             -5.0190   XZ=             -3.8382   YZ=              4.2084

 Normal termination of Gaussian 09 at Mon Feb 13 14:14:10 2017.
