 Gaussian 09, Revision A.02,
 Gaussian 09:  EM64L-G09RevA.02 11-Jun-2009

 -------------------
 #SP MP2/aug-cc-pVDZ
 -------------------

 -------------------------------
 Single Point calculation at MP2
 -------------------------------
 Symbolic Z-matrix:
 Charge =  0 Multiplicity = 1

                         Standard orientation:
 ---------------------------------------------------------------------
 Center     Atomic      Atomic             Coordinates (Angstroms)
 Number     Number       Type             X           Y           Z
 ---------------------------------------------------------------------
      1          1           0       -3.122280   -1.835239    1.111490
      2          6           0       -3.134090   -0.767740    0.871190
      3          1           0       -3.095396   -0.191039    1.800490
      4          1           0       -4.080992   -0.558749    0.363690
      5          6           0       -1.992093   -0.466628   -0.086310
      6          8           0       -1.881687   -1.041727   -1.165110
      7          7           0       -1.110702    0.493580    0.330290
      8          1           0       -1.160206    0.849480    1.275190
      9          6           0        0.048794    0.878892   -0.469610
     10          1           0       -0.127802    0.450990   -1.458610
     11          6           0        0.181979    2.400193   -0.557510
     12          1           0        0.386075    2.820995    0.431790
     13          1           0        1.015976    2.673101   -1.213210
     14          1           0       -0.736625    2.839684   -0.958210
     15          6           0        1.303000    0.264504    0.180390
     16          8           0        1.774695    0.725908    1.214890
     17          7           0        1.813911   -0.814291   -0.477010
     18          1           0        1.264514   -1.204597   -1.231210
     19          6           0        2.920218   -1.595280    0.050290
     20          1           0        3.408412   -0.996476    0.820390
     21          1           0        2.576327   -2.535584    0.499790
     22          1           0        3.638620   -1.824673   -0.743410
 ---------------------------------------------------------------------

 SCF Done:  E(RHF) =  -492.927807552     A.U. after   14 cycles
 E2 =    -0.1600479773D+01 EUMP2 =    -0.49452828732531D+03

 The electronic state is 1-A.
 Alpha  occ. eigenvalues --  -20.53434 -20.53265 -15.60304 -15.59812 -11.36958
 Alpha  occ. eigenvalues --  -11.35969 -11.29087 -11.26852 -11.25150 -11.23472
 Alpha  occ. eigenvalues --   -1.39103  -1.38339  -1.24532  -1.23241  -1.05716
 Alpha  occ. eigenvalues --   -0.99515  -0.96193  -0.87456  -0.80476  -0.78904
 Alpha  occ. eigenvalues --   -0.73024  -0.67896  -0.66231  -0.64525  -0.62100
 Alpha  occ. eigenvalues --   -0.61922  -0.60196  -0.58816  -0.57598  -0.56348
 Alpha  occ. eigenvalues --   -0.54736  -0.53612  -0.51973  -0.51770  -0.51218
 Alpha  occ. eigenvalues --   -0.43904  -0.42993  -0.39652  -0.39027
 Alpha virt. eigenvalues --    0.03084   0.03756   0.04234   0.05023   0.05656
 Alpha virt. eigenvalues --    0.05876   0.06158   0.07163   0.07432   0.07808
 Alpha virt. eigenvalues --    0.08889   0.09414   0.11377   0.12014   0.12108

 Mulliken atomic charges:
              1
     1  H    0.044488
     2  C    0.390793
     3  H   -0.151605
     4  H    0.050923
     5  C    0.640193
     6  O   -0.875754
     7  N   -0.235938
     8  H   -0.099686
     9  C   -0.384146
    10  H   -0.274805
    11  C    0.745809
    12  H   -0.015253
    13  H   -0.008709
    14  H   -0.016650
    15  C    1.251157
    16  O   -0.849515
    17  N   -0.504817
    18  H   -0.077819
    19  C    0.724641
    20  H   -0.137898
    21  H   -0.089680
    22  H   -0.125728
 Sum of Mulliken atomic charges =   0.00000

 Dipole moment (field-independent basis, Debye):
    X=             -0.7708    Y=             -0.1590    Z=              0.3057  Tot=              0.8443
 Quadrupole moment (field-independent basis, Debye-Ang):
   XX=            -59.0992   YY=            -59.9319   ZZ=            -64.6900
   XY=             -7.9431   XZ=            -12.5790   YZ=             -4.4305

 Normal termination of Gaussian 09 at Mon Feb 13 09:50:41 2017.
