 Gaussian 09, Revision A.02,
 Gaussian 09:  EM64L-G09RevA.02 11-Jun-2009

 -------------------
 #SP MP2/aug-cc-pVDZ
 -------------------

 -------------------------------
 Single Point calculation at MP2
 -------------------------------
 Symbolic Z-matrix:
 Charge =  0 Multiplicity = 1

                         Standard orientation:
 ---------------------------------------------------------------------
 Center     Atomic      Atomic             Coordinates (Angstroms)
 Number     Number       Type             X           Y           Z
 ---------------------------------------------------------------------
      1          1           0        4.029201   -0.950629   -0.744300
      2          6           0        2.974100   -1.227323   -0.808500
      3          1           0        2.869594   -2.232422   -0.384500
      4          1           0        2.672099   -1.258621   -1.860600
      5          6           0        2.161205   -0.252018    0.030800
      6          8           0        2.531807    0.125080    1.131700
      7          7           0        0.991407    0.182588   -0.555200
      8          1           0        0.690705   -0.284810   -1.400500
      9          6           0       -0.026189    0.916194    0.197800
     10          1           0        0.426713    1.125991    1.168100
     11          6           0       -0.398081    2.231896   -0.498200
     12          1           0       -0.742482    2.078598   -1.529700
     13          1           0       -1.188478    2.755900    0.050600
     14          1           0        0.480222    2.882391   -0.546700
     15          6           0       -1.223594   -0.011900    0.498400
     16          8           0       -1.375897   -0.537399    1.590800
     17          7           0       -2.047295   -0.267295   -0.571100
     18          1           0       -1.993692    0.346105   -1.372100
     19          6           0       -3.236300   -1.094588   -0.436300
     20          1           0       -3.073103   -1.777689    0.398000
     21          1           0       -4.133496   -0.497883   -0.224900
     22          1           0       -3.400203   -1.668988   -1.353300
 ---------------------------------------------------------------------

 SCF Done:  E(RHF) =  -492.917193596     A.U. after   14 cycles
 E2 =    -0.1601053354D+01 EUMP2 =    -0.49451824694911D+03

 The electronic state is 1-A.
 Alpha  occ. eigenvalues --  -20.53661 -20.53099 -15.60203 -15.60198 -11.36516
 Alpha  occ. eigenvalues --  -11.36262 -11.29158 -11.27348 -11.24941 -11.24908
 Alpha  occ. eigenvalues --   -1.39134  -1.38397  -1.24781  -1.23074  -1.05928
 Alpha  occ. eigenvalues --   -0.99516  -0.96003  -0.88801  -0.80001  -0.79348
 Alpha  occ. eigenvalues --   -0.73043  -0.67623  -0.65853  -0.64631  -0.63026
 Alpha  occ. eigenvalues --   -0.61678  -0.59525  -0.58789  -0.58006  -0.56914
 Alpha  occ. eigenvalues --   -0.55477  -0.54666  -0.52311  -0.51914  -0.50877
 Alpha  occ. eigenvalues --   -0.44520  -0.42452  -0.40116  -0.38817
 Alpha virt. eigenvalues --    0.02125   0.03635   0.03900   0.04606   0.05548
 Alpha virt. eigenvalues --    0.05926   0.06304   0.06476   0.07477   0.07783
 Alpha virt. eigenvalues --    0.08515   0.09435   0.11402   0.11741   0.12240

 Mulliken atomic charges:
              1
     1  H    0.014351
     2  C    0.377571
     3  H    0.062793
     4  H   -0.149936
     5  C    0.660897
     6  O   -0.828990
     7  N   -0.308185
     8  H   -0.080024
     9  C   -0.110109
    10  H   -0.148634
    11  C    0.806561
    12  H   -0.105757
    13  H   -0.022549
    14  H   -0.077215
    15  C    0.983431
    16  O   -0.818775
    17  N   -0.546790
    18  H   -0.091035
    19  C    0.732513
    20  H   -0.123429
    21  H   -0.073594
    22  H   -0.153095
 Sum of Mulliken atomic charges =   0.00000

 Dipole moment (field-independent basis, Debye):
    X=             -2.1579    Y=              0.3650    Z=             -6.6422  Tot=              6.9934
 Quadrupole moment (field-independent basis, Debye-Ang):
   XX=            -60.5520   YY=            -57.5180   ZZ=            -67.1131
   XY=             -4.4287   XZ=             -1.8248   YZ=              2.7505

 Normal termination of Gaussian 09 at Mon Feb 13 11:25:08 2017.
