 Gaussian 09, Revision A.02,
 Gaussian 09:  EM64L-G09RevA.02 11-Jun-2009

 -------------------
 #SP MP2/aug-cc-pVDZ
 -------------------

 -------------------------------
 Single Point calculation at MP2
 -------------------------------
 Symbolic Z-matrix:
 Charge =  0 Multiplicity = 1

                         Standard orientation:
 ---------------------------------------------------------------------
 Center     Atomic      Atomic             Coordinates (Angstroms)
 Number     Number       Type             X           Y           Z
 ---------------------------------------------------------------------
      1          1           0        4.183805   -0.922455    0.031605
      2          6           0        3.225106   -0.990462   -0.485095
      3          1           0        2.883413   -2.032164   -0.448395
      4          1           0        3.351004   -0.710861   -1.536295
      5          6           0        2.213699   -0.108269    0.227505
      6          8           0        2.336597    0.225932    1.397505
      7          7           0        1.154097    0.303024   -0.559695
      8          1           0        0.985001   -0.274378   -1.375895
      9          6           0       -0.058707    0.796915    0.074405
     10          1           0        0.193992    0.919617    1.134605
     11          6           0       -0.466617    2.160412   -0.509095
     12          1           0       -0.767816    2.073410   -1.558895
     13          1           0       -1.292320    2.623306    0.044205
     14          1           0        0.386478    2.842118   -0.452695
     15          6           0       -1.149099   -0.296393   -0.033995
     16          8           0       -0.869291   -1.441791   -0.372795
     17          7           0       -2.426502    0.108898    0.219405
     18          1           0       -2.577209    1.043497    0.569205
     19          6           0       -3.546795   -0.817510    0.238305
     20          1           0       -3.230189   -1.728108   -0.271195
     21          1           0       -3.847894   -1.073012    1.262305
     22          1           0       -4.405399   -0.385716   -0.286395
 ---------------------------------------------------------------------

 SCF Done:  E(RHF) =  -492.923251203     A.U. after   14 cycles
 E2 =    -0.1600294020D+01 EUMP2 =    -0.49452354522275D+03

 The electronic state is 1-A.
 Alpha  occ. eigenvalues --  -20.53846 -20.53037 -15.60275 -15.58628 -11.36641
 Alpha  occ. eigenvalues --  -11.35820 -11.29118 -11.27358 -11.24579 -11.24024
 Alpha  occ. eigenvalues --   -1.39429  -1.38095  -1.23996  -1.23290  -1.05480
 Alpha  occ. eigenvalues --   -0.98981  -0.95910  -0.88308  -0.79790  -0.78275
 Alpha  occ. eigenvalues --   -0.73177  -0.67294  -0.65850  -0.63986  -0.62761
 Alpha  occ. eigenvalues --   -0.61742  -0.59681  -0.58667  -0.57079  -0.56391
 Alpha  occ. eigenvalues --   -0.55268  -0.54217  -0.53421  -0.51747  -0.49585
 Alpha  occ. eigenvalues --   -0.43198  -0.42325  -0.40075  -0.39799
 Alpha virt. eigenvalues --    0.02749   0.03884   0.04295   0.04592   0.05702
 Alpha virt. eigenvalues --    0.06036   0.06203   0.06894   0.07454   0.07945
 Alpha virt. eigenvalues --    0.08982   0.09618   0.11059   0.11914   0.12723

 Mulliken atomic charges:
              1
     1  H   -0.046567
     2  C    0.338721
     3  H    0.080110
     4  H   -0.037365
     5  C    0.636166
     6  O   -0.829250
     7  N   -0.584408
     8  H   -0.008707
     9  C    0.071855
    10  H   -0.035483
    11  C    0.760409
    12  H   -0.021975
    13  H   -0.075660
    14  H   -0.078288
    15  C    0.934924
    16  O   -0.831937
    17  N   -0.535242
    18  H   -0.106171
    19  C    0.724107
    20  H   -0.141475
    21  H   -0.077008
    22  H   -0.136757
 Sum of Mulliken atomic charges =   0.00000

 Dipole moment (field-independent basis, Debye):
    X=             -3.0012    Y=              1.8679    Z=             -2.0889  Tot=              4.1061
 Quadrupole moment (field-independent basis, Debye-Ang):
   XX=            -53.2202   YY=            -62.5084   ZZ=            -64.5126
   XY=             -6.5865   XZ=            -10.2778   YZ=             -0.1642

 Normal termination of Gaussian 09 at Mon Feb 13 13:50:04 2017.
