 Gaussian 09, Revision A.02,
 Gaussian 09:  EM64L-G09RevA.02 11-Jun-2009

 -------------------
 #SP MP2/aug-cc-pVDZ
 -------------------

 -------------------------------
 Single Point calculation at MP2
 -------------------------------
 Symbolic Z-matrix:
 Charge =  0 Multiplicity = 1

                         Standard orientation:
 ---------------------------------------------------------------------
 Center     Atomic      Atomic             Coordinates (Angstroms)
 Number     Number       Type             X           Y           Z
 ---------------------------------------------------------------------
      1          1           0        4.187094   -0.848197   -0.351310
      2          6           0        3.174194   -0.955396   -0.743210
      3          1           0        2.884293   -2.010196   -0.665110
      4          1           0        3.157694   -0.673096   -1.801410
      5          6           0        2.226295   -0.118395    0.099590
      6          8           0        2.456295    0.166505    1.265390
      7          7           0        1.091695    0.309406   -0.560910
      8          1           0        0.885495   -0.155993   -1.436110
      9          6           0       -0.058404    0.790108    0.195890
     10          1           0        0.293096    0.842607    1.232690
     11          6           0       -0.473503    2.195808   -0.259110
     12          1           0       -0.836703    2.202509   -1.294110
     13          1           0       -1.250502    2.619109    0.389790
     14          1           0        0.392798    2.860507   -0.205010
     15          6           0       -1.152605   -0.304391    0.167390
     16          8           0       -0.852907   -1.481291    0.330490
     17          7           0       -2.429005    0.109110   -0.085410
     18          1           0       -2.614404    1.095611   -0.180010
     19          6           0       -3.557606   -0.806388   -0.077810
     20          1           0       -3.156207   -1.817689   -0.003010
     21          1           0       -4.220206   -0.621188    0.776590
     22          1           0       -4.138606   -0.713388   -1.002210
 ---------------------------------------------------------------------

 SCF Done:  E(RHF) =  -492.919455923     A.U. after   14 cycles
 E2 =    -0.1601371436D+01 EUMP2 =    -0.49452082735861D+03

 The electronic state is 1-A.
 Alpha  occ. eigenvalues --  -20.53215 -20.52843 -15.60323 -15.59140 -11.36412
 Alpha  occ. eigenvalues --  -11.35861 -11.29143 -11.27295 -11.24713 -11.24159
 Alpha  occ. eigenvalues --   -1.39018  -1.37973  -1.23972  -1.23359  -1.05597
 Alpha  occ. eigenvalues --   -0.99078  -0.95856  -0.88705  -0.79577  -0.78904
 Alpha  occ. eigenvalues --   -0.73069  -0.67203  -0.65455  -0.64863  -0.62421
 Alpha  occ. eigenvalues --   -0.61577  -0.59281  -0.58818  -0.57153  -0.56348
 Alpha  occ. eigenvalues --   -0.55176  -0.54647  -0.53373  -0.51754  -0.49660
 Alpha  occ. eigenvalues --   -0.43141  -0.42096  -0.39969  -0.39323
 Alpha virt. eigenvalues --    0.02590   0.03683   0.04166   0.04565   0.05733
 Alpha virt. eigenvalues --    0.05888   0.06154   0.06956   0.07317   0.08094
 Alpha virt. eigenvalues --    0.08817   0.08968   0.11401   0.12159   0.12629

 Mulliken atomic charges:
              1
     1  H   -0.030497
     2  C    0.333391
     3  H    0.079386
     4  H   -0.063366
     5  C    0.683636
     6  O   -0.839719
     7  N   -0.495429
     8  H   -0.064809
     9  C   -0.203587
    10  H   -0.049214
    11  C    0.861997
    12  H    0.013547
    13  H    0.035982
    14  H   -0.169126
    15  C    1.061819
    16  O   -0.884057
    17  N   -0.524331
    18  H   -0.150397
    19  C    0.760368
    20  H   -0.150816
    21  H   -0.087181
    22  H   -0.117598
 Sum of Mulliken atomic charges =   0.00000

 Dipole moment (field-independent basis, Debye):
    X=             -3.2419    Y=              2.3005    Z=             -3.8321  Tot=              5.5216
 Quadrupole moment (field-independent basis, Debye-Ang):
   XX=            -54.2783   YY=            -62.7282   ZZ=            -63.4717
   XY=             -6.2672   XZ=             -7.8877   YZ=              2.1177

 Normal termination of Gaussian 09 at Mon Feb 13 10:36:03 2017.
