 Gaussian 09, Revision A.02,
 Gaussian 09:  EM64L-G09RevA.02 11-Jun-2009

 -------------------
 #SP MP2/aug-cc-pVDZ
 -------------------

 -------------------------------
 Single Point calculation at MP2
 -------------------------------
 Symbolic Z-matrix:
 Charge =  0 Multiplicity = 1

                         Standard orientation:
 ---------------------------------------------------------------------
 Center     Atomic      Atomic             Coordinates (Angstroms)
 Number     Number       Type             X           Y           Z
 ---------------------------------------------------------------------
      1          1           0       -4.152999   -0.728586    0.273405
      2          6           0       -3.178399   -0.878085    0.746205
      3          1           0       -3.052897   -1.954585    0.904605
      4          1           0       -3.168099   -0.373985    1.717305
      5          6           0       -2.095099   -0.390484   -0.203595
      6          8           0       -2.067999   -0.723384   -1.382695
      7          7           0       -1.175401    0.465918    0.351305
      8          1           0       -1.101301    0.502518    1.361205
      9          6           0        0.044299    0.831319   -0.356395
     10          1           0       -0.109001    0.519819   -1.392995
     11          6           0        0.297297    2.343820   -0.285495
     12          1           0        0.434796    2.658020    0.754505
     13          1           0        1.201096    2.613021   -0.843695
     14          1           0       -0.552604    2.886418   -0.709895
     15          6           0        1.220600    0.074721    0.284505
     16          8           0        1.348900    0.044521    1.505905
     17          7           0        2.093601   -0.502678   -0.584795
     18          1           0        1.856301   -0.507478   -1.566695
     19          6           0        3.260902   -1.250376   -0.147995
     20          1           0        3.353402   -1.110476    0.929705
     21          1           0        3.152503   -2.320877   -0.360395
     22          1           0        4.166601   -0.881075   -0.641695
 ---------------------------------------------------------------------

 SCF Done:  E(RHF) =  -492.927856345     A.U. after   14 cycles
 E2 =    -0.1599978900D+01 EUMP2 =    -0.49452783524502D+03

 The electronic state is 1-A.
 Alpha  occ. eigenvalues --  -20.53579 -20.53065 -15.60415 -15.59386 -11.36388
 Alpha  occ. eigenvalues --  -11.36367 -11.29054 -11.27290 -11.24564 -11.23876
 Alpha  occ. eigenvalues --   -1.39182  -1.38220  -1.24109  -1.23626  -1.05591
 Alpha  occ. eigenvalues --   -0.99206  -0.96358  -0.87625  -0.80204  -0.78792
 Alpha  occ. eigenvalues --   -0.73220  -0.67534  -0.66009  -0.63996  -0.62649
 Alpha  occ. eigenvalues --   -0.61952  -0.60175  -0.58429  -0.57615  -0.56587
 Alpha  occ. eigenvalues --   -0.55201  -0.53795  -0.52380  -0.51859  -0.50301
 Alpha  occ. eigenvalues --   -0.43703  -0.42578  -0.40141  -0.39064
 Alpha virt. eigenvalues --    0.03090   0.03792   0.04288   0.04922   0.05570
 Alpha virt. eigenvalues --    0.06042   0.06139   0.07198   0.07326   0.07621
 Alpha virt. eigenvalues --    0.09250   0.09416   0.11225   0.12016   0.12435

 Mulliken atomic charges:
              1
     1  H    0.029311
     2  C    0.392223
     3  H    0.052055
     4  H   -0.148483
     5  C    0.597582
     6  O   -0.861118
     7  N   -0.294147
     8  H   -0.054207
     9  C   -0.268848
    10  H   -0.216994
    11  C    0.805177
    12  H   -0.015166
    13  H   -0.047149
    14  H   -0.054047
    15  C    1.222410
    16  O   -0.882154
    17  N   -0.513639
    18  H   -0.103124
    19  C    0.710649
    20  H   -0.141672
    21  H   -0.086768
    22  H   -0.121891
 Sum of Mulliken atomic charges =   0.00000

 Dipole moment (field-independent basis, Debye):
    X=              1.1893    Y=              0.4971    Z=             -0.2005  Tot=              1.3045
 Quadrupole moment (field-independent basis, Debye-Ang):
   XX=            -55.6128   YY=            -59.3720   ZZ=            -66.9533
   XY=             -3.3905   XZ=            -14.3666   YZ=             -2.5575

 Normal termination of Gaussian 09 at Mon Feb 13 09:35:43 2017.
