 Gaussian 09, Revision A.02,
 Gaussian 09:  EM64L-G09RevA.02 11-Jun-2009

 -------------------
 #SP MP2/aug-cc-pVDZ
 -------------------

 -------------------------------
 Single Point calculation at MP2
 -------------------------------
 Symbolic Z-matrix:
 Charge =  0 Multiplicity = 1

                         Standard orientation:
 ---------------------------------------------------------------------
 Center     Atomic      Atomic             Coordinates (Angstroms)
 Number     Number       Type             X           Y           Z
 ---------------------------------------------------------------------
      1          1           0        3.316887   -1.689441   -0.978106
      2          6           0        3.178997   -0.622340   -0.783406
      3          1           0        3.154902   -0.082739   -1.735306
      4          1           0        4.045500   -0.280648   -0.207206
      5          6           0        1.928399   -0.432728    0.057694
      6          8           0        1.728193   -1.085026    1.081994
      7          7           0        1.028607    0.485980   -0.400006
      8          1           0        1.238912    1.014178   -1.235906
      9          6           0       -0.084789    0.954291    0.432194
     10          1           0        0.132208    0.597289    1.442694
     11          6           0       -0.187975    2.476391    0.405194
     12          1           0       -0.430571    2.830894   -0.601506
     13          1           0       -0.993372    2.811299    1.065194
     14          1           0        0.751030    2.930083    0.738094
     15          6           0       -1.391595    0.295003   -0.065006
     16          8           0       -2.231789    0.898210   -0.722306
     17          7           0       -1.487407   -1.015097    0.298294
     18          1           0       -0.686311   -1.426104    0.766094
     19          6           0       -2.565715   -1.876987   -0.149506
     20          1           0       -3.334909   -1.241380   -0.590906
     21          1           0       -2.224421   -2.596490   -0.905206
     22          1           0       -2.993420   -2.430383    0.693594
 ---------------------------------------------------------------------

 SCF Done:  E(RHF) =  -492.927838003     A.U. after   14 cycles
 E2 =    -0.1601799074D+01 EUMP2 =    -0.49452963707695D+03

 The electronic state is 1-A.
 Alpha  occ. eigenvalues --  -20.54142 -20.52967 -15.60965 -15.58659 -11.37576
 Alpha  occ. eigenvalues --  -11.35478 -11.29223 -11.26253 -11.25761 -11.23513
 Alpha  occ. eigenvalues --   -1.39565  -1.38039  -1.25094  -1.22414  -1.05907
 Alpha  occ. eigenvalues --   -0.99941  -0.95903  -0.87288  -0.81010  -0.78143
 Alpha  occ. eigenvalues --   -0.72464  -0.68599  -0.66996  -0.64402  -0.62119
 Alpha  occ. eigenvalues --   -0.61300  -0.60307  -0.59219  -0.57957  -0.55378
 Alpha  occ. eigenvalues --   -0.54183  -0.53464  -0.52410  -0.52161  -0.51379
 Alpha  occ. eigenvalues --   -0.44218  -0.43657  -0.39407  -0.38601
 Alpha virt. eigenvalues --    0.02687   0.04031   0.04184   0.04706   0.05797
 Alpha virt. eigenvalues --    0.05869   0.06398   0.06898   0.07259   0.08045
 Alpha virt. eigenvalues --    0.09268   0.09749   0.11147   0.11825   0.12283

 Mulliken atomic charges:
              1
     1  H    0.042481
     2  C    0.403310
     3  H   -0.138568
     4  H    0.060916
     5  C    0.582234
     6  O   -0.895384
     7  N   -0.361318
     8  H   -0.086459
     9  C   -0.269835
    10  H   -0.184482
    11  C    0.765890
    12  H   -0.005055
    13  H   -0.035859
    14  H   -0.010667
    15  C    1.191314
    16  O   -0.825130
    17  N   -0.526604
    18  H   -0.089692
    19  C    0.741970
    20  H   -0.152247
    21  H   -0.092616
    22  H   -0.114199
 Sum of Mulliken atomic charges =   0.00000

 Dipole moment (field-independent basis, Debye):
    X=              2.7756    Y=              0.0396    Z=             -1.1941  Tot=              3.0218
 Quadrupole moment (field-independent basis, Debye-Ang):
   XX=            -62.4657   YY=            -59.6242   ZZ=            -62.9259
   XY=              9.3015   XZ=            -10.2254   YZ=              4.1144

 Normal termination of Gaussian 09 at Mon Feb 13 10:22:38 2017.
