 Gaussian 09, Revision A.02,
 Gaussian 09:  EM64L-G09RevA.02 11-Jun-2009

 -------------------
 #SP MP2/aug-cc-pVDZ
 -------------------

 -------------------------------
 Single Point calculation at MP2
 -------------------------------
 Symbolic Z-matrix:
 Charge =  0 Multiplicity = 1

                         Standard orientation:
 ---------------------------------------------------------------------
 Center     Atomic      Atomic             Coordinates (Angstroms)
 Number     Number       Type             X           Y           Z
 ---------------------------------------------------------------------
      1          1           0        3.503016   -1.876688   -0.038806
      2          6           0        3.218714   -0.941689   -0.528706
      3          1           0        2.981015   -1.144390   -1.578006
      4          1           0        4.086512   -0.274387   -0.486506
      5          6           0        2.073112   -0.311592    0.250794
      6          8           0        2.096012   -0.201092    1.466094
      7          7           0        1.003411    0.111705   -0.514906
      8          1           0        1.162211    0.184806   -1.512406
      9          6           0       -0.048891    0.961702    0.047194
     10          1           0        0.307908    1.295703    1.024494
     11          6           0       -0.324694    2.173702   -0.851206
     12          1           0       -0.654693    1.860301   -1.849906
     13          1           0       -1.118696    2.781500   -0.409606
     14          1           0        0.574204    2.790604   -0.954606
     15          6           0       -1.369989    0.218199    0.330794
     16          8           0       -2.161190    0.660497    1.153294
     17          7           0       -1.636986   -0.839602   -0.491806
     18          1           0       -0.838285   -1.248700   -0.958706
     19          6           0       -2.822184   -1.661005   -0.309506
     20          1           0       -3.584186   -1.043607    0.168294
     21          1           0       -3.189983   -2.009406   -1.279806
     22          1           0       -2.628982   -2.531604    0.331294
 ---------------------------------------------------------------------

 SCF Done:  E(RHF) =  -492.922876465     A.U. after   14 cycles
 E2 =    -0.1601257784D+01 EUMP2 =    -0.49452413424915D+03

 The electronic state is 1-A.
 Alpha  occ. eigenvalues --  -20.54190 -20.52846 -15.60933 -15.59359 -11.37412
 Alpha  occ. eigenvalues --  -11.35545 -11.29136 -11.26702 -11.25813 -11.24619
 Alpha  occ. eigenvalues --   -1.39681  -1.38152  -1.25329  -1.22568  -1.06035
 Alpha  occ. eigenvalues --   -1.00095  -0.95831  -0.88135  -0.80850  -0.78279
 Alpha  occ. eigenvalues --   -0.72503  -0.68432  -0.67339  -0.63046  -0.62964
 Alpha  occ. eigenvalues --   -0.62125  -0.59455  -0.59322  -0.58285  -0.56534
 Alpha  occ. eigenvalues --   -0.54863  -0.54565  -0.53440  -0.51927  -0.49838
 Alpha  occ. eigenvalues --   -0.44427  -0.43411  -0.39587  -0.39317
 Alpha virt. eigenvalues --    0.02084   0.03624   0.03959   0.04577   0.05520
 Alpha virt. eigenvalues --    0.05855   0.06386   0.06553   0.07333   0.07883
 Alpha virt. eigenvalues --    0.08384   0.09354   0.11141   0.11818   0.12044

 Mulliken atomic charges:
              1
     1  H    0.037525
     2  C    0.358107
     3  H   -0.169312
     4  H    0.050960
     5  C    0.612329
     6  O   -0.845136
     7  N   -0.282677
     8  H   -0.041231
     9  C   -0.302345
    10  H   -0.052486
    11  C    0.785320
    12  H   -0.032728
    13  H   -0.049101
    14  H   -0.072558
    15  C    1.144234
    16  O   -0.896063
    17  N   -0.582479
    18  H   -0.061965
    19  C    0.748438
    20  H   -0.125691
    21  H   -0.146660
    22  H   -0.076480
 Sum of Mulliken atomic charges =   0.00000

 Dipole moment (field-independent basis, Debye):
    X=              1.9863    Y=             -1.5544    Z=             -6.2893  Tot=              6.7762
 Quadrupole moment (field-independent basis, Debye-Ang):
   XX=            -63.0096   YY=            -56.3475   ZZ=            -67.3517
   XY=              4.0786   XZ=             -2.8168   YZ=             -0.3820

 Normal termination of Gaussian 09 at Mon Feb 13 09:51:13 2017.
