 Gaussian 09, Revision A.02,
 Gaussian 09:  EM64L-G09RevA.02 11-Jun-2009

 -------------------
 #SP MP2/aug-cc-pVDZ
 -------------------

 -------------------------------
 Single Point calculation at MP2
 -------------------------------
 Symbolic Z-matrix:
 Charge =  0 Multiplicity = 1

                         Standard orientation:
 ---------------------------------------------------------------------
 Center     Atomic      Atomic             Coordinates (Angstroms)
 Number     Number       Type             X           Y           Z
 ---------------------------------------------------------------------
      1          1           0        4.184007   -0.913183    0.120110
      2          6           0        3.233107   -1.005686   -0.407690
      3          1           0        2.911111   -2.052887   -0.355790
      4          1           0        3.368006   -0.742585   -1.461790
      5          6           0        2.198404   -0.129690    0.279510
      6          8           0        2.276303    0.178511    1.461010
      7          7           0        1.176803    0.307007   -0.542590
      8          1           0        1.020205   -0.260294   -1.369590
      9          6           0       -0.054599    0.807302    0.045710
     10          1           0        0.153700    0.942603    1.113010
     11          6           0       -0.453004    2.157101   -0.577290
     12          1           0       -0.663103    2.047900   -1.647290
     13          1           0       -1.343205    2.584498   -0.102790
     14          1           0        0.370094    2.867604   -0.460390
     15          6           0       -1.154795   -0.266002   -0.122390
     16          8           0       -0.944891   -1.309901   -0.732490
     17          7           0       -2.375196    0.066594    0.386110
     18          1           0       -2.444099    0.893694    0.962010
     19          6           0       -3.508593   -0.843610    0.357310
     20          1           0       -3.286090   -1.623709   -0.371390
     21          1           0       -3.679391   -1.312611    1.334610
     22          1           0       -4.416895   -0.311613    0.055510
 ---------------------------------------------------------------------

 SCF Done:  E(RHF) =  -492.925341930     A.U. after   14 cycles
 E2 =    -0.1599886222D+01 EUMP2 =    -0.49452522815228D+03

 The electronic state is 1-A.
 Alpha  occ. eigenvalues --  -20.54058 -20.53094 -15.60306 -15.58580 -11.36681
 Alpha  occ. eigenvalues --  -11.35899 -11.29064 -11.27410 -11.24410 -11.24084
 Alpha  occ. eigenvalues --   -1.39549  -1.38149  -1.24072  -1.23310  -1.05475
 Alpha  occ. eigenvalues --   -0.99007  -0.96008  -0.88038  -0.79938  -0.78155
 Alpha  occ. eigenvalues --   -0.73191  -0.67378  -0.65978  -0.63611  -0.63047
 Alpha  occ. eigenvalues --   -0.61846  -0.59805  -0.58610  -0.57177  -0.56441
 Alpha  occ. eigenvalues --   -0.55349  -0.54081  -0.53235  -0.51774  -0.49672
 Alpha  occ. eigenvalues --   -0.43404  -0.42415  -0.40323  -0.39572
 Alpha virt. eigenvalues --    0.02818   0.03939   0.04315   0.04601   0.05642
 Alpha virt. eigenvalues --    0.06117   0.06216   0.07015   0.07371   0.07871
 Alpha virt. eigenvalues --    0.09049   0.09777   0.10584   0.11688   0.12658

 Mulliken atomic charges:
              1
     1  H   -0.034417
     2  C    0.341374
     3  H    0.072436
     4  H   -0.046666
     5  C    0.621909
     6  O   -0.832474
     7  N   -0.595004
     8  H    0.004730
     9  C   -0.010510
    10  H   -0.050533
    11  C    0.809917
    12  H   -0.031422
    13  H   -0.094353
    14  H   -0.073350
    15  C    1.013354
    16  O   -0.830988
    17  N   -0.525128
    18  H   -0.102159
    19  C    0.710583
    20  H   -0.137491
    21  H   -0.074809
    22  H   -0.135000
 Sum of Mulliken atomic charges =   0.00000

 Dipole moment (field-independent basis, Debye):
    X=             -2.7187    Y=              1.5903    Z=             -1.2821  Tot=              3.4006
 Quadrupole moment (field-independent basis, Debye-Ang):
   XX=            -53.4015   YY=            -61.8978   ZZ=            -65.3023
   XY=             -6.0377   XZ=            -11.5762   YZ=             -1.0034

 Normal termination of Gaussian 09 at Mon Feb 13 09:42:48 2017.
