 Gaussian 09, Revision A.02,
 Gaussian 09:  EM64L-G09RevA.02 11-Jun-2009

 -------------------
 #SP MP2/aug-cc-pVDZ
 -------------------

 ------------------
 Phi Psi fixed scan
 ------------------
 Symbolic Z-matrix:
 Charge =  0 Multiplicity = 1

                         Standard orientation:
 ---------------------------------------------------------------------
 Center     Atomic      Atomic             Coordinates (Angstroms)
 Number     Number       Type             X           Y           Z
 ---------------------------------------------------------------------
      1          1           0       -7.107004   -0.813431   -1.438295
      2          6           0       -6.325102   -1.430328   -0.984895
      3          1           0       -5.735000   -1.900526   -1.777595
      4          1           0       -6.823699   -2.211430   -0.402195
      5          6           0       -5.502105   -0.563425   -0.041995
      6          8           0       -6.015807    0.058773    0.884305
      7          7           0       -4.164305   -0.533720   -0.291695
      8          1           0       -3.755004   -0.985619   -1.100995
      9          6           0       -3.252708    0.292583    0.475605
     10          1           0       -3.745912    1.252081    0.677105
     11          6           0       -2.875506   -0.358015    1.821905
     12          1           0       -2.352302   -1.303514    1.656105
     13          1           0       -2.218208    0.290487    2.411405
     14          1           0       -3.792005   -0.536419    2.390005
     15          6           0       -2.013909    0.522388   -0.399995
     16          8           0       -1.780407   -0.165012   -1.387495
     17          7           0       -1.224113    1.586990   -0.037195
     18          1           0       -1.382514    1.936790    0.901405
     19          6           0        0.165887    1.621695   -0.466695
     20          1           0        0.165487    1.547995   -1.559895
     21          6           0        0.799782    2.952498   -0.040695
     22          1           0        0.839482    3.037198    1.052305
     23          1           0        1.822082    3.051701   -0.415595
     24          1           0        0.210979    3.787896   -0.431595
     25          6           0        0.937891    0.388998    0.080305
     26          8           0        0.416094   -0.436104    0.823705
     27          7           0        2.247292    0.336203   -0.270695
     28          1           0        2.677589    1.013604   -0.890895
     29          6           0        3.128895   -0.735294    0.154305
     30          1           0        2.962796   -0.910895    1.224305
     31          6           0        2.863600   -2.047895   -0.609295
     32          1           0        3.040000   -1.908294   -1.680795
     33          1           0        3.514803   -2.853793   -0.252095
     34          1           0        1.823801   -2.345499   -0.454695
     35          6           0        4.564094   -0.235289   -0.082295
     36          8           0        4.794890    0.700212   -0.845795
     37          7           0        5.530496   -0.920085    0.583005
     38          1           0        5.249499   -1.663686    1.206505
     39          6           0        6.948695   -0.636380    0.433805
     40          1           0        7.044392    0.191820   -0.268995
     41          1           0        7.394294   -0.347479    1.392305
     42          1           0        7.485598   -1.506878    0.040105
 ---------------------------------------------------------------------

 SCF Done:  E(RHF) =  -984.697142989     A.U. after   15 cycles
 E2 =    -0.3193034214D+01 EUMP2 =    -0.98789017720327D+03

 The electronic state is 1-A.
 Alpha  occ. eigenvalues --  -20.55019 -20.54215 -20.53812 -20.51651 -15.61347
 Alpha  occ. eigenvalues --  -15.59879 -15.59677 -15.58134 -11.37802 -11.36580
 Alpha  occ. eigenvalues --  -11.36547 -11.35117 -11.30231 -11.30024 -11.28519
 Alpha  occ. eigenvalues --  -11.28187 -11.25289 -11.24130 -11.23668 -11.22338
 Alpha  occ. eigenvalues --   -1.40588  -1.39977  -1.38710  -1.36983  -1.25149
 Alpha  occ. eigenvalues --   -1.24652  -1.24442  -1.22751  -1.07480  -1.04787
 Alpha  occ. eigenvalues --   -1.02456  -0.97830  -0.96952  -0.91780  -0.89713
 Alpha  occ. eigenvalues --   -0.86707  -0.81487  -0.80041  -0.79235  -0.77476
 Alpha  occ. eigenvalues --   -0.75100  -0.71211  -0.68834  -0.68264  -0.67239
 Alpha  occ. eigenvalues --   -0.65276  -0.64859  -0.64516  -0.63248  -0.62214
 Alpha  occ. eigenvalues --   -0.61506  -0.60784  -0.60239  -0.59688  -0.58311
 Alpha  occ. eigenvalues --   -0.57312  -0.56653  -0.56287  -0.55990  -0.55586
 Alpha  occ. eigenvalues --   -0.55280  -0.54632  -0.53713  -0.53554  -0.52672
 Alpha  occ. eigenvalues --   -0.51893  -0.51424  -0.50120  -0.48436  -0.44781
 Alpha  occ. eigenvalues --   -0.44045  -0.43054  -0.41415  -0.41291  -0.40413
 Alpha  occ. eigenvalues --   -0.39423  -0.38169
 Alpha virt. eigenvalues --    0.02379   0.03349   0.03842   0.03966   0.04363
 Alpha virt. eigenvalues --    0.04854   0.05062   0.05815   0.06064   0.06215
 Alpha virt. eigenvalues --    0.06423   0.06794   0.07373   0.07517   0.08002

 Mulliken atomic charges:
              1
     1  H    0.041083
     2  C    0.394619
     3  H   -0.169435
     4  H    0.040028
     5  C    0.455421
     6  O   -0.877288
     7  N   -0.142790
     8  H   -0.104279
     9  C   -0.124564
    10  H   -0.167329
    11  C    0.930112
    12  H   -0.014439
    13  H   -0.087285
    14  H   -0.114416
    15  C    0.875828
    16  O   -0.926121
    17  N   -0.390794
    18  H    0.016000
    19  C    0.112468
    20  H   -0.162997
    21  C    0.792720
    22  H   -0.033606
    23  H   -0.143898
    24  H   -0.060825
    25  C    0.675582
    26  O   -0.818715
    27  N   -0.283790
    28  H   -0.081638
    29  C   -0.341758
    30  H   -0.199681
    31  C    0.925617
    32  H   -0.045538
    33  H   -0.096228
    34  H   -0.059597
    35  C    1.299888
    36  O   -0.908163
    37  N   -0.465314
    38  H   -0.123303
    39  C    0.707160
    40  H   -0.142476
    41  H   -0.086021
    42  H   -0.094239
 Sum of Mulliken atomic charges =   0.00000

 Dipole moment (field-independent basis, Debye):
    X=              6.2650    Y=             -0.8851    Z=              0.7086  Tot=              6.3667
 Quadrupole moment (field-independent basis, Debye-Ang):
   XX=           -124.6833   YY=           -111.4889   ZZ=           -124.4571
   XY=             -6.1471   XZ=             22.0948   YZ=              1.2975

 Normal termination of Gaussian 09 at Wed Jan 18 16:12:58 2017.
