 Gaussian 09, Revision A.02,
 Gaussian 09:  EM64L-G09RevA.02 11-Jun-2009

 -------------------
 #SP MP2/aug-cc-pVDZ
 -------------------

 ------------------
 Phi Psi fixed scan
 ------------------
 Symbolic Z-matrix:
 Charge =  0 Multiplicity = 1

                         Standard orientation:
 ---------------------------------------------------------------------
 Center     Atomic      Atomic             Coordinates (Angstroms)
 Number     Number       Type             X           Y           Z
 ---------------------------------------------------------------------
      1          1           0        5.465496    2.462509   -0.957209
      2          6           0        5.113098    1.496209   -1.331409
      3          1           0        5.993399    0.932111   -1.655209
      4          1           0        4.459597    1.664907   -2.192809
      5          6           0        4.440299    0.744007   -0.192309
      6          8           0        5.031900    0.472709    0.849191
      7          7           0        3.138200    0.402505   -0.403409
      8          1           0        2.689300    0.525404   -1.303809
      9          6           0        2.393201   -0.395697    0.549891
     10          1           0        3.061103   -1.174696    0.941591
     11          6           0        1.878600    0.445102    1.735891
     12          1           0        1.148798    1.189800    1.403491
     13          1           0        1.403301   -0.186199    2.496391
     14          1           0        2.730799    0.948204    2.199091
     15          6           0        1.240503   -1.051799   -0.226509
     16          8           0        0.962702   -0.731700   -1.378909
     17          7           0        0.532105   -1.998601    0.452991
     18          1           0        0.824405   -2.256500    1.385891
     19          6           0       -0.597694   -2.706003   -0.147509
     20          1           0       -0.263093   -3.182602   -1.074909
     21          6           0       -1.119291   -3.776004    0.816591
     22          1           0       -1.472692   -3.326605    1.752291
     23          1           0       -1.956790   -4.302406    0.352191
     24          1           0       -0.337190   -4.507603    1.049391
     25          6           0       -1.754696   -1.787206   -0.592809
     26          8           0       -2.511995   -2.147807   -1.487509
     27          7           0       -1.923998   -0.645006    0.120291
     28          1           0       -1.202999   -0.318104    0.753691
     29          6           0       -2.882400    0.365392   -0.283209
     30          1           0       -2.945700    0.356292   -1.379009
     31          6           0       -4.284900    0.087889    0.290491
     32          1           0       -4.259700    0.092889    1.385091
     33          1           0       -5.011701    0.837088   -0.043709
     34          1           0       -4.618197   -0.894712   -0.053709
     35          6           0       -2.330903    1.719893    0.194791
     36          8           0       -1.432303    1.787695    1.032391
     37          7           0       -2.928505    2.810092   -0.351609
     38          1           0       -3.628605    2.665190   -1.065509
     39          6           0       -2.565008    4.173593   -0.002109
     40          1           0       -1.805708    4.120394    0.778591
     41          1           0       -2.152809    4.706294   -0.866809
     42          1           0       -3.432909    4.725991    0.375091
 ---------------------------------------------------------------------

 SCF Done:  E(RHF) =  -984.698570404     A.U. after   15 cycles
 E2 =    -0.3195718902D+01 EUMP2 =    -0.98789428930556D+03

 The electronic state is 1-A.
 Alpha  occ. eigenvalues --  -20.55137 -20.54724 -20.53002 -20.52236 -15.61262
 Alpha  occ. eigenvalues --  -15.61007 -15.58884 -15.58705 -11.37575 -11.37495
 Alpha  occ. eigenvalues --  -11.35930 -11.35650 -11.29903 -11.29678 -11.29423
 Alpha  occ. eigenvalues --  -11.27923 -11.25089 -11.24101 -11.24061 -11.23065
 Alpha  occ. eigenvalues --   -1.40695  -1.40162  -1.38266  -1.37586  -1.25895
 Alpha  occ. eigenvalues --   -1.24829  -1.23536  -1.23312  -1.07461  -1.04864
 Alpha  occ. eigenvalues --   -1.03104  -0.98378  -0.96712  -0.91703  -0.89781
 Alpha  occ. eigenvalues --   -0.87123  -0.82017  -0.80649  -0.78561  -0.78249
 Alpha  occ. eigenvalues --   -0.74519  -0.72256  -0.69239  -0.67775  -0.66994
 Alpha  occ. eigenvalues --   -0.65702  -0.65315  -0.64654  -0.63159  -0.62717
 Alpha  occ. eigenvalues --   -0.62159  -0.60724  -0.60265  -0.58876  -0.58016
 Alpha  occ. eigenvalues --   -0.57807  -0.57008  -0.56353  -0.56155  -0.55681
 Alpha  occ. eigenvalues --   -0.55536  -0.54447  -0.54196  -0.53672  -0.52836
 Alpha  occ. eigenvalues --   -0.52157  -0.51760  -0.49885  -0.48933  -0.44454
 Alpha  occ. eigenvalues --   -0.44073  -0.43712  -0.41845  -0.41107  -0.40391
 Alpha  occ. eigenvalues --   -0.39092  -0.38649
 Alpha virt. eigenvalues --    0.02618   0.03069   0.03649   0.04185   0.04501
 Alpha virt. eigenvalues --    0.04777   0.04963   0.05795   0.06021   0.06448
 Alpha virt. eigenvalues --    0.06503   0.06987   0.07453   0.07721   0.07951

 Mulliken atomic charges:
              1
     1  H    0.039465
     2  C    0.409071
     3  H    0.042294
     4  H   -0.174996
     5  C    0.434607
     6  O   -0.873698
     7  N   -0.097322
     8  H   -0.103467
     9  C    0.066849
    10  H   -0.149088
    11  C    0.954224
    12  H   -0.068387
    13  H   -0.126220
    14  H   -0.099405
    15  C    0.653098
    16  O   -0.867227
    17  N   -0.227642
    18  H   -0.078873
    19  C   -0.021344
    20  H   -0.228532
    21  C    0.736336
    22  H   -0.032394
    23  H   -0.048703
    24  H   -0.087269
    25  C    1.033578
    26  O   -0.968957
    27  N   -0.330210
    28  H   -0.016144
    29  C   -0.487245
    30  H   -0.179913
    31  C    0.941770
    32  H   -0.040664
    33  H   -0.111666
    34  H   -0.041195
    35  C    1.242278
    36  O   -0.893881
    37  N   -0.459564
    38  H   -0.125734
    39  C    0.741004
    40  H   -0.151420
    41  H   -0.089557
    42  H   -0.113859
 Sum of Mulliken atomic charges =   0.00000

 Dipole moment (field-independent basis, Debye):
    X=             -3.4487    Y=              1.7793    Z=              0.4723  Tot=              3.9092
 Quadrupole moment (field-independent basis, Debye-Ang):
   XX=           -130.4047   YY=           -105.3082   ZZ=           -127.6651
   XY=            -14.1908   XZ=            -13.2845   YZ=            -17.8471

 Normal termination of Gaussian 09 at Wed Jan 18 20:05:02 2017.
