 Gaussian 09, Revision A.02,
 Gaussian 09:  EM64L-G09RevA.02 11-Jun-2009

 -------------------
 #SP MP2/aug-cc-pVDZ
 -------------------

 ------------------
 Phi Psi fixed scan
 ------------------
 Symbolic Z-matrix:
 Charge =  0 Multiplicity = 1

                         Standard orientation:
 ---------------------------------------------------------------------
 Center     Atomic      Atomic             Coordinates (Angstroms)
 Number     Number       Type             X           Y           Z
 ---------------------------------------------------------------------
      1          1           0       -5.698500    2.397077    1.166700
      2          6           0       -5.384798    1.368978    1.372800
      3          1           0       -6.292797    0.769476    1.491300
      4          1           0       -4.818998    1.350179    2.309300
      5          6           0       -4.603997    0.844479    0.176500
      6          8           0       -5.089597    0.801178   -0.950800
      7          7           0       -3.330696    0.436982    0.439500
      8          1           0       -2.973496    0.362883    1.385400
      9          6           0       -2.499194   -0.175916   -0.577100
     10          1           0       -3.127293   -0.849817   -1.175500
     11          6           0       -1.870197    0.867585   -1.522800
     12          1           0       -1.165398    1.510987   -0.986600
     13          1           0       -1.330296    0.388887   -2.347900
     14          1           0       -2.670198    1.478184   -1.948100
     15          6           0       -1.424093   -0.990014    0.162200
     16          8           0       -1.260093   -0.903813    1.375400
     17          7           0       -0.643191   -1.778112   -0.626800
     18          1           0       -0.864891   -1.848112   -1.611000
     19          6           0        0.439811   -2.611909   -0.100400
     20          1           0        0.034312   -3.257210    0.685600
     21          6           0        1.033513   -3.466408   -1.222100
     22          1           0        1.455512   -2.846707   -2.021000
     23          1           0        1.835614   -4.094706   -0.824800
     24          1           0        0.268414   -4.123110   -1.651900
     25          6           0        1.520809   -1.774607    0.621100
     26          8           0        1.887010   -2.044306    1.755800
     27          7           0        2.135707   -0.837106   -0.164500
     28          1           0        1.637806   -0.477507   -0.975400
     29          6           0        3.035105    0.141196    0.424400
     30          1           0        2.834705    0.173696    1.502500
     31          6           0        4.509906   -0.244900    0.208600
     32          1           0        4.742606   -0.295700   -0.860200
     33          1           0        5.190004    0.475701    0.677000
     34          1           0        4.689608   -1.227200    0.654300
     35          6           0        2.700002    1.505696   -0.207000
     36          8           0        1.984602    1.592494   -1.204200
     37          7           0        3.267899    2.578597    0.402200
     38          1           0        3.798000    2.424098    1.248300
     39          6           0        3.077196    3.944696   -0.057200
     40          1           0        2.514197    3.901495   -0.989900
     41          1           0        2.512095    4.534395    0.674100
     42          1           0        4.041195    4.432799   -0.238600
 ---------------------------------------------------------------------

 SCF Done:  E(RHF) =  -984.693678260     A.U. after   15 cycles
 E2 =    -0.3194509546D+01 EUMP2 =    -0.98788818780609D+03

 The electronic state is 1-A.
 Alpha  occ. eigenvalues --  -20.54863 -20.54793 -20.53383 -20.52200 -15.61101
 Alpha  occ. eigenvalues --  -15.61023 -15.58853 -15.58646 -11.37485 -11.37340
 Alpha  occ. eigenvalues --  -11.35952 -11.35605 -11.29966 -11.29580 -11.29352
 Alpha  occ. eigenvalues --  -11.27945 -11.25393 -11.24293 -11.24047 -11.23190
 Alpha  occ. eigenvalues --   -1.40476  -1.40185  -1.38476  -1.37542  -1.25739
 Alpha  occ. eigenvalues --   -1.24844  -1.23463  -1.23273  -1.07617  -1.04824
 Alpha  occ. eigenvalues --   -1.03000  -0.98347  -0.96737  -0.91731  -0.89732
 Alpha  occ. eigenvalues --   -0.87177  -0.81994  -0.80547  -0.78365  -0.78146
 Alpha  occ. eigenvalues --   -0.74405  -0.72173  -0.69083  -0.67440  -0.66764
 Alpha  occ. eigenvalues --   -0.65654  -0.65310  -0.64548  -0.63399  -0.62617
 Alpha  occ. eigenvalues --   -0.62597  -0.60739  -0.60141  -0.58831  -0.58175
 Alpha  occ. eigenvalues --   -0.57639  -0.56869  -0.56344  -0.56171  -0.55900
 Alpha  occ. eigenvalues --   -0.55385  -0.54464  -0.54240  -0.53755  -0.53202
 Alpha  occ. eigenvalues --   -0.52272  -0.51542  -0.50278  -0.48991  -0.44444
 Alpha  occ. eigenvalues --   -0.43788  -0.43613  -0.41808  -0.41104  -0.40376
 Alpha  occ. eigenvalues --   -0.39380  -0.38615
 Alpha virt. eigenvalues --    0.02605   0.03032   0.03710   0.04136   0.04475
 Alpha virt. eigenvalues --    0.04751   0.04875   0.05706   0.06078   0.06380
 Alpha virt. eigenvalues --    0.06545   0.06892   0.07307   0.07729   0.07857

 Mulliken atomic charges:
              1
     1  H    0.039802
     2  C    0.409334
     3  H    0.044171
     4  H   -0.170862
     5  C    0.434533
     6  O   -0.873211
     7  N   -0.132237
     8  H   -0.104684
     9  C    0.027962
    10  H   -0.128580
    11  C    0.847319
    12  H    0.015844
    13  H   -0.109864
    14  H   -0.110988
    15  C    0.746990
    16  O   -0.874658
    17  N   -0.299888
    18  H   -0.092530
    19  C    0.271332
    20  H   -0.313396
    21  C    0.761702
    22  H   -0.041846
    23  H   -0.051042
    24  H   -0.098276
    25  C    0.920269
    26  O   -0.892177
    27  N   -0.508309
    28  H    0.035558
    29  C   -0.477661
    30  H   -0.121504
    31  C    0.920934
    32  H   -0.048322
    33  H   -0.102259
    34  H   -0.058943
    35  C    1.203807
    36  O   -0.874291
    37  N   -0.450286
    38  H   -0.125911
    39  C    0.744706
    40  H   -0.152569
    41  H   -0.087488
    42  H   -0.122481
 Sum of Mulliken atomic charges =   0.00000

 Dipole moment (field-independent basis, Debye):
    X=              4.1732    Y=              1.3631    Z=             -0.5783  Tot=              4.4281
 Quadrupole moment (field-independent basis, Debye-Ang):
   XX=           -123.5169   YY=           -108.6272   ZZ=           -129.2373
   XY=             12.8873   XZ=            -10.6155   YZ=             20.3715

 Normal termination of Gaussian 09 at Wed Jan 18 18:08:26 2017.
