 Gaussian 09, Revision A.02,
 Gaussian 09:  EM64L-G09RevA.02 11-Jun-2009

 -------------------
 #SP MP2/aug-cc-pVDZ
 -------------------

 ------------------
 Phi Psi fixed scan
 ------------------
 Symbolic Z-matrix:
 Charge =  0 Multiplicity = 1

                         Standard orientation:
 ---------------------------------------------------------------------
 Center     Atomic      Atomic             Coordinates (Angstroms)
 Number     Number       Type             X           Y           Z
 ---------------------------------------------------------------------
      1          1           0       -5.282404   -3.359198    0.171400
      2          6           0       -4.874604   -2.722698   -0.620100
      3          1           0       -5.664705   -2.582799   -1.364400
      4          1           0       -4.028704   -3.234497   -1.088900
      5          6           0       -4.516306   -1.369197   -0.025700
      6          8           0       -5.346306   -0.663098    0.540800
      7          7           0       -3.212806   -0.994496   -0.160300
      8          1           0       -2.539506   -1.547095   -0.677900
      9          6           0       -2.736307    0.292204    0.304600
     10          1           0       -3.500608    1.044804    0.074100
     11          6           0       -2.486707    0.300405    1.827100
     12          1           0       -1.717607   -0.431995    2.093600
     13          1           0       -2.164008    1.287605    2.178200
     14          1           0       -3.419307    0.041404    2.333800
     15          6           0       -1.444308    0.601506   -0.465800
     16          8           0       -0.823907   -0.288594   -1.051600
     17          7           0       -1.071109    1.906206   -0.473700
     18          1           0       -1.605910    2.527406    0.121800
     19          6           0        0.235590    2.438307   -0.904000
     20          1           0        0.371991    2.102608   -1.941000
     21          6           0        0.181089    3.961907   -0.868900
     22          1           0        0.066688    4.324807    0.157900
     23          1           0        1.113188    4.380008   -1.252600
     24          1           0       -0.651812    4.324206   -1.480200
     25          6           0        1.464291    1.911309   -0.105100
     26          8           0        2.201890    2.700509    0.485400
     27          7           0        1.682492    0.576009   -0.124300
     28          1           0        1.055993   -0.056592   -0.622900
     29          6           0        2.828993    0.003710    0.561400
     30          1           0        3.656192    0.716911    0.471600
     31          6           0        2.545593   -0.232290    2.058200
     32          1           0        1.715994   -0.936291    2.180200
     33          1           0        3.425394   -0.640789    2.568400
     34          1           0        2.281892    0.719209    2.528000
     35          6           0        3.182194   -1.318690   -0.134000
     36          8           0        2.332995   -1.989590   -0.709900
     37          7           0        4.487495   -1.693088   -0.014300
     38          1           0        5.130794   -1.059288    0.438000
     39          6           0        5.000396   -2.942888   -0.548800
     40          1           0        4.159596   -3.473189   -0.997800
     41          1           0        5.760896   -2.762587   -1.317500
     42          1           0        5.436596   -3.562387    0.243400
 ---------------------------------------------------------------------

 SCF Done:  E(RHF) =  -984.693613662     A.U. after   14 cycles
 E2 =    -0.3196315462D+01 EUMP2 =    -0.98788992912475D+03

 The electronic state is 1-A.
 Alpha  occ. eigenvalues --  -20.55624 -20.53584 -20.53273 -20.52567 -15.61924
 Alpha  occ. eigenvalues --  -15.60224 -15.59167 -15.58412 -11.38298 -11.36470
 Alpha  occ. eigenvalues --  -11.36166 -11.36012 -11.30562 -11.30009 -11.29125
 Alpha  occ. eigenvalues --  -11.27285 -11.24315 -11.24167 -11.24113 -11.23672
 Alpha  occ. eigenvalues --   -1.41117  -1.39235  -1.38354  -1.37950  -1.26055
 Alpha  occ. eigenvalues --   -1.23976  -1.23852  -1.23219  -1.07591  -1.04807
 Alpha  occ. eigenvalues --   -1.03220  -0.98794  -0.96108  -0.91711  -0.90057
 Alpha  occ. eigenvalues --   -0.86442  -0.82161  -0.79665  -0.78963  -0.78295
 Alpha  occ. eigenvalues --   -0.74752  -0.72231  -0.68938  -0.68597  -0.67075
 Alpha  occ. eigenvalues --   -0.65831  -0.65190  -0.63647  -0.63496  -0.62939
 Alpha  occ. eigenvalues --   -0.61400  -0.60805  -0.60132  -0.59173  -0.58615
 Alpha  occ. eigenvalues --   -0.58240  -0.56756  -0.55813  -0.55499  -0.55128
 Alpha  occ. eigenvalues --   -0.54852  -0.54339  -0.54263  -0.53258  -0.53036
 Alpha  occ. eigenvalues --   -0.52510  -0.51869  -0.50142  -0.49637  -0.45776
 Alpha  occ. eigenvalues --   -0.44351  -0.43015  -0.42201  -0.40362  -0.40036
 Alpha  occ. eigenvalues --   -0.39058  -0.38484
 Alpha virt. eigenvalues --    0.02860   0.03235   0.03841   0.03964   0.04563
 Alpha virt. eigenvalues --    0.04886   0.05062   0.05613   0.05870   0.06326
 Alpha virt. eigenvalues --    0.06597   0.07141   0.07260   0.07806   0.08062

 Mulliken atomic charges:
              1
     1  H    0.041566
     2  C    0.382523
     3  H    0.046922
     4  H   -0.177054
     5  C    0.468306
     6  O   -0.877819
     7  N   -0.041235
     8  H   -0.100704
     9  C   -0.005859
    10  H   -0.186426
    11  C    0.871984
    12  H   -0.038774
    13  H   -0.076722
    14  H   -0.102954
    15  C    0.669430
    16  O   -0.956485
    17  N   -0.388256
    18  H   -0.033331
    19  C    0.266251
    20  H   -0.197555
    21  C    0.789832
    22  H   -0.026471
    23  H   -0.101102
    24  H   -0.040651
    25  C    0.449640
    26  O   -0.861586
    27  N    0.061189
    28  H   -0.026188
    29  C   -0.551091
    30  H   -0.228554
    31  C    0.989942
    32  H   -0.009283
    33  H   -0.119265
    34  H   -0.073422
    35  C    1.286251
    36  O   -0.885903
    37  N   -0.473251
    38  H   -0.122668
    39  C    0.731032
    40  H   -0.145688
    41  H   -0.096075
    42  H   -0.110496
 Sum of Mulliken atomic charges =   0.00000

 Dipole moment (field-independent basis, Debye):
    X=              3.4584    Y=             -0.2459    Z=              0.1714  Tot=              3.4714
 Quadrupole moment (field-independent basis, Debye-Ang):
   XX=           -123.1372   YY=           -117.5486   ZZ=           -121.4505
   XY=             -9.1655   XZ=              7.6408   YZ=             -5.0973

 Normal termination of Gaussian 09 at Wed Jan 18 21:55:11 2017.
