 Gaussian 09, Revision A.02,
 Gaussian 09:  EM64L-G09RevA.02 11-Jun-2009

 -------------------
 #SP MP2/aug-cc-pVDZ
 -------------------

 ------------------
 Phi Psi fixed scan
 ------------------
 Symbolic Z-matrix:
 Charge =  0 Multiplicity = 1

                         Standard orientation:
 ---------------------------------------------------------------------
 Center     Atomic      Atomic             Coordinates (Angstroms)
 Number     Number       Type             X           Y           Z
 ---------------------------------------------------------------------
      1          1           0       -6.475595   -2.623519   -0.323195
      2          6           0       -5.938596   -1.970418   -1.018395
      3          1           0       -6.676297   -1.560319   -1.714995
      4          1           0       -5.211795   -2.567317   -1.577895
      5          6           0       -5.315198   -0.824518   -0.234095
      6          8           0       -5.993399   -0.045218    0.430105
      7          7           0       -3.959598   -0.726616   -0.316795
      8          1           0       -3.406697   -1.339915   -0.903695
      9          6           0       -3.220299    0.336585    0.335505
     10          1           0       -3.797000    1.264384    0.238005
     11          6           0       -2.990799    0.050886    1.834205
     12          1           0       -2.423898   -0.876414    1.960805
     13          1           0       -2.427300    0.857286    2.315705
     14          1           0       -3.962199   -0.046616    2.325405
     15          6           0       -1.880899    0.468587   -0.397495
     16          8           0       -1.418398   -0.445212   -1.074995
     17          7           0       -1.244401    1.669988   -0.253795
     18          1           0       -1.573402    2.265287    0.496605
     19          6           0        0.175399    1.775090   -0.562495
     20          1           0        0.305599    1.479290   -1.608595
     21          6           0        0.644197    3.220990   -0.365395
     22          1           0        0.541397    3.517590    0.685305
     23          1           0        1.697797    3.323792   -0.641495
     24          1           0        0.053996    3.903690   -0.984895
     25          6           0        0.991400    0.819291    0.338505
     26          8           0        0.646901    0.574990    1.492105
     27          7           0        2.132201    0.345992   -0.216795
     28          1           0        2.384001    0.529993   -1.182095
     29          6           0        3.055702   -0.511206    0.502105
     30          1           0        3.179401   -0.106806    1.514205
     31          6           0        2.537304   -1.959407    0.606805
     32          1           0        2.418805   -2.394007   -0.390795
     33          1           0        3.226805   -2.587806    1.182205
     34          1           0        1.567104   -1.953308    1.109005
     35          6           0        4.391202   -0.453704   -0.258195
     36          8           0        4.443501   -0.079404   -1.427495
     37          7           0        5.474402   -0.873103    0.447605
     38          1           0        5.343303   -1.146403    1.411305
     39          6           0        6.809203   -0.951301   -0.122795
     40          1           0        6.740902   -0.621001   -1.159795
     41          1           0        7.506102   -0.299600    0.416305
     42          1           0        7.190204   -1.978601   -0.096195
 ---------------------------------------------------------------------

 SCF Done:  E(RHF) =  -984.700985312     A.U. after   15 cycles
 E2 =    -0.3192225672D+01 EUMP2 =    -0.98789321098369D+03

 The electronic state is 1-A.
 Alpha  occ. eigenvalues --  -20.54763 -20.54697 -20.53578 -20.51920 -15.61124
 Alpha  occ. eigenvalues --  -15.60190 -15.59575 -15.58505 -11.37557 -11.36887
 Alpha  occ. eigenvalues --  -11.36342 -11.35406 -11.30001 -11.29918 -11.28856
 Alpha  occ. eigenvalues --  -11.28005 -11.25070 -11.23914 -11.23885 -11.22683
 Alpha  occ. eigenvalues --   -1.40403  -1.40115  -1.38624  -1.37280  -1.24925
 Alpha  occ. eigenvalues --   -1.24856  -1.24348  -1.23088  -1.07465  -1.04894
 Alpha  occ. eigenvalues --   -1.02700  -0.98123  -0.96753  -0.91738  -0.89759
 Alpha  occ. eigenvalues --   -0.86558  -0.81564  -0.80130  -0.79050  -0.77934
 Alpha  occ. eigenvalues --   -0.74971  -0.71476  -0.69297  -0.68061  -0.67231
 Alpha  occ. eigenvalues --   -0.65364  -0.64853  -0.64319  -0.62960  -0.62420
 Alpha  occ. eigenvalues --   -0.61522  -0.61175  -0.60397  -0.59547  -0.58601
 Alpha  occ. eigenvalues --   -0.57554  -0.56530  -0.56168  -0.55890  -0.55696
 Alpha  occ. eigenvalues --   -0.55180  -0.53900  -0.53810  -0.53600  -0.52692
 Alpha  occ. eigenvalues --   -0.52164  -0.51724  -0.50265  -0.48769  -0.44459
 Alpha  occ. eigenvalues --   -0.43896  -0.43370  -0.41575  -0.41143  -0.40558
 Alpha  occ. eigenvalues --   -0.39345  -0.38435
 Alpha virt. eigenvalues --    0.02511   0.03367   0.03852   0.04071   0.04391
 Alpha virt. eigenvalues --    0.04851   0.05066   0.05785   0.06063   0.06289
 Alpha virt. eigenvalues --    0.06501   0.07146   0.07244   0.07534   0.07714

 Mulliken atomic charges:
              1
     1  H    0.040655
     2  C    0.394609
     3  H    0.042522
     4  H   -0.170433
     5  C    0.477282
     6  O   -0.876930
     7  N   -0.086967
     8  H   -0.109349
     9  C   -0.156571
    10  H   -0.189350
    11  C    0.917523
    12  H   -0.009983
    13  H   -0.084617
    14  H   -0.095719
    15  C    0.781416
    16  O   -0.925278
    17  N   -0.317958
    18  H    0.021790
    19  C    0.139858
    20  H   -0.284717
    21  C    0.795459
    22  H   -0.011597
    23  H   -0.082934
    24  H   -0.043909
    25  C    0.601675
    26  O   -0.921382
    27  N   -0.138401
    28  H   -0.113296
    29  C   -0.241578
    30  H   -0.192054
    31  C    0.854217
    32  H   -0.033547
    33  H   -0.090320
    34  H   -0.067298
    35  C    1.283713
    36  O   -0.901355
    37  N   -0.471438
    38  H   -0.124121
    39  C    0.711946
    40  H   -0.141417
    41  H   -0.085052
    42  H   -0.095092
 Sum of Mulliken atomic charges =   0.00000

 Dipole moment (field-independent basis, Debye):
    X=              5.7178    Y=             -0.4320    Z=              0.7414  Tot=              5.7819
 Quadrupole moment (field-independent basis, Debye-Ang):
   XX=           -123.4566   YY=           -108.2981   ZZ=           -127.0488
   XY=              0.3389   XZ=             20.6209   YZ=             -2.1521

 Normal termination of Gaussian 09 at Wed Jan 18 14:23:57 2017.
