 Gaussian 09, Revision A.02,
 Gaussian 09:  EM64L-G09RevA.02 11-Jun-2009

 -------------------
 #SP MP2/aug-cc-pVDZ
 -------------------

 ------------------
 Phi Psi fixed scan
 ------------------
 Symbolic Z-matrix:
 Charge =  0 Multiplicity = 1

                         Standard orientation:
 ---------------------------------------------------------------------
 Center     Atomic      Atomic             Coordinates (Angstroms)
 Number     Number       Type             X           Y           Z
 ---------------------------------------------------------------------
      1          1           0       -5.655803   -2.700005   -1.438299
      2          6           0       -4.917503   -2.796504   -0.635999
      3          1           0       -4.041802   -3.329103   -1.019099
      4          1           0       -5.377202   -3.391404    0.159301
      5          6           0       -4.600805   -1.411403   -0.092299
      6          8           0       -5.466206   -0.683405    0.386101
      7          7           0       -3.293205   -1.034702   -0.169499
      8          1           0       -2.589104   -1.609801   -0.616599
      9          6           0       -2.848307    0.278299    0.252601
     10          1           0       -3.599408    1.013098   -0.062499
     11          6           0       -2.686607    0.370499    1.784001
     12          1           0       -1.937306   -0.347300    2.133601
     13          1           0       -2.378308    1.374699    2.097301
     14          1           0       -3.647607    0.141098    2.250501
     15          6           0       -1.515707    0.553901   -0.456799
     16          8           0       -0.839806   -0.360399   -0.930699
     17          7           0       -1.157909    1.863501   -0.544599
     18          1           0       -1.707210    2.525700   -0.009799
     19          6           0        0.196990    2.308903   -0.911799
     20          1           0        0.406891    1.882103   -1.898899
     21          6           0        0.227288    3.831503   -0.983499
     22          1           0        0.099488    4.260803    0.014801
     23          1           0        1.194488    4.171804   -1.363499
     24          1           0       -0.558212    4.199802   -1.651299
     25          6           0        1.265991    1.787904    0.085001
     26          8           0        1.601490    2.454305    1.063401
     27          7           0        1.811193    0.587305   -0.224799
     28          1           0        1.356094   -0.013796   -0.906799
     29          6           0        2.782594   -0.051694    0.646201
     30          1           0        3.471293    0.726307    0.993101
     31          6           0        2.121194   -0.714295    1.871101
     32          1           0        1.405895   -1.476096    1.544801
     33          1           0        2.869895   -1.190494    2.514401
     34          1           0        1.596293    0.048505    2.452401
     35          6           0        3.523495   -1.102493   -0.193399
     36          8           0        2.965496   -1.691793   -1.112899
     37          7           0        4.805095   -1.349491    0.196601
     38          1           0        5.199095   -0.788791    0.938601
     39          6           0        5.638597   -2.361490   -0.429699
     40          1           0        5.034197   -2.854491   -1.192199
     41          1           0        6.517796   -1.911889   -0.905899
     42          1           0        5.973198   -3.105490    0.302401
 ---------------------------------------------------------------------

 SCF Done:  E(RHF) =  -984.696507059     A.U. after   15 cycles
 E2 =    -0.3195536729D+01 EUMP2 =    -0.98789204378742D+03

 The electronic state is 1-A.
 Alpha  occ. eigenvalues --  -20.55569 -20.53713 -20.53483 -20.52564 -15.61642
 Alpha  occ. eigenvalues --  -15.60411 -15.59185 -15.58837 -11.38062 -11.36610
 Alpha  occ. eigenvalues --  -11.36159 -11.36015 -11.30286 -11.29886 -11.29286
 Alpha  occ. eigenvalues --  -11.27403 -11.24356 -11.24249 -11.23999 -11.23579
 Alpha  occ. eigenvalues --   -1.40984  -1.39356  -1.38441  -1.37949  -1.25800
 Alpha  occ. eigenvalues --   -1.24146  -1.23869  -1.23569  -1.07578  -1.04898
 Alpha  occ. eigenvalues --   -1.03109  -0.98786  -0.96237  -0.91780  -0.90055
 Alpha  occ. eigenvalues --   -0.86389  -0.82002  -0.79767  -0.78903  -0.78331
 Alpha  occ. eigenvalues --   -0.74742  -0.72095  -0.69121  -0.68529  -0.66815
 Alpha  occ. eigenvalues --   -0.65963  -0.65021  -0.63781  -0.63506  -0.63030
 Alpha  occ. eigenvalues --   -0.61457  -0.60671  -0.60250  -0.59300  -0.59055
 Alpha  occ. eigenvalues --   -0.58185  -0.56755  -0.56085  -0.55530  -0.55272
 Alpha  occ. eigenvalues --   -0.54821  -0.54347  -0.53918  -0.53079  -0.52891
 Alpha  occ. eigenvalues --   -0.52570  -0.51900  -0.50515  -0.49580  -0.45553
 Alpha  occ. eigenvalues --   -0.44423  -0.43179  -0.42196  -0.40647  -0.40099
 Alpha  occ. eigenvalues --   -0.39123  -0.38489
 Alpha virt. eigenvalues --    0.02807   0.03255   0.03698   0.04118   0.04490
 Alpha virt. eigenvalues --    0.04856   0.05019   0.05615   0.05983   0.06259
 Alpha virt. eigenvalues --    0.06613   0.07059   0.07215   0.07796   0.08065

 Mulliken atomic charges:
              1
     1  H    0.046870
     2  C    0.389899
     3  H   -0.176409
     4  H    0.039542
     5  C    0.463203
     6  O   -0.875930
     7  N   -0.023749
     8  H   -0.106972
     9  C   -0.074636
    10  H   -0.176896
    11  C    0.910206
    12  H   -0.033284
    13  H   -0.072932
    14  H   -0.114098
    15  C    0.769409
    16  O   -0.915331
    17  N   -0.437217
    18  H   -0.018152
    19  C    0.235682
    20  H   -0.345528
    21  C    0.732820
    22  H    0.014124
    23  H   -0.082437
    24  H   -0.024816
    25  C    0.662292
    26  O   -0.911409
    27  N   -0.141408
    28  H    0.034776
    29  C   -0.279686
    30  H   -0.260146
    31  C    0.882623
    32  H    0.031138
    33  H   -0.159484
    34  H   -0.051105
    35  C    1.157983
    36  O   -0.885761
    37  N   -0.464906
    38  H   -0.123082
    39  C    0.724027
    40  H   -0.145137
    41  H   -0.088451
    42  H   -0.105630
 Sum of Mulliken atomic charges =   0.00000

 Dipole moment (field-independent basis, Debye):
    X=              3.8143    Y=             -0.0999    Z=              0.3581  Tot=              3.8324
 Quadrupole moment (field-independent basis, Debye-Ang):
   XX=           -121.7470   YY=           -115.5395   ZZ=           -123.9686
   XY=             -3.8531   XZ=             10.3130   YZ=             -9.1273

 Normal termination of Gaussian 09 at Wed Jan 18 23:45:48 2017.
