 Gaussian 09, Revision A.02,
 Gaussian 09:  EM64L-G09RevA.02 11-Jun-2009

 -------------------
 #SP MP2/aug-cc-pVDZ
 -------------------

 -------------------------------
 Single Point calculation at MP2
 -------------------------------
 Symbolic Z-matrix:
 Charge =  0 Multiplicity = 1

                         Standard orientation:
 ---------------------------------------------------------------------
 Center     Atomic      Atomic             Coordinates (Angstroms)
 Number     Number       Type             X           Y           Z
 ---------------------------------------------------------------------
      1          1           0       -3.674503   -0.867298    1.051004
      2          6           0       -3.402904   -0.380098    0.109504
      3          1           0       -3.790104    0.643302    0.114604
      4          1           0       -3.886703   -0.939098   -0.696896
      5          6           0       -1.893004   -0.486397   -0.071496
      6          8           0       -1.373103   -1.603197   -0.123196
      7          7           0       -1.250504    0.708903   -0.166396
      8          1           0       -1.870105    1.503903   -0.085696
      9          6           0        0.150295    1.168704   -0.358996
     10          1           0        0.229695    1.491204   -1.406296
     11          6           0        0.347095    2.409004    0.529604
     12          1           0        0.258495    2.141404    1.588204
     13          1           0        1.339994    2.821605    0.349504
     14          1           0       -0.401606    3.178204    0.301304
     15          6           0        1.395996    0.254505   -0.184496
     16          8           0        2.483796    0.801405   -0.368196
     17          7           0        1.263797   -1.037595    0.159904
     18          1           0        0.331797   -1.459096    0.122504
     19          6           0        2.442697   -1.881495    0.266204
     20          1           0        3.183897   -1.412594    0.919204
     21          1           0        2.144698   -2.844395    0.687604
     22          1           0        2.914797   -2.047294   -0.710396
 ---------------------------------------------------------------------

 SCF Done:  E(RHF) =  -492.911965357     A.U. after   14 cycles
 E2 =    -0.1604982467D+01 EUMP2 =    -0.49451694782479D+03

 The electronic state is 1-A.
 Alpha  occ. eigenvalues --  -20.54798 -20.51739 -15.61943 -15.57232 -11.38653
 Alpha  occ. eigenvalues --  -11.35415 -11.30636 -11.26075 -11.25463 -11.24111
 Alpha  occ. eigenvalues --   -1.40224  -1.37328  -1.25654  -1.21670  -1.06483
 Alpha  occ. eigenvalues --   -1.00144  -0.94943  -0.87999  -0.82310  -0.77153
 Alpha  occ. eigenvalues --   -0.71268  -0.70476  -0.66788  -0.63111  -0.62382
 Alpha  occ. eigenvalues --   -0.61618  -0.60152  -0.58979  -0.58079  -0.56174
 Alpha  occ. eigenvalues --   -0.54342  -0.53748  -0.53176  -0.52222  -0.49724
 Alpha  occ. eigenvalues --   -0.44061  -0.41919  -0.40879  -0.37688
 Alpha virt. eigenvalues --    0.02345   0.04068   0.04334   0.04541   0.05653
 Alpha virt. eigenvalues --    0.06215   0.06543   0.06701   0.07183   0.08019
 Alpha virt. eigenvalues --    0.09213   0.09738   0.11673   0.11839   0.12486

 Mulliken atomic charges:
              1
     1  H    0.036664
     2  C    0.472209
     3  H   -0.201540
     4  H    0.042765
     5  C    0.528826
     6  O   -0.931531
     7  N   -0.526990
     8  H   -0.004826
     9  C    0.148504
    10  H    0.007949
    11  C    0.638396
    12  H   -0.038513
    13  H   -0.046021
    14  H   -0.114051
    15  C    0.819365
    16  O   -0.882423
    17  N   -0.334614
    18  H    0.000204
    19  C    0.715965
    20  H   -0.091696
    21  H   -0.206638
    22  H   -0.032004
 Sum of Mulliken atomic charges =   0.00000

 Dipole moment (field-independent basis, Debye):
    X=             -4.7497    Y=              1.5892    Z=              0.6669  Tot=              5.0527
 Quadrupole moment (field-independent basis, Debye-Ang):
   XX=            -61.9227   YY=            -60.8588   ZZ=            -61.2079
   XY=            -10.5465   XZ=              1.8927   YZ=             -0.4996

 Normal termination of Gaussian 09 at Mon Feb 13 22:09:44 2017.
