 Gaussian 09, Revision A.02,
 Gaussian 09:  EM64L-G09RevA.02 11-Jun-2009

 -------------------
 #SP MP2/aug-cc-pVDZ
 -------------------

 -------------------------------
 Single Point calculation at MP2
 -------------------------------
 Symbolic Z-matrix:
 Charge =  0 Multiplicity = 1

                         Standard orientation:
 ---------------------------------------------------------------------
 Center     Atomic      Atomic             Coordinates (Angstroms)
 Number     Number       Type             X           Y           Z
 ---------------------------------------------------------------------
      1          1           0       -3.417689   -1.917837    0.003785
      2          6           0       -3.107298   -0.912635    0.295485
      3          1           0       -3.143098   -0.850935    1.389685
      4          1           0       -3.811404   -0.180440   -0.114015
      5          6           0       -1.675999   -0.686723   -0.167215
      6          8           0       -0.866892   -1.599016   -0.265815
      7          7           0       -1.369110    0.612880   -0.500115
      8          1           0       -2.074016    1.300674   -0.265015
      9          6           0        0.000085    1.142791   -0.531215
     10          1           0        0.311485    1.245494   -1.581115
     11          6           0        0.035474    2.521591    0.132785
     12          1           0       -0.178825    2.419490    1.200285
     13          1           0        1.026870    2.971699    0.021285
     14          1           0       -0.695032    3.197385   -0.328215
     15          6           0        1.001593    0.212799    0.195985
     16          8           0        0.965394    0.077299    1.410585
     17          7           0        2.016197   -0.263092   -0.586715
     18          1           0        1.815998   -0.345994   -1.574815
     19          6           0        2.955005   -1.229485   -0.033415
     20          1           0        3.263802   -0.885782    0.955085
     21          1           0        2.500813   -2.222788    0.073585
     22          1           0        3.830306   -1.295777   -0.685315
 ---------------------------------------------------------------------

 SCF Done:  E(RHF) =  -492.917441321     A.U. after   15 cycles
 E2 =    -0.1603952000D+01 EUMP2 =    -0.49452139332062D+03

 The electronic state is 1-A.
 Alpha  occ. eigenvalues --  -20.53278 -20.52272 -15.59966 -15.58624 -11.36438
 Alpha  occ. eigenvalues --  -11.35385 -11.29679 -11.25674 -11.24757 -11.24234
 Alpha  occ. eigenvalues --   -1.39064  -1.37358  -1.24039  -1.22289  -1.05649
 Alpha  occ. eigenvalues --   -0.99265  -0.95139  -0.87221  -0.80531  -0.77042
 Alpha  occ. eigenvalues --   -0.70131  -0.69053  -0.66971  -0.63092  -0.61794
 Alpha  occ. eigenvalues --   -0.61377  -0.59535  -0.58154  -0.57373  -0.54643
 Alpha  occ. eigenvalues --   -0.54423  -0.53801  -0.53278  -0.51577  -0.49473
 Alpha  occ. eigenvalues --   -0.42577  -0.42432  -0.39676  -0.38662
 Alpha virt. eigenvalues --    0.02793   0.03693   0.04348   0.04698   0.05645
 Alpha virt. eigenvalues --    0.06129   0.06540   0.06935   0.07433   0.08147
 Alpha virt. eigenvalues --    0.09004   0.09239   0.11025   0.12097   0.12565

 Mulliken atomic charges:
              1
     1  H   -0.018700
     2  C    0.361471
     3  H    0.072875
     4  H   -0.076366
     5  C    0.644095
     6  O   -0.848017
     7  N   -0.483823
     8  H   -0.004634
     9  C   -0.063170
    10  H   -0.292937
    11  C    0.648486
    12  H    0.027041
    13  H   -0.063678
    14  H   -0.062328
    15  C    1.319785
    16  O   -0.938637
    17  N   -0.545675
    18  H   -0.071086
    19  C    0.725966
    20  H   -0.103385
    21  H   -0.038768
    22  H   -0.188515
 Sum of Mulliken atomic charges =   0.00000

 Dipole moment (field-independent basis, Debye):
    X=             -1.6347    Y=              2.7753    Z=             -2.7447  Tot=              4.2318
 Quadrupole moment (field-independent basis, Debye-Ang):
   XX=            -48.8044   YY=            -61.5116   ZZ=            -64.1634
   XY=             -4.1600   XZ=             -5.5359   YZ=             -0.7099

 Normal termination of Gaussian 09 at Mon Feb 13 22:09:19 2017.
