 Gaussian 09, Revision A.02,
 Gaussian 09:  EM64L-G09RevA.02 11-Jun-2009

 -------------------
 #SP MP2/aug-cc-pVDZ
 -------------------

 -------------------------------
 Single Point calculation at MP2
 -------------------------------
 Symbolic Z-matrix:
 Charge =  0 Multiplicity = 1

                         Standard orientation:
 ---------------------------------------------------------------------
 Center     Atomic      Atomic             Coordinates (Angstroms)
 Number     Number       Type             X           Y           Z
 ---------------------------------------------------------------------
      1          1           0        3.921706    0.518644   -0.200309
      2          6           0        3.431614   -0.415760    0.098491
      3          1           0        3.562415   -0.533859    1.181291
      4          1           0        3.915921   -1.253456   -0.405109
      5          6           0        1.945814   -0.428072   -0.249709
      6          8           0        1.402422   -1.394277   -0.748309
      7          7           0        1.312504    0.791822   -0.024309
      8          1           0        1.938298    1.475527    0.387291
      9          6           0       -0.067198    1.051211    0.427691
     10          1           0       -0.035000    1.223011    1.514091
     11          6           0       -0.562109    2.341107   -0.242209
     12          1           0       -0.643908    2.216706   -1.328209
     13          1           0       -1.527712    2.657199    0.165891
     14          1           0        0.150884    3.154213   -0.064909
     15          6           0       -1.015888   -0.170497    0.331991
     16          8           0       -0.759480   -1.202695    0.930691
     17          7           0       -2.256690    0.074793   -0.196809
     18          1           0       -2.353797    0.831592   -0.858409
     19          6           0       -3.233581   -1.002215   -0.275009
     20          1           0       -3.214077   -1.555415    0.665191
     21          1           0       -4.227585   -0.573123   -0.427709
     22          1           0       -3.013276   -1.706213   -1.087809
 ---------------------------------------------------------------------

 SCF Done:  E(RHF) =  -492.897340836     A.U. after   14 cycles
 E2 =    -0.1604844631D+01 EUMP2 =    -0.49450218546613D+03

 The electronic state is 1-A.
 Alpha  occ. eigenvalues --  -20.52560 -20.52181 -15.59321 -15.59231 -11.35730
 Alpha  occ. eigenvalues --  -11.35705 -11.30306 -11.26271 -11.24947 -11.24291
 Alpha  occ. eigenvalues --   -1.38524  -1.37238  -1.23505  -1.22534  -1.05764
 Alpha  occ. eigenvalues --   -0.98883  -0.94907  -0.88716  -0.80052  -0.77198
 Alpha  occ. eigenvalues --   -0.70082  -0.68486  -0.65533  -0.64084  -0.61615
 Alpha  occ. eigenvalues --   -0.60838  -0.59789  -0.57452  -0.57068  -0.56331
 Alpha  occ. eigenvalues --   -0.54969  -0.54162  -0.53641  -0.51912  -0.49122
 Alpha  occ. eigenvalues --   -0.42364  -0.40886  -0.39481  -0.38532
 Alpha virt. eigenvalues --    0.02583   0.03477   0.04345   0.04484   0.05611
 Alpha virt. eigenvalues --    0.05844   0.06362   0.06881   0.07325   0.07822
 Alpha virt. eigenvalues --    0.09046   0.09525   0.10513   0.11652   0.12915

 Mulliken atomic charges:
              1
     1  H   -0.030044
     2  C    0.309785
     3  H    0.053249
     4  H   -0.054675
     5  C    0.706599
     6  O   -0.763127
     7  N   -0.618253
     8  H   -0.052247
     9  C   -0.003600
    10  H   -0.016225
    11  C    0.745420
    12  H    0.010367
    13  H    0.024817
    14  H   -0.191499
    15  C    0.973176
    16  O   -0.850103
    17  N   -0.531201
    18  H   -0.127485
    19  C    0.755898
    20  H   -0.097010
    21  H   -0.196477
    22  H   -0.047366
 Sum of Mulliken atomic charges =   0.00000

 Dipole moment (field-independent basis, Debye):
    X=             -0.2088    Y=              5.6578    Z=             -0.0038  Tot=              5.6616
 Quadrupole moment (field-independent basis, Debye-Ang):
   XX=            -46.4323   YY=            -64.5060   ZZ=            -63.0382
   XY=              2.7306   XZ=              6.5672   YZ=              0.9837

 Normal termination of Gaussian 09 at Mon Feb 13 22:14:56 2017.
