 Gaussian 09, Revision A.02,
 Gaussian 09:  EM64L-G09RevA.02 11-Jun-2009

 -------------------
 #SP MP2/aug-cc-pVDZ
 -------------------

 -------------------------------
 Single Point calculation at MP2
 -------------------------------
 Symbolic Z-matrix:
 Charge =  0 Multiplicity = 1

                         Standard orientation:
 ---------------------------------------------------------------------
 Center     Atomic      Atomic             Coordinates (Angstroms)
 Number     Number       Type             X           Y           Z
 ---------------------------------------------------------------------
      1          1           0       -3.836199   -0.847640   -0.875697
      2          6           0       -3.394593   -0.430347    0.034803
      3          1           0       -3.687403   -1.079242    0.865103
      4          1           0       -3.806177    0.570060    0.199803
      5          6           0       -1.877493   -0.474171   -0.103297
      6          8           0       -1.303811   -1.557080   -0.224697
      7          7           0       -1.267474    0.742619   -0.072297
      8          1           0       -1.897062    1.523729    0.056303
      9          6           0        0.120933    1.201597   -0.298397
     10          1           0        0.148841    1.657796   -1.294897
     11          6           0        0.439151    2.294392    0.738703
     12          1           0        0.449244    1.872892    1.748903
     13          1           0        1.419058    2.724676    0.520503
     14          1           0       -0.306636    3.098704    0.702303
     15          6           0        1.328118    0.230578   -0.323397
     16          8           0        2.334924    0.643261   -0.892797
     17          7           0        1.292400   -0.902722    0.421503
     18          1           0        0.375593   -1.346707    0.481003
     19          6           0        2.456786   -1.778441    0.419903
     20          1           0        3.351895   -1.191655    0.636403
     21          1           0        2.324574   -2.538238    1.194403
     22          1           0        2.603478   -2.274743   -0.548497
 ---------------------------------------------------------------------

 SCF Done:  E(RHF) =  -492.912870598     A.U. after   14 cycles
 E2 =    -0.1604224429D+01 EUMP2 =    -0.49451709502701D+03

 The electronic state is 1-A.
 Alpha  occ. eigenvalues --  -20.54520 -20.52463 -15.61775 -15.57261 -11.38411
 Alpha  occ. eigenvalues --  -11.35547 -11.30350 -11.26004 -11.25326 -11.24500
 Alpha  occ. eigenvalues --   -1.40032  -1.37761  -1.25537  -1.21644  -1.06525
 Alpha  occ. eigenvalues --   -1.00211  -0.94566  -0.88195  -0.82245  -0.76543
 Alpha  occ. eigenvalues --   -0.71045  -0.70562  -0.66465  -0.63043  -0.62517
 Alpha  occ. eigenvalues --   -0.62179  -0.60085  -0.58596  -0.57765  -0.56579
 Alpha  occ. eigenvalues --   -0.54744  -0.53579  -0.53217  -0.51915  -0.49940
 Alpha  occ. eigenvalues --   -0.44156  -0.41913  -0.41002  -0.38122
 Alpha virt. eigenvalues --    0.02319   0.04038   0.04192   0.04625   0.05683
 Alpha virt. eigenvalues --    0.06113   0.06509   0.06857   0.07076   0.08032
 Alpha virt. eigenvalues --    0.08858   0.10248   0.11349   0.11959   0.12545

 Mulliken atomic charges:
              1
     1  H    0.054966
     2  C    0.459545
     3  H    0.036477
     4  H   -0.193731
     5  C    0.490386
     6  O   -0.892653
     7  N   -0.494184
     8  H   -0.023187
     9  C    0.460639
    10  H   -0.071565
    11  C    0.507551
    12  H   -0.018722
    13  H   -0.034763
    14  H   -0.126298
    15  C    0.833765
    16  O   -0.900915
    17  N   -0.483039
    18  H   -0.005581
    19  C    0.760251
    20  H   -0.121335
    21  H   -0.190883
    22  H   -0.046724
 Sum of Mulliken atomic charges =   0.00000

 Dipole moment (field-independent basis, Debye):
    X=             -4.5719    Y=              1.9422    Z=              1.8530  Tot=              5.3017
 Quadrupole moment (field-independent basis, Debye-Ang):
   XX=            -59.6299   YY=            -60.0947   ZZ=            -63.2265
   XY=             -8.8765   XZ=              4.3864   YZ=             -0.2012

 Normal termination of Gaussian 09 at Mon Feb 13 23:22:21 2017.
