 Gaussian 09, Revision A.02,
 Gaussian 09:  EM64L-G09RevA.02 11-Jun-2009

 -------------------
 #SP MP2/aug-cc-pVDZ
 -------------------

 -------------------------------
 Single Point calculation at MP2
 -------------------------------
 Symbolic Z-matrix:
 Charge =  0 Multiplicity = 1

                         Standard orientation:
 ---------------------------------------------------------------------
 Center     Atomic      Atomic             Coordinates (Angstroms)
 Number     Number       Type             X           Y           Z
 ---------------------------------------------------------------------
      1          1           0       -3.469003   -0.781073    1.360604
      2          6           0       -3.326801   -0.489174    0.314804
      3          1           0       -3.778994    0.495329    0.160904
      4          1           0       -3.849306   -1.224470   -0.302896
      5          6           0       -1.838301   -0.557484   -0.007096
      6          8           0       -1.270309   -1.650688   -0.006896
      7          7           0       -1.268093    0.644612   -0.299196
      8          1           0       -1.916187    1.418616   -0.251096
      9          6           0        0.123211    1.138202   -0.482296
     10          1           0        0.279811    1.240401   -1.567596
     11          6           0        0.193920    2.535201    0.141804
     12          1           0        0.043520    2.483902    1.224804
     13          1           0        1.175624    2.971094   -0.040896
     14          1           0       -0.571275    3.190307   -0.293696
     15          6           0        1.348605    0.292893   -0.011096
     16          8           0        2.317909    0.891386    0.451304
     17          7           0        1.363695   -1.027207   -0.297096
     18          1           0        0.455992   -1.489101   -0.388096
     19          6           0        2.518990   -1.827215    0.078804
     20          1           0        3.431293   -1.358522   -0.298296
     21          1           0        2.617889   -1.927116    1.167704
     22          1           0        2.412883   -2.821314   -0.362196
 ---------------------------------------------------------------------

 SCF Done:  E(RHF) =  -492.910818798     A.U. after   14 cycles
 E2 =    -0.1604739333D+01 EUMP2 =    -0.49451555813147D+03

 The electronic state is 1-A.
 Alpha  occ. eigenvalues --  -20.54725 -20.52370 -15.61811 -15.56946 -11.38505
 Alpha  occ. eigenvalues --  -11.35463 -11.30691 -11.25989 -11.25294 -11.23775
 Alpha  occ. eigenvalues --   -1.40123  -1.37659  -1.25547  -1.21524  -1.06356
 Alpha  occ. eigenvalues --   -1.00014  -0.94964  -0.87596  -0.82114  -0.76609
 Alpha  occ. eigenvalues --   -0.71231  -0.70062  -0.67431  -0.63259  -0.62629
 Alpha  occ. eigenvalues --   -0.60720  -0.60380  -0.59403  -0.57914  -0.55627
 Alpha  occ. eigenvalues --   -0.53975  -0.53334  -0.52672  -0.52140  -0.50456
 Alpha  occ. eigenvalues --   -0.44090  -0.43056  -0.40320  -0.37636
 Alpha virt. eigenvalues --    0.02405   0.04040   0.04376   0.04554   0.05595
 Alpha virt. eigenvalues --    0.06207   0.06452   0.06907   0.07053   0.08000
 Alpha virt. eigenvalues --    0.09185   0.09783   0.11457   0.12281   0.12489

 Mulliken atomic charges:
              1
     1  H    0.046793
     2  C    0.450665
     3  H   -0.186858
     4  H    0.029657
     5  C    0.577180
     6  O   -0.918195
     7  N   -0.523282
     8  H   -0.040006
     9  C    0.174507
    10  H   -0.033048
    11  C    0.689546
    12  H   -0.049861
    13  H   -0.067987
    14  H   -0.062132
    15  C    0.685346
    16  O   -0.807069
    17  N   -0.369386
    18  H    0.005784
    19  C    0.763189
    20  H   -0.112734
    21  H   -0.052915
    22  H   -0.199194
 Sum of Mulliken atomic charges =   0.00000

 Dipole moment (field-independent basis, Debye):
    X=             -4.4444    Y=              1.4579    Z=             -0.9030  Tot=              4.7638
 Quadrupole moment (field-independent basis, Debye-Ang):
   XX=            -59.7925   YY=            -61.8223   ZZ=            -61.5209
   XY=             -9.7284   XZ=             -3.0212   YZ=             -1.9955

 Normal termination of Gaussian 09 at Tue Feb 14 02:54:46 2017.
