 Gaussian 09, Revision A.02,
 Gaussian 09:  EM64L-G09RevA.02 11-Jun-2009

 -------------------
 #SP MP2/aug-cc-pVDZ
 -------------------

 -------------------------------
 Single Point calculation at MP2
 -------------------------------
 Symbolic Z-matrix:
 Charge =  0 Multiplicity = 1

                         Standard orientation:
 ---------------------------------------------------------------------
 Center     Atomic      Atomic             Coordinates (Angstroms)
 Number     Number       Type             X           Y           Z
 ---------------------------------------------------------------------
      1          1           0       -3.024091   -0.569216    1.529001
      2          6           0       -3.188891   -0.589717    0.444801
      3          1           0       -3.840095    0.251580    0.181601
      4          1           0       -3.684486   -1.527519    0.188701
      5          6           0       -1.843591   -0.533410   -0.261999
      6          8           0       -1.265886   -1.528407   -0.663699
      7          7           0       -1.354697    0.749593   -0.478599
      8          1           0       -1.903101    1.465690   -0.015799
      9          6           0        0.075301    1.072100   -0.486499
     10          1           0        0.393700    1.245302   -1.525399
     11          6           0        0.311194    2.360302    0.315401
     12          1           0        0.064895    2.193200    1.369201
     13          1           0        1.359393    2.665807    0.249301
     14          1           0       -0.307510    3.177398   -0.074399
     15          6           0        0.961307   -0.039095    0.120801
     16          8           0        0.659710   -0.611997    1.156901
     17          7           0        2.218007   -0.096288   -0.423199
     18          1           0        2.328405    0.225312   -1.375799
     19          6           0        3.197612   -1.053083    0.070101
     20          1           0        3.053312   -1.159084    1.146101
     21          1           0        3.082317   -2.042184   -0.391899
     22          1           0        4.205910   -0.678778   -0.129299
 ---------------------------------------------------------------------

 SCF Done:  E(RHF) =  -492.910891887     A.U. after   15 cycles
 E2 =    -0.1604736866D+01 EUMP2 =    -0.49451562875363D+03

 The electronic state is 1-A.
 Alpha  occ. eigenvalues --  -20.52609 -20.52579 -15.59345 -15.59155 -11.35738
 Alpha  occ. eigenvalues --  -11.35633 -11.29866 -11.26387 -11.24884 -11.24119
 Alpha  occ. eigenvalues --   -1.38839  -1.37249  -1.23519  -1.22732  -1.05599
 Alpha  occ. eigenvalues --   -0.98882  -0.95533  -0.87584  -0.80009  -0.77379
 Alpha  occ. eigenvalues --   -0.70143  -0.68214  -0.66719  -0.63294  -0.62372
 Alpha  occ. eigenvalues --   -0.61122  -0.59332  -0.57782  -0.57359  -0.55282
 Alpha  occ. eigenvalues --   -0.54493  -0.54392  -0.53403  -0.52013  -0.48629
 Alpha  occ. eigenvalues --   -0.42921  -0.41767  -0.39465  -0.38827
 Alpha virt. eigenvalues --    0.02792   0.03553   0.04435   0.04614   0.05717
 Alpha virt. eigenvalues --    0.06052   0.06339   0.06890   0.07388   0.08109
 Alpha virt. eigenvalues --    0.08933   0.09334   0.11004   0.11922   0.12636

 Mulliken atomic charges:
              1
     1  H    0.074414
     2  C    0.305503
     3  H   -0.031181
     4  H   -0.042466
     5  C    0.714167
     6  O   -0.835907
     7  N   -0.580381
     8  H    0.031547
     9  C    0.006322
    10  H   -0.271317
    11  C    0.616651
    12  H    0.032559
    13  H   -0.086025
    14  H   -0.046043
    15  C    1.266277
    16  O   -0.900536
    17  N   -0.530333
    18  H   -0.102044
    19  C    0.727288
    20  H   -0.109379
    21  H   -0.055406
    22  H   -0.183710
 Sum of Mulliken atomic charges =   0.00000

 Dipole moment (field-independent basis, Debye):
    X=              0.5734    Y=              4.4242    Z=             -1.1162  Tot=              4.5987
 Quadrupole moment (field-independent basis, Debye-Ang):
   XX=            -47.0533   YY=            -63.0810   ZZ=            -63.6409
   XY=             -3.9682   XZ=             -6.9506   YZ=             -0.7628

 Normal termination of Gaussian 09 at Mon Feb 13 22:24:49 2017.
