 Gaussian 09, Revision A.02,
 Gaussian 09:  EM64L-G09RevA.02 11-Jun-2009

 -------------------
 #SP MP2/aug-cc-pVDZ
 -------------------

 -------------------------------
 Single Point calculation at MP2
 -------------------------------
 Symbolic Z-matrix:
 Charge =  0 Multiplicity = 1

                         Standard orientation:
 ---------------------------------------------------------------------
 Center     Atomic      Atomic             Coordinates (Angstroms)
 Number     Number       Type             X           Y           Z
 ---------------------------------------------------------------------
      1          1           0       -3.964303   -1.237445   -0.106604
      2          6           0       -3.022902   -1.376438    0.434796
      3          1           0       -2.563294   -2.314934    0.109496
      4          1           0       -3.267101   -1.448340    1.498596
      5          6           0       -2.151812   -0.140930    0.221496
      6          8           0       -2.505821    0.957567    0.631996
      7          7           0       -0.988710   -0.389321   -0.455604
      8          1           0       -0.818802   -1.340020   -0.757104
      9          6           0        0.081583    0.530988   -0.868504
     10          1           0        0.093883    0.559388   -1.966204
     11          6           0       -0.055129    1.965687   -0.354804
     12          1           0       -0.135329    2.021286    0.733996
     13          1           0        0.817766    2.539194   -0.687804
     14          1           0       -0.955633    2.435379   -0.750504
     15          6           0        1.394089   -0.199401   -0.494904
     16          8           0        1.731597   -1.186899   -1.143304
     17          7           0        2.063885    0.247904    0.599096
     18          1           0        1.704679    1.052601    1.090596
     19          6           0        3.262490   -0.400086    1.103796
     20          1           0        3.511397   -1.208484    0.415396
     21          1           0        4.099285    0.305921    1.151596
     22          1           0        3.095094   -0.818887    2.103296
 ---------------------------------------------------------------------

 SCF Done:  E(RHF) =  -492.915431891     A.U. after   14 cycles
 E2 =    -0.1601519949D+01 EUMP2 =    -0.49451695184086D+03

 The electronic state is 1-A.
 Alpha  occ. eigenvalues --  -20.53633 -20.52690 -15.60413 -15.60127 -11.36649
 Alpha  occ. eigenvalues --  -11.36577 -11.30068 -11.27382 -11.24647 -11.23830
 Alpha  occ. eigenvalues --   -1.39188  -1.38088  -1.24458  -1.23636  -1.05998
 Alpha  occ. eigenvalues --   -0.99152  -0.95945  -0.89789  -0.80233  -0.77225
 Alpha  occ. eigenvalues --   -0.72693  -0.69314  -0.66307  -0.65102  -0.62357
 Alpha  occ. eigenvalues --   -0.61791  -0.59270  -0.58994  -0.56673  -0.55862
 Alpha  occ. eigenvalues --   -0.55701  -0.54373  -0.53277  -0.52142  -0.50880
 Alpha  occ. eigenvalues --   -0.43949  -0.41872  -0.39898  -0.38892
 Alpha virt. eigenvalues --    0.02994   0.03788   0.04150   0.04937   0.05531
 Alpha virt. eigenvalues --    0.06004   0.06506   0.06725   0.07280   0.07715
 Alpha virt. eigenvalues --    0.09197   0.09939   0.10920   0.11693   0.12955

 Mulliken atomic charges:
              1
     1  H    0.048328
     2  C    0.406838
     3  H   -0.169280
     4  H    0.034409
     5  C    0.589947
     6  O   -0.837695
     7  N   -0.503479
     8  H   -0.068939
     9  C    0.333526
    10  H   -0.104099
    11  C    0.707640
    12  H    0.086251
    13  H   -0.121928
    14  H   -0.066415
    15  C    0.880104
    16  O   -0.919611
    17  N   -0.582874
    18  H   -0.104120
    19  C    0.730398
    20  H   -0.146883
    21  H   -0.101561
    22  H   -0.090555
 Sum of Mulliken atomic charges =   0.00000

 Dipole moment (field-independent basis, Debye):
    X=              1.2670    Y=             -0.1101    Z=              1.1311  Tot=              1.7020
 Quadrupole moment (field-independent basis, Debye-Ang):
   XX=            -62.9604   YY=            -61.9833   ZZ=            -61.8208
   XY=             13.1822   XZ=              9.5968   YZ=             -4.6142

 Normal termination of Gaussian 09 at Sun Feb 12 18:13:32 2017.
