 Gaussian 09, Revision A.02,
 Gaussian 09:  EM64L-G09RevA.02 11-Jun-2009

 -------------------
 #SP MP2/aug-cc-pVDZ
 -------------------

 -------------------------------
 Single Point calculation at MP2
 -------------------------------
 Symbolic Z-matrix:
 Charge =  0 Multiplicity = 1

                         Standard orientation:
 ---------------------------------------------------------------------
 Center     Atomic      Atomic             Coordinates (Angstroms)
 Number     Number       Type             X           Y           Z
 ---------------------------------------------------------------------
      1          1           0       -4.158389   -1.101592    0.074503
      2          6           0       -3.118689   -1.302993    0.343103
      3          1           0       -2.773591   -2.198394   -0.182897
      4          1           0       -3.086890   -1.500193    1.421003
      5          6           0       -2.289887   -0.056695    0.043603
      6          8           0       -2.731585    1.063906    0.270703
      7          7           0       -1.064288   -0.328697   -0.506297
      8          1           0       -0.776189   -1.302797   -0.514597
      9          6           0        0.101214    0.544301   -0.635097
     10          1           0        0.258014    0.765401   -1.703697
     11          6           0       -0.001984    1.883201    0.111403
     12          1           0       -0.004584    1.739801    1.196303
     13          1           0        0.839917    2.532000   -0.159097
     14          1           0       -0.925683    2.393203   -0.154997
     15          6           0        1.318512   -0.318801   -0.199697
     16          8           0        1.233710   -1.545001   -0.161197
     17          7           0        2.469013    0.349997    0.068003
     18          1           0        2.455015    1.358397    0.072603
     19          6           0        3.703812   -0.325805    0.432503
     20          1           0        3.542510   -1.397105    0.310503
     21          1           0        4.525613   -0.005707   -0.217497
     22          1           0        3.976313   -0.122606    1.475003
 ---------------------------------------------------------------------

 SCF Done:  E(RHF) =  -492.916868366     A.U. after   14 cycles
 E2 =    -0.1601877820D+01 EUMP2 =    -0.49451874618533D+03

 The electronic state is 1-A.
 Alpha  occ. eigenvalues --  -20.54438 -20.52201 -15.60834 -15.58669 -11.37310
 Alpha  occ. eigenvalues --  -11.35869 -11.30281 -11.27768 -11.23861 -11.23797
 Alpha  occ. eigenvalues --   -1.40024  -1.37483  -1.24662  -1.23216  -1.05741
 Alpha  occ. eigenvalues --   -0.98686  -0.96099  -0.89488  -0.80875  -0.76047
 Alpha  occ. eigenvalues --   -0.73230  -0.68305  -0.66346  -0.65264  -0.62714
 Alpha  occ. eigenvalues --   -0.61918  -0.59480  -0.58645  -0.56724  -0.55960
 Alpha  occ. eigenvalues --   -0.55403  -0.54659  -0.52671  -0.52267  -0.50032
 Alpha  occ. eigenvalues --   -0.44005  -0.41271  -0.40777  -0.38709
 Alpha virt. eigenvalues --    0.02663   0.04121   0.04207   0.04489   0.05698
 Alpha virt. eigenvalues --    0.06253   0.06374   0.06568   0.07434   0.07910
 Alpha virt. eigenvalues --    0.09581   0.10475   0.11017   0.11422   0.13101

 Mulliken atomic charges:
              1
     1  H    0.002194
     2  C    0.375578
     3  H   -0.111687
     4  H    0.044692
     5  C    0.615760
     6  O   -0.840214
     7  N   -0.439436
     8  H   -0.011129
     9  C   -0.074494
    10  H   -0.021707
    11  C    0.732589
    12  H   -0.034295
    13  H   -0.100480
    14  H   -0.004041
    15  C    1.007534
    16  O   -0.871881
    17  N   -0.500734
    18  H   -0.115462
    19  C    0.710407
    20  H   -0.155745
    21  H   -0.119839
    22  H   -0.087610
 Sum of Mulliken atomic charges =   0.00000

 Dipole moment (field-independent basis, Debye):
    X=              3.5806    Y=              0.5263    Z=             -0.1979  Tot=              3.6244
 Quadrupole moment (field-independent basis, Debye-Ang):
   XX=            -58.9178   YY=            -64.2857   ZZ=            -60.7617
   XY=             14.2751   XZ=              1.9458   YZ=             -1.7269

 Normal termination of Gaussian 09 at Sun Feb 12 18:43:06 2017.
