 Gaussian 09, Revision A.02,
 Gaussian 09:  EM64L-G09RevA.02 11-Jun-2009

 -------------------
 #SP MP2/aug-cc-pVDZ
 -------------------

 -------------------------------
 Single Point calculation at MP2
 -------------------------------
 Symbolic Z-matrix:
 Charge =  0 Multiplicity = 1

                         Standard orientation:
 ---------------------------------------------------------------------
 Center     Atomic      Atomic             Coordinates (Angstroms)
 Number     Number       Type             X           Y           Z
 ---------------------------------------------------------------------
      1          1           0       -3.550270   -1.801933    0.320203
      2          6           0       -3.039473   -1.313429   -0.512697
      3          1           0       -3.805576   -0.845134   -1.141397
      4          1           0       -2.516568   -2.068126   -1.109397
      5          6           0       -2.127881   -0.225223    0.050203
      6          8           0       -2.474685    0.464974    0.996803
      7          7           0       -0.921381   -0.114015   -0.604997
      8          1           0       -0.810077   -0.712914   -1.412697
      9          6           0        0.121612    0.916692   -0.489497
     10          1           0        0.143708    1.488492   -1.425197
     11          6           0       -0.047995    1.907791    0.670503
     12          1           0       -0.054891    1.405791    1.640103
     13          1           0        0.799601    2.600196    0.633803
     14          1           0       -0.976699    2.471384    0.579103
     15          6           0        1.520216    0.265601   -0.406497
     16          8           0        2.470713    0.740108   -1.016797
     17          7           0        1.609123   -0.798798    0.439303
     18          1           0        0.754326   -1.132804    0.862603
     19          6           0        2.854828   -1.494990    0.702203
     20          1           0        3.636925   -0.987185    0.135803
     21          1           0        3.106128   -1.464388    1.768903
     22          1           0        2.803135   -2.542990    0.382703
 ---------------------------------------------------------------------

 SCF Done:  E(RHF) =  -492.916097688     A.U. after   14 cycles
 E2 =    -0.1601749304D+01 EUMP2 =    -0.49451784699154D+03

 The electronic state is 1-A.
 Alpha  occ. eigenvalues --  -20.53773 -20.53353 -15.60998 -15.59760 -11.37541
 Alpha  occ. eigenvalues --  -11.36089 -11.29877 -11.27116 -11.25599 -11.23188
 Alpha  occ. eigenvalues --   -1.39337  -1.38582  -1.25383  -1.22914  -1.06068
 Alpha  occ. eigenvalues --   -0.99702  -0.95981  -0.88857  -0.79852  -0.77759
 Alpha  occ. eigenvalues --   -0.72918  -0.69611  -0.67130  -0.63497  -0.62788
 Alpha  occ. eigenvalues --   -0.62124  -0.59924  -0.59523  -0.57156  -0.56231
 Alpha  occ. eigenvalues --   -0.54990  -0.53826  -0.53158  -0.52138  -0.50738
 Alpha  occ. eigenvalues --   -0.44319  -0.42385  -0.40017  -0.39038
 Alpha virt. eigenvalues --    0.02489   0.03731   0.04348   0.04552   0.05529
 Alpha virt. eigenvalues --    0.06026   0.06140   0.06612   0.07333   0.08034
 Alpha virt. eigenvalues --    0.08523   0.09053   0.11080   0.11932   0.12537

 Mulliken atomic charges:
              1
     1  H    0.012330
     2  C    0.349717
     3  H    0.057396
     4  H   -0.135469
     5  C    0.682059
     6  O   -0.825796
     7  N   -0.281982
     8  H   -0.088140
     9  C   -0.021578
    10  H   -0.239586
    11  C    0.729347
    12  H   -0.016390
    13  H   -0.084005
    14  H   -0.008439
    15  C    0.972748
    16  O   -0.852313
    17  N   -0.608189
    18  H   -0.048491
    19  C    0.736524
    20  H   -0.146727
    21  H   -0.091691
    22  H   -0.091326
 Sum of Mulliken atomic charges =   0.00000

 Dipole moment (field-independent basis, Debye):
    X=             -1.2445    Y=             -3.6914    Z=             -0.7578  Tot=              3.9685
 Quadrupole moment (field-independent basis, Debye-Ang):
   XX=            -71.0141   YY=            -57.5113   ZZ=            -62.8490
   XY=             -0.6165   XZ=             13.6250   YZ=              0.2326

 Normal termination of Gaussian 09 at Sun Feb 12 19:02:19 2017.
