 Gaussian 09, Revision A.02,
 Gaussian 09:  EM64L-G09RevA.02 11-Jun-2009

 -------------------
 #SP MP2/aug-cc-pVDZ
 -------------------

 -------------------------------
 Single Point calculation at MP2
 -------------------------------
 Symbolic Z-matrix:
 Charge =  0 Multiplicity = 1

                         Standard orientation:
 ---------------------------------------------------------------------
 Center     Atomic      Atomic             Coordinates (Angstroms)
 Number     Number       Type             X           Y           Z
 ---------------------------------------------------------------------
      1          1           0       -3.595381   -1.749232    0.459410
      2          6           0       -3.032983   -1.369629   -0.396490
      3          1           0       -3.756185   -0.971633   -1.117790
      4          1           0       -2.492579   -2.196126   -0.870090
      5          6           0       -2.132290   -0.232924    0.082610
      6          8           0       -2.505294    0.553874    0.937110
      7          7           0       -0.895690   -0.205217   -0.533090
      8          1           0       -0.792786   -0.858916   -1.299090
      9          6           0        0.122104    0.858689   -0.540390
     10          1           0        0.164402    1.278689   -1.554190
     11          6           0       -0.126403    2.019788    0.432910
     12          1           0       -0.167801    1.677288    1.468910
     13          1           0        0.708494    2.716292    0.317910
     14          1           0       -1.063405    2.531682    0.211510
     15          6           0        1.543307    0.301697   -0.293390
     16          8           0        2.521303    0.992903   -0.552290
     17          7           0        1.613614   -0.967102    0.196510
     18          1           0        0.744417   -1.393207    0.488110
     19          6           0        2.873818   -1.579995    0.576810
     20          1           0        3.674515   -1.000891    0.114310
     21          1           0        3.018018   -1.572794    1.664810
     22          1           0        2.919424   -2.614895    0.221310
 ---------------------------------------------------------------------

 SCF Done:  E(RHF) =  -492.916126562     A.U. after   14 cycles
 E2 =    -0.1602141526D+01 EUMP2 =    -0.49451826808827D+03

 The electronic state is 1-A.
 Alpha  occ. eigenvalues --  -20.53943 -20.53027 -15.61032 -15.59895 -11.37627
 Alpha  occ. eigenvalues --  -11.36060 -11.29960 -11.27132 -11.25720 -11.22661
 Alpha  occ. eigenvalues --   -1.39470  -1.38482  -1.25527  -1.22849  -1.05894
 Alpha  occ. eigenvalues --   -0.99654  -0.96176  -0.88394  -0.80061  -0.77333
 Alpha  occ. eigenvalues --   -0.73030  -0.69887  -0.67168  -0.63233  -0.62696
 Alpha  occ. eigenvalues --   -0.62244  -0.60346  -0.59691  -0.57153  -0.55784
 Alpha  occ. eigenvalues --   -0.55109  -0.53453  -0.52629  -0.52161  -0.50193
 Alpha  occ. eigenvalues --   -0.44349  -0.42728  -0.39856  -0.39303
 Alpha virt. eigenvalues --    0.02301   0.03676   0.04198   0.04608   0.05538
 Alpha virt. eigenvalues --    0.06047   0.06345   0.06527   0.07295   0.08200
 Alpha virt. eigenvalues --    0.08424   0.09046   0.10806   0.12272   0.12506

 Mulliken atomic charges:
              1
     1  H    0.008408
     2  C    0.357342
     3  H    0.052389
     4  H   -0.126219
     5  C    0.689623
     6  O   -0.818640
     7  N   -0.331287
     8  H   -0.074726
     9  C   -0.296966
    10  H   -0.075214
    11  C    0.688725
    12  H   -0.005189
    13  H   -0.078585
    14  H    0.009847
    15  C    1.093644
    16  O   -0.883548
    17  N   -0.565525
    18  H   -0.056049
    19  C    0.749953
    20  H   -0.131659
    21  H   -0.078839
    22  H   -0.127487
 Sum of Mulliken atomic charges =   0.00000

 Dipole moment (field-independent basis, Debye):
    X=             -1.3534    Y=             -4.5152    Z=             -1.5801  Tot=              4.9715
 Quadrupole moment (field-independent basis, Debye-Ang):
   XX=            -71.6271   YY=            -58.3333   ZZ=            -61.2365
   XY=             -1.5542   XZ=             10.5449   YZ=             -0.5172

 Normal termination of Gaussian 09 at Sun Feb 12 18:46:08 2017.
