 Gaussian 09, Revision A.02,
 Gaussian 09:  EM64L-G09RevA.02 11-Jun-2009

 -------------------
 #SP MP2/aug-cc-pVDZ
 -------------------

 -------------------------------
 Single Point calculation at MP2
 -------------------------------
 Symbolic Z-matrix:
 Charge =  0 Multiplicity = 1

                         Standard orientation:
 ---------------------------------------------------------------------
 Center     Atomic      Atomic             Coordinates (Angstroms)
 Number     Number       Type             X           Y           Z
 ---------------------------------------------------------------------
      1          1           0       -4.179802   -1.070503    0.158401
      2          6           0       -3.118302   -1.323103    0.170701
      3          1           0       -2.917702   -2.103603   -0.570899
      4          1           0       -2.868002   -1.725503    1.160001
      5          6           0       -2.310503   -0.054803   -0.086299
      6          8           0       -2.782503    1.058697    0.100301
      7          7           0       -1.045903   -0.298603   -0.576399
      8          1           0       -0.744202   -1.264203   -0.471899
      9          6           0        0.108797    0.594697   -0.500499
     10          1           0        0.323197    0.999398   -1.501099
     11          6           0       -0.037803    1.775997    0.480001
     12          1           0       -0.184203    1.411497    1.501801
     13          1           0        0.870597    2.388398    0.461701
     14          1           0       -0.895903    2.391297    0.215501
     15          6           0        1.311097   -0.279902   -0.066499
     16          8           0        1.159798   -1.414402    0.378701
     17          7           0        2.530297    0.294598   -0.246699
     18          1           0        2.569597    1.235598   -0.611899
     19          6           0        3.773598   -0.348702    0.144401
     20          1           0        3.531898   -1.364902    0.457701
     21          1           0        4.471698   -0.387102   -0.698999
     22          1           0        4.252397    0.178198    0.978501
 ---------------------------------------------------------------------

 SCF Done:  E(RHF) =  -492.917844710     A.U. after   14 cycles
 E2 =    -0.1601758259D+01 EUMP2 =    -0.49451960296906D+03

 The electronic state is 1-A.
 Alpha  occ. eigenvalues --  -20.54634 -20.52646 -15.60824 -15.58512 -11.37314
 Alpha  occ. eigenvalues --  -11.35815 -11.30027 -11.27831 -11.23872 -11.23497
 Alpha  occ. eigenvalues --   -1.40118  -1.37779  -1.24675  -1.23134  -1.05621
 Alpha  occ. eigenvalues --   -0.98720  -0.96187  -0.88791  -0.80632  -0.76064
 Alpha  occ. eigenvalues --   -0.73233  -0.68132  -0.66431  -0.64442  -0.63149
 Alpha  occ. eigenvalues --   -0.62031  -0.59858  -0.58527  -0.56646  -0.55732
 Alpha  occ. eigenvalues --   -0.55387  -0.54644  -0.52493  -0.52193  -0.49983
 Alpha  occ. eigenvalues --   -0.43880  -0.41572  -0.40845  -0.39075
 Alpha virt. eigenvalues --    0.02604   0.04098   0.04260   0.04407   0.05808
 Alpha virt. eigenvalues --    0.06117   0.06493   0.06752   0.07333   0.08073
 Alpha virt. eigenvalues --    0.09237   0.09526   0.11212   0.11710   0.12858

 Mulliken atomic charges:
              1
     1  H   -0.056036
     2  C    0.310471
     3  H   -0.013579
     4  H    0.052647
     5  C    0.673647
     6  O   -0.820264
     7  N   -0.471373
     8  H    0.007374
     9  C   -0.262811
    10  H   -0.129540
    11  C    0.677404
    12  H   -0.018306
    13  H   -0.152088
    14  H    0.061600
    15  C    1.258726
    16  O   -0.864770
    17  N   -0.519846
    18  H   -0.112002
    19  C    0.718685
    20  H   -0.140415
    21  H   -0.107781
    22  H   -0.091740
 Sum of Mulliken atomic charges =   0.00000

 Dipole moment (field-independent basis, Debye):
    X=              3.8528    Y=              0.2615    Z=             -1.0682  Tot=              4.0067
 Quadrupole moment (field-independent basis, Debye-Ang):
   XX=            -58.1182   YY=            -63.5039   ZZ=            -61.4209
   XY=             13.7934   XZ=             -1.6045   YZ=             -0.0367

 Normal termination of Gaussian 09 at Sun Feb 12 18:43:20 2017.
