 Gaussian 09, Revision A.02,
 Gaussian 09:  EM64L-G09RevA.02 11-Jun-2009

 -------------------
 #SP MP2/aug-cc-pVDZ
 -------------------

 -------------------------------
 Single Point calculation at MP2
 -------------------------------
 Symbolic Z-matrix:
 Charge =  0 Multiplicity = 1

                         Standard orientation:
 ---------------------------------------------------------------------
 Center     Atomic      Atomic             Coordinates (Angstroms)
 Number     Number       Type             X           Y           Z
 ---------------------------------------------------------------------
      1          1           0       -3.656583   -1.779303   -0.651797
      2          6           0       -3.285785   -1.201802    0.200203
      3          1           0       -2.900183   -1.890001    0.958803
      4          1           0       -4.136886   -0.653905    0.617403
      5          6           0       -2.254188   -0.201199   -0.299597
      6          8           0       -2.500990    0.595100   -1.200397
      7          7           0       -1.040188   -0.251895    0.320603
      8          1           0       -0.853486   -0.897695    1.077003
      9          6           0        0.048810    0.646308   -0.028297
     10          1           0       -0.065491    0.882107   -1.091297
     11          6           0        0.011506    1.952608    0.783503
     12          1           0        0.112406    1.736008    1.851603
     13          1           0        0.827404    2.622110    0.486303
     14          1           0       -0.939596    2.462405    0.606503
     15          6           0        1.353112   -0.114688    0.241003
     16          8           0        1.499214   -0.754888    1.279803
     17          7           0        2.300512   -0.022085   -0.730297
     18          1           0        2.080310    0.498814   -1.566997
     19          6           0        3.610014   -0.642281   -0.617497
     20          1           0        3.645615   -1.154181    0.345003
     21          1           0        3.769916   -1.372381   -1.418997
     22          1           0        4.407711    0.108521   -0.656797
 ---------------------------------------------------------------------

 SCF Done:  E(RHF) =  -492.928498406     A.U. after   14 cycles
 E2 =    -0.1600149463D+01 EUMP2 =    -0.49452864786840D+03

 The electronic state is 1-A.
 Alpha  occ. eigenvalues --  -20.53965 -20.52572 -15.60815 -15.59331 -11.36879
 Alpha  occ. eigenvalues --  -11.36092 -11.29287 -11.27606 -11.24468 -11.23512
 Alpha  occ. eigenvalues --   -1.39508  -1.37918  -1.24440  -1.23639  -1.05567
 Alpha  occ. eigenvalues --   -0.99113  -0.96532  -0.88190  -0.80441  -0.78997
 Alpha  occ. eigenvalues --   -0.73113  -0.67449  -0.65928  -0.64047  -0.63294
 Alpha  occ. eigenvalues --   -0.61848  -0.60312  -0.58588  -0.57341  -0.56512
 Alpha  occ. eigenvalues --   -0.55528  -0.54082  -0.52411  -0.52333  -0.49670
 Alpha  occ. eigenvalues --   -0.43680  -0.42200  -0.40348  -0.38920
 Alpha virt. eigenvalues --    0.02898   0.03821   0.04370   0.04650   0.05611
 Alpha virt. eigenvalues --    0.06065   0.06404   0.07134   0.07317   0.07930
 Alpha virt. eigenvalues --    0.09036   0.09589   0.11126   0.12079   0.12713

 Mulliken atomic charges:
              1
     1  H    0.044445
     2  C    0.362006
     3  H   -0.162126
     4  H    0.047161
     5  C    0.568839
     6  O   -0.870891
     7  N   -0.123451
     8  H   -0.092242
     9  C   -0.301642
    10  H   -0.205763
    11  C    0.816944
    12  H   -0.010202
    13  H   -0.054860
    14  H   -0.061608
    15  C    1.167379
    16  O   -0.892131
    17  N   -0.513092
    18  H   -0.107326
    19  C    0.726247
    20  H   -0.148640
    21  H   -0.088529
    22  H   -0.100515
 Sum of Mulliken atomic charges =   0.00000

 Dipole moment (field-independent basis, Debye):
    X=              2.0823    Y=             -0.4097    Z=             -0.4999  Tot=              2.1803
 Quadrupole moment (field-independent basis, Debye-Ang):
   XX=            -57.5249   YY=            -60.4033   ZZ=            -65.2836
   XY=              8.3297   XZ=            -14.3632   YZ=              2.8971

 Normal termination of Gaussian 09 at Mon Feb 13 04:33:10 2017.
