 Gaussian 09, Revision A.02,
 Gaussian 09:  EM64L-G09RevA.02 11-Jun-2009

 -------------------
 #SP MP2/aug-cc-pVDZ
 -------------------

 -------------------------------
 Single Point calculation at MP2
 -------------------------------
 Symbolic Z-matrix:
 Charge =  0 Multiplicity = 1

                         Standard orientation:
 ---------------------------------------------------------------------
 Center     Atomic      Atomic             Coordinates (Angstroms)
 Number     Number       Type             X           Y           Z
 ---------------------------------------------------------------------
      1          1           0       -3.576602   -1.975882    0.012006
      2          6           0       -3.229697   -1.124284    0.604806
      3          1           0       -2.838600   -1.488786    1.559706
      4          1           0       -4.098194   -0.486079    0.797006
      5          6           0       -2.215493   -0.339390   -0.214194
      6          8           0       -2.467791    0.073312   -1.341394
      7          7           0       -1.005292   -0.138197    0.387406
      8          1           0       -0.848093   -0.415498    1.347706
      9          6           0        0.044813    0.664497   -0.227794
     10          1           0       -0.076788    0.548898   -1.308994
     11          6           0       -0.063079    2.151198    0.140406
     12          1           0        0.056422    2.280297    1.220206
     13          1           0        0.715225    2.735193   -0.365094
     14          1           0       -1.040177    2.534303   -0.167394
     15          6           0        1.378209    0.081890    0.259706
     16          8           0        1.628509    0.025588    1.461306
     17          7           0        2.212507   -0.381515   -0.709594
     18          1           0        1.912407   -0.318013   -1.671694
     19          6           0        3.509203   -0.969323   -0.418594
     20          1           0        3.634403   -0.959523    0.664906
     21          1           0        3.561498   -2.003623   -0.777794
     22          1           0        4.318507   -0.392027   -0.880594
 ---------------------------------------------------------------------

 SCF Done:  E(RHF) =  -492.927476170     A.U. after   14 cycles
 E2 =    -0.1600284232D+01 EUMP2 =    -0.49452776040210D+03

 The electronic state is 1-A.
 Alpha  occ. eigenvalues --  -20.53782 -20.52833 -15.60722 -15.59662 -11.36726
 Alpha  occ. eigenvalues --  -11.36330 -11.29251 -11.27503 -11.24675 -11.23267
 Alpha  occ. eigenvalues --   -1.39347  -1.38152  -1.24398  -1.23707  -1.05532
 Alpha  occ. eigenvalues --   -0.99189  -0.96560  -0.88042  -0.80248  -0.79220
 Alpha  occ. eigenvalues --   -0.73122  -0.67411  -0.65937  -0.64267  -0.63005
 Alpha  occ. eigenvalues --   -0.61929  -0.60329  -0.58583  -0.57511  -0.56588
 Alpha  occ. eigenvalues --   -0.55412  -0.53920  -0.52432  -0.52004  -0.49945
 Alpha  occ. eigenvalues --   -0.43609  -0.42431  -0.40150  -0.39133
 Alpha virt. eigenvalues --    0.02935   0.03722   0.04400   0.04734   0.05606
 Alpha virt. eigenvalues --    0.05973   0.06327   0.07149   0.07330   0.07856
 Alpha virt. eigenvalues --    0.08973   0.09673   0.11454   0.12109   0.12353

 Mulliken atomic charges:
              1
     1  H    0.045799
     2  C    0.387656
     3  H   -0.159689
     4  H    0.046796
     5  C    0.572454
     6  O   -0.867448
     7  N   -0.115324
     8  H   -0.100311
     9  C   -0.266265
    10  H   -0.238871
    11  C    0.844661
    12  H   -0.009297
    13  H   -0.056319
    14  H   -0.063385
    15  C    1.090090
    16  O   -0.872819
    17  N   -0.515903
    18  H   -0.107886
    19  C    0.724604
    20  H   -0.147520
    21  H   -0.094416
    22  H   -0.096607
 Sum of Mulliken atomic charges =   0.00000

 Dipole moment (field-independent basis, Debye):
    X=              1.5555    Y=             -1.0707    Z=             -0.3035  Tot=              1.9126
 Quadrupole moment (field-independent basis, Debye-Ang):
   XX=            -58.9296   YY=            -58.5424   ZZ=            -66.4555
   XY=              1.2491   XZ=            -16.7092   YZ=             -0.0932

 Normal termination of Gaussian 09 at Mon Feb 13 04:14:44 2017.
