 Gaussian 09, Revision A.02,
 Gaussian 09:  EM64L-G09RevA.02 11-Jun-2009

 -------------------
 #SP MP2/aug-cc-pVDZ
 -------------------

 -------------------------------
 Single Point calculation at MP2
 -------------------------------
 Symbolic Z-matrix:
 Charge =  0 Multiplicity = 1

                         Standard orientation:
 ---------------------------------------------------------------------
 Center     Atomic      Atomic             Coordinates (Angstroms)
 Number     Number       Type             X           Y           Z
 ---------------------------------------------------------------------
      1          1           0       -4.202103   -0.657469    0.768297
      2          6           0       -3.319604   -1.140873    0.340297
      3          1           0       -3.645507   -1.685672   -0.552503
      4          1           0       -2.913907   -1.855075    1.062897
      5          6           0       -2.324000   -0.067877   -0.073703
      6          8           0       -2.655496    0.910424   -0.734503
      7          7           0       -1.037001   -0.259182    0.362797
      8          1           0       -0.755705   -1.206883    0.594097
      9          6           0        0.044002    0.540614   -0.204203
     10          1           0       -0.177597    0.716415   -1.268003
     11          6           0        0.139007    1.908214    0.487197
     12          1           0        0.430607    1.806612    1.537797
     13          1           0        0.846410    2.576111   -0.021003
     14          1           0       -0.842291    2.385117    0.437097
     15          6           0        1.310799   -0.338191   -0.145803
     16          8           0        1.222294   -1.563691   -0.196603
     17          7           0        2.495001    0.313304   -0.008503
     18          1           0        2.492905    1.321404    0.022597
     19          6           0        3.773499   -0.378201   -0.005103
     20          1           0        3.569294   -1.447500    0.056997
     21          1           0        4.342499   -0.175803   -0.920703
     22          1           0        4.372800   -0.072103    0.859097
 ---------------------------------------------------------------------

 SCF Done:  E(RHF) =  -492.924961582     A.U. after   14 cycles
 E2 =    -0.1601584529D+01 EUMP2 =    -0.49452654611100D+03

 The electronic state is 1-A.
 Alpha  occ. eigenvalues --  -20.54138 -20.52915 -15.60746 -15.58838 -11.37183
 Alpha  occ. eigenvalues --  -11.35887 -11.29452 -11.27655 -11.24260 -11.23911
 Alpha  occ. eigenvalues --   -1.39772  -1.38083  -1.24510  -1.23368  -1.05534
 Alpha  occ. eigenvalues --   -0.99110  -0.96091  -0.88957  -0.80385  -0.77826
 Alpha  occ. eigenvalues --   -0.73097  -0.67396  -0.65971  -0.65679  -0.62754
 Alpha  occ. eigenvalues --   -0.61748  -0.59346  -0.58903  -0.56585  -0.56331
 Alpha  occ. eigenvalues --   -0.55372  -0.54457  -0.53690  -0.52560  -0.49127
 Alpha  occ. eigenvalues --   -0.43434  -0.42254  -0.40482  -0.39676
 Alpha virt. eigenvalues --    0.02811   0.03937   0.04404   0.04448   0.05901
 Alpha virt. eigenvalues --    0.05994   0.06295   0.06760   0.07346   0.07886
 Alpha virt. eigenvalues --    0.09201   0.10241   0.11386   0.11951   0.12630

 Mulliken atomic charges:
              1
     1  H    0.028202
     2  C    0.371654
     3  H    0.065871
     4  H   -0.122601
     5  C    0.480447
     6  O   -0.850852
     7  N   -0.372490
     8  H   -0.032128
     9  C   -0.042621
    10  H   -0.019613
    11  C    0.724036
    12  H   -0.034896
    13  H   -0.006595
    14  H   -0.128991
    15  C    1.123188
    16  O   -0.903045
    17  N   -0.534374
    18  H   -0.120023
    19  C    0.720996
    20  H   -0.149831
    21  H   -0.077411
    22  H   -0.118923
 Sum of Mulliken atomic charges =   0.00000

 Dipole moment (field-independent basis, Debye):
    X=              3.0406    Y=              0.6959    Z=              1.6196  Tot=              3.5146
 Quadrupole moment (field-independent basis, Debye-Ang):
   XX=            -55.6052   YY=            -64.0616   ZZ=            -62.6329
   XY=             13.2083   XZ=             -4.5794   YZ=              0.3243

 Normal termination of Gaussian 09 at Mon Feb 13 04:52:14 2017.
