 Gaussian 09, Revision A.02,
 Gaussian 09:  EM64L-G09RevA.02 11-Jun-2009

 -------------------
 #SP MP2/aug-cc-pVDZ
 -------------------

 -------------------------------
 Single Point calculation at MP2
 -------------------------------
 Symbolic Z-matrix:
 Charge =  0 Multiplicity = 1

                         Standard orientation:
 ---------------------------------------------------------------------
 Center     Atomic      Atomic             Coordinates (Angstroms)
 Number     Number       Type             X           Y           Z
 ---------------------------------------------------------------------
      1          1           0        3.639195   -1.854811   -0.298904
      2          6           0        3.099793   -1.075612   -0.842904
      3          1           0        2.608094   -1.516313   -1.716104
      4          1           0        3.838892   -0.344710   -1.190204
      5          6           0        2.135392   -0.389414    0.113096
      6          8           0        2.441091   -0.114913    1.265396
      7          7           0        0.889891   -0.114916   -0.406104
      8          1           0        0.772191   -0.195216   -1.408804
      9          6           0       -0.049011    0.766882    0.294796
     10          1           0        0.141090    0.598182    1.359896
     11          6           0        0.173886    2.243582   -0.032804
     12          1           0        0.011686    2.436982   -1.097704
     13          1           0       -0.529415    2.868681    0.524296
     14          1           0        1.194786    2.528984    0.237796
     15          6           0       -1.493510    0.329779   -0.031904
     16          8           0       -2.304711    1.085277   -0.553104
     17          7           0       -1.783707   -0.950922    0.339396
     18          1           0       -1.025606   -1.521820    0.686896
     19          6           0       -3.074506   -1.568124    0.096096
     20          1           0       -3.746407   -0.788126   -0.264704
     21          1           0       -3.009704   -2.359924   -0.661104
     22          1           0       -3.481405   -1.996525    1.018996
 ---------------------------------------------------------------------

 SCF Done:  E(RHF) =  -492.924049351     A.U. after   14 cycles
 E2 =    -0.1600837579D+01 EUMP2 =    -0.49452488693023D+03

 The electronic state is 1-A.
 Alpha  occ. eigenvalues --  -20.54058 -20.53638 -15.60718 -15.59637 -11.37295
 Alpha  occ. eigenvalues --  -11.36278 -11.29230 -11.27062 -11.25615 -11.22647
 Alpha  occ. eigenvalues --   -1.39543  -1.38792  -1.25162  -1.22938  -1.05559
 Alpha  occ. eigenvalues --   -0.99646  -0.96370  -0.87496  -0.80206  -0.78961
 Alpha  occ. eigenvalues --   -0.73217  -0.67908  -0.65685  -0.65380  -0.62518
 Alpha  occ. eigenvalues --   -0.61966  -0.60285  -0.59284  -0.57951  -0.56110
 Alpha  occ. eigenvalues --   -0.54900  -0.53328  -0.52705  -0.52004  -0.50489
 Alpha  occ. eigenvalues --   -0.43670  -0.43412  -0.40599  -0.38953
 Alpha virt. eigenvalues --    0.02537   0.03715   0.04460   0.04519   0.05598
 Alpha virt. eigenvalues --    0.06044   0.06211   0.06676   0.07287   0.08132
 Alpha virt. eigenvalues --    0.08471   0.09240   0.11227   0.12107   0.12380

 Mulliken atomic charges:
              1
     1  H    0.022843
     2  C    0.353390
     3  H   -0.121352
     4  H    0.056050
     5  C    0.556605
     6  O   -0.844745
     7  N   -0.420732
     8  H   -0.104429
     9  C   -0.244161
    10  H   -0.125057
    11  C    0.814395
    12  H   -0.024844
    13  H   -0.039583
    14  H   -0.057585
    15  C    1.234293
    16  O   -0.820427
    17  N   -0.565836
    18  H   -0.064476
    19  C    0.745385
    20  H   -0.149915
    21  H   -0.088986
    22  H   -0.110834
 Sum of Mulliken atomic charges =   0.00000

 Dipole moment (field-independent basis, Debye):
    X=              0.7934    Y=             -3.1449    Z=             -2.1387  Tot=              3.8851
 Quadrupole moment (field-independent basis, Debye-Ang):
   XX=            -67.4620   YY=            -58.8805   ZZ=            -63.0270
   XY=              5.6484   XZ=            -12.3479   YZ=              1.9497

 Normal termination of Gaussian 09 at Mon Feb 13 05:23:44 2017.
