 Gaussian 09, Revision A.02,
 Gaussian 09:  EM64L-G09RevA.02 11-Jun-2009

 -------------------------------------------
 # HF/6-31G* Opt=(ModRedundant) geom=nocrowd
 -------------------------------------------

 ------------------
 Phi Psi fixed scan
 ------------------
 Symbolic Z-matrix:
 Charge =  0 Multiplicity = 1

 SCF Done:  E(RHF) =  -492.847947006     A.U. after   15 cycles
 SCF Done:  E(RHF) =  -492.854202305     A.U. after   13 cycles
 SCF Done:  E(RHF) =  -492.855440161     A.U. after   13 cycles
 SCF Done:  E(RHF) =  -492.856209843     A.U. after   13 cycles
 SCF Done:  E(RHF) =  -492.857326926     A.U. after   13 cycles
 SCF Done:  E(RHF) =  -492.857815965     A.U. after   13 cycles
 SCF Done:  E(RHF) =  -492.857960250     A.U. after   12 cycles
 SCF Done:  E(RHF) =  -492.858110155     A.U. after   12 cycles
 SCF Done:  E(RHF) =  -492.858220018     A.U. after   11 cycles
 SCF Done:  E(RHF) =  -492.858429105     A.U. after   12 cycles
 SCF Done:  E(RHF) =  -492.858607806     A.U. after   12 cycles
 SCF Done:  E(RHF) =  -492.858663433     A.U. after   12 cycles
 SCF Done:  E(RHF) =  -492.858701719     A.U. after   12 cycles
 SCF Done:  E(RHF) =  -492.858713500     A.U. after   12 cycles
 SCF Done:  E(RHF) =  -492.858715928     A.U. after   10 cycles
 SCF Done:  E(RHF) =  -492.858716054     A.U. after    8 cycles
 SCF Done:  E(RHF) =  -492.858716135     A.U. after    7 cycles
 SCF Done:  E(RHF) =  -492.858716242     A.U. after    8 cycles
 SCF Done:  E(RHF) =  -492.858716331     A.U. after    8 cycles
 SCF Done:  E(RHF) =  -492.858716331     A.U. after    7 cycles
 Optimization completed.
    -- Stationary point found.

                         Standard orientation:
 ---------------------------------------------------------------------
 Center     Atomic      Atomic             Coordinates (Angstroms)
 Number     Number       Type             X           Y           Z
 ---------------------------------------------------------------------
      1          1           0       -3.512203   -1.697483    0.230789
      2          6           0       -2.994431   -0.860799    0.676725
      3          1           0       -2.696409   -1.136487    1.683883
      4          1           0       -3.659858   -0.007669    0.739044
      5          6           0       -1.756927   -0.559246   -0.137253
      6          8           0       -1.229116   -1.387149   -0.832056
      7          7           0       -1.287089    0.711200   -0.041877
      8          1           0       -1.639330    1.265658    0.707220
      9          6           0        0.036096    1.073788   -0.530793
     10          1           0        0.060889    0.839552   -1.587004
     11          6           0        0.259142    2.567941   -0.339027
     12          1           0        0.268314    2.819728    0.714283
     13          1           0        1.214179    2.862323   -0.758120
     14          1           0       -0.522730    3.129179   -0.838760
     15          6           0        1.132270    0.272810    0.188482
     16          8           0        1.467717    0.562796    1.306477
     17          7           0        1.696635   -0.721855   -0.526100
     18          1           0        1.130700   -1.101079   -1.252927
     19          6           0        2.641511   -1.620874    0.103257
     20          1           0        3.415568   -1.047130    0.590743
     21          1           0        2.168185   -2.257710    0.843759
     22          1           0        3.091108   -2.241189   -0.660782
 ---------------------------------------------------------------------

 The electronic state is 1-A.
 Alpha  occ. eigenvalues --  -20.53535 -20.52056 -15.59344 -15.57382 -11.35789
 Alpha  occ. eigenvalues --  -11.33734 -11.28040 -11.24751 -11.23866 -11.22709
 Alpha  occ. eigenvalues --   -1.40371  -1.38624  -1.24598  -1.22412  -1.05855
 Alpha  occ. eigenvalues --   -0.99782  -0.95563  -0.87252  -0.80500  -0.77349
 Alpha  occ. eigenvalues --   -0.72334  -0.68739  -0.67188  -0.63859  -0.62202
 Alpha  occ. eigenvalues --   -0.61821  -0.59731  -0.58890  -0.57795  -0.55381
 Alpha  occ. eigenvalues --   -0.54329  -0.53927  -0.52514  -0.51669  -0.50950
 Alpha  occ. eigenvalues --   -0.43964  -0.42879  -0.39438  -0.37709
 Alpha virt. eigenvalues --    0.18904   0.20049   0.22157   0.24758   0.26292
 Alpha virt. eigenvalues --    0.27594   0.28621   0.29883   0.30840   0.31886
 Alpha virt. eigenvalues --    0.32681   0.32890   0.34283   0.35445   0.38299

 Mulliken atomic charges:
              1
     1  H    0.216356
     2  C   -0.590827
     3  H    0.205072
     4  H    0.183213
     5  C    0.753532
     6  O   -0.621353
     7  N   -0.783821
     8  H    0.387289
     9  C   -0.037543
    10  H    0.206386
    11  C   -0.508540
    12  H    0.196039
    13  H    0.186469
    14  H    0.176875
    15  C    0.754585
    16  O   -0.622954
    17  N   -0.774375
    18  H    0.412532
    19  C   -0.282269
    20  H    0.198550
    21  H    0.174638
    22  H    0.170146
 Sum of Mulliken atomic charges =   0.00000

 Dipole moment (field-independent basis, Debye):
    X=             -1.9400    Y=              0.9181    Z=             -0.5498  Tot=              2.2156
 Quadrupole moment (field-independent basis, Debye-Ang):
   XX=            -55.0653   YY=            -59.0196   ZZ=            -63.8394
   XY=             -5.6260   XZ=             -8.5449   YZ=             -3.2208

 Normal termination of Gaussian 09 at Fri Feb 10 18:24:26 2017.
