 Gaussian 09, Revision A.02,
 Gaussian 09:  EM64L-G09RevA.02 11-Jun-2009

 -------------------------------------------
 # HF/6-31G* Opt=(ModRedundant) geom=nocrowd
 -------------------------------------------

 ------------------
 Phi Psi fixed scan
 ------------------
 Symbolic Z-matrix:
 Charge =  0 Multiplicity = 1

 SCF Done:  E(RHF) =  -492.835985776     A.U. after   15 cycles
 SCF Done:  E(RHF) =  -492.845636133     A.U. after   14 cycles
 SCF Done:  E(RHF) =  -492.848718536     A.U. after   14 cycles
 SCF Done:  E(RHF) =  -492.850343621     A.U. after   13 cycles
 SCF Done:  E(RHF) =  -492.851776155     A.U. after   13 cycles
 SCF Done:  E(RHF) =  -492.853186696     A.U. after   13 cycles
 SCF Done:  E(RHF) =  -492.853461479     A.U. after   13 cycles
 SCF Done:  E(RHF) =  -492.853718028     A.U. after   13 cycles
 SCF Done:  E(RHF) =  -492.853774495     A.U. after   12 cycles
 SCF Done:  E(RHF) =  -492.853864798     A.U. after   12 cycles
 SCF Done:  E(RHF) =  -492.854181893     A.U. after   12 cycles
 SCF Done:  E(RHF) =  -492.854280941     A.U. after   12 cycles
 SCF Done:  E(RHF) =  -492.854315352     A.U. after   11 cycles
 SCF Done:  E(RHF) =  -492.854313010     A.U. after   11 cycles
 SCF Done:  E(RHF) =  -492.854332209     A.U. after   10 cycles
 SCF Done:  E(RHF) =  -492.854335102     A.U. after    9 cycles
 SCF Done:  E(RHF) =  -492.854335920     A.U. after    9 cycles
 SCF Done:  E(RHF) =  -492.854336393     A.U. after    9 cycles
 SCF Done:  E(RHF) =  -492.854336431     A.U. after    8 cycles
 SCF Done:  E(RHF) =  -492.854336436     A.U. after    6 cycles
 Optimization completed.
    -- Stationary point found.

                         Standard orientation:
 ---------------------------------------------------------------------
 Center     Atomic      Atomic             Coordinates (Angstroms)
 Number     Number       Type             X           Y           Z
 ---------------------------------------------------------------------
      1          1           0        3.752480   -1.375585   -0.059233
      2          6           0        3.083260   -0.734043   -0.613588
      3          1           0        2.658315   -1.296792   -1.438935
      4          1           0        3.632406    0.108931   -1.018765
      5          6           0        1.959569   -0.288554    0.290419
      6          8           0        1.691848   -0.842043    1.316490
      7          7           0        1.279988    0.833559   -0.128473
      8          1           0        1.400691    1.036365   -1.098330
      9          6           0       -0.079434    1.011161    0.326547
     10          1           0       -0.063615    1.017007    1.408938
     11          6           0       -0.608408    2.355105   -0.182166
     12          1           0       -0.669550    2.363307   -1.266520
     13          1           0       -1.596936    2.570719    0.202980
     14          1           0        0.060721    3.147737    0.129808
     15          6           0       -0.963871   -0.161411   -0.129999
     16          8           0       -0.549926   -1.020943   -0.857394
     17          7           0       -2.262827   -0.090891    0.246838
     18          1           0       -2.494192    0.511084    1.004066
     19          6           0       -3.173898   -1.183576   -0.030950
     20          1           0       -3.109953   -1.446779   -1.075874
     21          1           0       -2.946974   -2.064596    0.559854
     22          1           0       -4.182212   -0.858276    0.189111
 ---------------------------------------------------------------------

 The electronic state is 1-A.
 Alpha  occ. eigenvalues --  -20.52774 -20.51924 -15.58744 -15.57575 -11.34466
 Alpha  occ. eigenvalues --  -11.34004 -11.27975 -11.25784 -11.23700 -11.22254
 Alpha  occ. eigenvalues --   -1.39962  -1.38360  -1.23580  -1.23234  -1.05483
 Alpha  occ. eigenvalues --   -0.98827  -0.95779  -0.87948  -0.79316  -0.78054
 Alpha  occ. eigenvalues --   -0.72576  -0.67013  -0.66619  -0.63437  -0.62860
 Alpha  occ. eigenvalues --   -0.61669  -0.59427  -0.57950  -0.57146  -0.56218
 Alpha  occ. eigenvalues --   -0.55426  -0.54317  -0.53466  -0.50866  -0.49730
 Alpha  occ. eigenvalues --   -0.43333  -0.41403  -0.39374  -0.38775
 Alpha virt. eigenvalues --    0.19218   0.20751   0.21605   0.23151   0.26400
 Alpha virt. eigenvalues --    0.27410   0.29342   0.30707   0.31101   0.31242
 Alpha virt. eigenvalues --    0.32261   0.32574   0.33781   0.34950   0.37572

 Mulliken atomic charges:
              1
     1  H    0.210499
     2  C   -0.599243
     3  H    0.211920
     4  H    0.177282
     5  C    0.764372
     6  O   -0.599539
     7  N   -0.758330
     8  H    0.371701
     9  C   -0.076619
    10  H    0.223688
    11  C   -0.488084
    12  H    0.172545
    13  H    0.171894
    14  H    0.193613
    15  C    0.774436
    16  O   -0.617962
    17  N   -0.788742
    18  H    0.379659
    19  C   -0.277521
    20  H    0.204834
    21  H    0.181445
    22  H    0.168152
 Sum of Mulliken atomic charges =   0.00000

 Dipole moment (field-independent basis, Debye):
    X=             -2.2149    Y=              3.2623    Z=             -1.0024  Tot=              4.0686
 Quadrupole moment (field-independent basis, Debye-Ang):
   XX=            -49.8749   YY=            -61.7072   ZZ=            -62.7110
   XY=              0.9267   XZ=             -9.5283   YZ=              0.9317

 Normal termination of Gaussian 09 at Fri Feb 10 18:36:53 2017.
