 Gaussian 09, Revision A.02,
 Gaussian 09:  EM64L-G09RevA.02 11-Jun-2009

 -------------------------------------------
 # HF/6-31G* Opt=(ModRedundant) geom=nocrowd
 -------------------------------------------

 ------------------
 Phi Psi fixed scan
 ------------------
 Symbolic Z-matrix:
 Charge =  0 Multiplicity = 1

 SCF Done:  E(RHF) =  -492.811049399     A.U. after   15 cycles
 SCF Done:  E(RHF) =  -492.834899270     A.U. after   16 cycles
 SCF Done:  E(RHF) =  -492.846786019     A.U. after   14 cycles
 SCF Done:  E(RHF) =  -492.851946265     A.U. after   13 cycles
 SCF Done:  E(RHF) =  -492.853669708     A.U. after   13 cycles
 SCF Done:  E(RHF) =  -492.853836224     A.U. after   13 cycles
 SCF Done:  E(RHF) =  -492.854547280     A.U. after   13 cycles
 SCF Done:  E(RHF) =  -492.854676304     A.U. after   13 cycles
 SCF Done:  E(RHF) =  -492.854818731     A.U. after   16 cycles
 SCF Done:  E(RHF) =  -492.854883739     A.U. after   11 cycles
 SCF Done:  E(RHF) =  -492.855827395     A.U. after   14 cycles
 SCF Done:  E(RHF) =  -492.855778383     A.U. after   11 cycles
 SCF Done:  E(RHF) =  -492.855855366     A.U. after   11 cycles
 SCF Done:  E(RHF) =  -492.855883621     A.U. after   10 cycles
 SCF Done:  E(RHF) =  -492.855889827     A.U. after    9 cycles
 SCF Done:  E(RHF) =  -492.855893076     A.U. after   16 cycles
 SCF Done:  E(RHF) =  -492.855897624     A.U. after   10 cycles
 SCF Done:  E(RHF) =  -492.855900128     A.U. after   10 cycles
 SCF Done:  E(RHF) =  -492.855900355     A.U. after    8 cycles
 SCF Done:  E(RHF) =  -492.855900356     A.U. after    7 cycles
 Optimization completed.
    -- Stationary point found.

                         Standard orientation:
 ---------------------------------------------------------------------
 Center     Atomic      Atomic             Coordinates (Angstroms)
 Number     Number       Type             X           Y           Z
 ---------------------------------------------------------------------
      1          1           0       -3.821053   -1.112119    0.154292
      2          6           0       -3.104144   -0.521825    0.706476
      3          1           0       -2.847068   -1.059810    1.613821
      4          1           0       -3.547741    0.427098    0.983356
      5          6           0       -1.856395   -0.362944   -0.134476
      6          8           0       -1.533439   -1.202523   -0.937916
      7          7           0       -1.163428    0.778137    0.070167
      8          1           0       -1.466606    1.335310    0.837657
      9          6           0        0.172668    1.111954   -0.426190
     10          1           0        0.131518    1.028078   -1.508657
     11          6           0        0.465922    2.562084   -0.062424
     12          1           0        0.526952    2.688593    1.013535
     13          1           0        1.412925    2.869594   -0.478283
     14          1           0       -0.318256    3.202846   -0.451043
     15          6           0        1.334502    0.191474    0.006984
     16          8           0        2.378908    0.680584    0.353787
     17          7           0        1.142500   -1.134408   -0.050251
     18          1           0        0.323645   -1.481146   -0.499447
     19          6           0        2.231789   -2.043482    0.232841
     20          1           0        2.649475   -1.838803    1.208963
     21          1           0        1.845334   -3.053878    0.219461
     22          1           0        3.027577   -1.959918   -0.499298
 ---------------------------------------------------------------------

 The electronic state is 1-A.
 Alpha  occ. eigenvalues --  -20.53957 -20.51602 -15.60281 -15.56685 -11.36644
 Alpha  occ. eigenvalues --  -11.33763 -11.28674 -11.24658 -11.24460 -11.22514
 Alpha  occ. eigenvalues --   -1.40809  -1.38409  -1.25372  -1.21901  -1.06191
 Alpha  occ. eigenvalues --   -1.00077  -0.95518  -0.87550  -0.81323  -0.77714
 Alpha  occ. eigenvalues --   -0.72588  -0.69337  -0.67465  -0.63720  -0.62356
 Alpha  occ. eigenvalues --   -0.61532  -0.59875  -0.59367  -0.58253  -0.54984
 Alpha  occ. eigenvalues --   -0.54498  -0.53421  -0.53279  -0.52434  -0.50276
 Alpha  occ. eigenvalues --   -0.44615  -0.43121  -0.38771  -0.37681
 Alpha virt. eigenvalues --    0.17891   0.20098   0.22109   0.25283   0.26427
 Alpha virt. eigenvalues --    0.27811   0.28942   0.29888   0.30694   0.31594
 Alpha virt. eigenvalues --    0.32654   0.33205   0.34598   0.35511   0.39412

 Mulliken atomic charges:
              1
     1  H    0.219254
     2  C   -0.587919
     3  H    0.204996
     4  H    0.180160
     5  C    0.770199
     6  O   -0.640460
     7  N   -0.807432
     8  H    0.388492
     9  C   -0.040725
    10  H    0.218298
    11  C   -0.496934
    12  H    0.172502
    13  H    0.215110
    14  H    0.170030
    15  C    0.762767
    16  O   -0.622187
    17  N   -0.830469
    18  H    0.458641
    19  C   -0.268164
    20  H    0.189177
    21  H    0.168240
    22  H    0.176424
 Sum of Mulliken atomic charges =   0.00000

 Dipole moment (field-independent basis, Debye):
    X=             -3.3777    Y=              0.6544    Z=              1.4605  Tot=              3.7377
 Quadrupole moment (field-independent basis, Debye-Ang):
   XX=            -63.9375   YY=            -57.8139   ZZ=            -60.6814
   XY=             -7.7949   XZ=             -7.4480   YZ=             -2.6029

 Normal termination of Gaussian 09 at Fri Feb 10 18:03:18 2017.
