 Gaussian 09, Revision A.02,
 Gaussian 09:  EM64L-G09RevA.02 11-Jun-2009

 -------------------------------------------
 # HF/6-31G* Opt=(ModRedundant) geom=nocrowd
 -------------------------------------------

 ------------------
 Phi Psi fixed scan
 ------------------
 Symbolic Z-matrix:
 Charge =  0 Multiplicity = 1

 SCF Done:  E(RHF) =  -492.848897846     A.U. after   15 cycles
 SCF Done:  E(RHF) =  -492.854789772     A.U. after   13 cycles
 SCF Done:  E(RHF) =  -492.855404077     A.U. after   13 cycles
 SCF Done:  E(RHF) =  -492.856289867     A.U. after   13 cycles
 SCF Done:  E(RHF) =  -492.857022973     A.U. after   13 cycles
 SCF Done:  E(RHF) =  -492.857792586     A.U. after   13 cycles
 SCF Done:  E(RHF) =  -492.858111374     A.U. after   12 cycles
 SCF Done:  E(RHF) =  -492.858282798     A.U. after   12 cycles
 SCF Done:  E(RHF) =  -492.858379974     A.U. after   12 cycles
 SCF Done:  E(RHF) =  -492.858568911     A.U. after   12 cycles
 SCF Done:  E(RHF) =  -492.858744281     A.U. after   12 cycles
 SCF Done:  E(RHF) =  -492.858829497     A.U. after   11 cycles
 SCF Done:  E(RHF) =  -492.858881570     A.U. after   12 cycles
 SCF Done:  E(RHF) =  -492.858889533     A.U. after   11 cycles
 SCF Done:  E(RHF) =  -492.858890746     A.U. after   10 cycles
 SCF Done:  E(RHF) =  -492.858891524     A.U. after    8 cycles
 SCF Done:  E(RHF) =  -492.858892960     A.U. after   10 cycles
 SCF Done:  E(RHF) =  -492.858893242     A.U. after    8 cycles
 SCF Done:  E(RHF) =  -492.858893256     A.U. after    7 cycles
 Optimization completed.
    -- Stationary point found.

                         Standard orientation:
 ---------------------------------------------------------------------
 Center     Atomic      Atomic             Coordinates (Angstroms)
 Number     Number       Type             X           Y           Z
 ---------------------------------------------------------------------
      1          1           0       -3.574714   -1.682693    0.045235
      2          6           0       -3.077704   -0.854859    0.529692
      3          1           0       -2.812678   -1.152126    1.539979
      4          1           0       -3.748101   -0.005182    0.588259
      5          6           0       -1.814232   -0.524634   -0.229362
      6          8           0       -1.268924   -1.311153   -0.954484
      7          7           0       -1.326794    0.734925   -0.044261
      8          1           0       -1.634310    1.212239    0.774698
      9          6           0        0.023802    1.031667   -0.473685
     10          1           0        0.074130    0.850631   -1.538826
     11          6           0        0.348739    2.496861   -0.192564
     12          1           0        0.312735    2.696849    0.872631
     13          1           0        1.345032    2.737733   -0.545419
     14          1           0       -0.361098    3.141590   -0.698346
     15          6           0        1.028923    0.136085    0.257066
     16          8           0        0.983370    0.018838    1.452147
     17          7           0        1.990265   -0.418702   -0.511268
     18          1           0        1.777162   -0.531418   -1.476495
     19          6           0        2.939203   -1.350959    0.062620
     20          1           0        3.377120   -0.916780    0.948785
     21          1           0        2.470627   -2.290813    0.334680
     22          1           0        3.721844   -1.540028   -0.660384
 ---------------------------------------------------------------------

 The electronic state is 1-A.
 Alpha  occ. eigenvalues --  -20.52905 -20.52095 -15.58375 -15.58067 -11.34944
 Alpha  occ. eigenvalues --  -11.33878 -11.27815 -11.25126 -11.23182 -11.23097
 Alpha  occ. eigenvalues --   -1.39932  -1.38615  -1.23936  -1.22859  -1.05655
 Alpha  occ. eigenvalues --   -0.99399  -0.95658  -0.87364  -0.79799  -0.77861
 Alpha  occ. eigenvalues --   -0.72406  -0.67959  -0.66981  -0.63621  -0.62244
 Alpha  occ. eigenvalues --   -0.61670  -0.59601  -0.58419  -0.57507  -0.55906
 Alpha  occ. eigenvalues --   -0.54688  -0.53978  -0.52755  -0.51696  -0.50093
 Alpha  occ. eigenvalues --   -0.43128  -0.42144  -0.39572  -0.38311
 Alpha virt. eigenvalues --    0.19281   0.20371   0.22434   0.23638   0.26370
 Alpha virt. eigenvalues --    0.27424   0.29157   0.30247   0.30919   0.31499
 Alpha virt. eigenvalues --    0.32217   0.33175   0.34297   0.34997   0.38059

 Mulliken atomic charges:
              1
     1  H    0.213525
     2  C   -0.592074
     3  H    0.207159
     4  H    0.182538
     5  C    0.751004
     6  O   -0.613299
     7  N   -0.769603
     8  H    0.385078
     9  C   -0.042714
    10  H    0.202556
    11  C   -0.507988
    12  H    0.188637
    13  H    0.185534
    14  H    0.184306
    15  C    0.777028
    16  O   -0.631296
    17  N   -0.780577
    18  H    0.390144
    19  C   -0.281778
    20  H    0.201368
    21  H    0.182004
    22  H    0.168446
 Sum of Mulliken atomic charges =   0.00000

 Dipole moment (field-independent basis, Debye):
    X=             -0.3673    Y=              1.9125    Z=             -0.9396  Tot=              2.1623
 Quadrupole moment (field-independent basis, Debye-Ang):
   XX=            -51.0585   YY=            -59.6916   ZZ=            -63.9996
   XY=             -4.0177   XZ=             -8.5506   YZ=             -1.5923

 Normal termination of Gaussian 09 at Fri Feb 10 18:29:04 2017.
