 Gaussian 09, Revision A.02,
 Gaussian 09:  EM64L-G09RevA.02 11-Jun-2009

 -------------------------------------------
 # HF/6-31G* Opt=(ModRedundant) geom=nocrowd
 -------------------------------------------

 ------------------
 Phi Psi fixed scan
 ------------------
 Symbolic Z-matrix:
 Charge =  0 Multiplicity = 1

 SCF Done:  E(RHF) =  -492.849069088     A.U. after   15 cycles
 SCF Done:  E(RHF) =  -492.854877682     A.U. after   13 cycles
 SCF Done:  E(RHF) =  -492.855699020     A.U. after   13 cycles
 SCF Done:  E(RHF) =  -492.856610529     A.U. after   13 cycles
 SCF Done:  E(RHF) =  -492.857361954     A.U. after   13 cycles
 SCF Done:  E(RHF) =  -492.857757688     A.U. after   13 cycles
 SCF Done:  E(RHF) =  -492.858124018     A.U. after   12 cycles
 SCF Done:  E(RHF) =  -492.858287603     A.U. after   12 cycles
 SCF Done:  E(RHF) =  -492.858512937     A.U. after   13 cycles
 SCF Done:  E(RHF) =  -492.858675077     A.U. after   12 cycles
 SCF Done:  E(RHF) =  -492.858836461     A.U. after   12 cycles
 SCF Done:  E(RHF) =  -492.858880560     A.U. after   11 cycles
 SCF Done:  E(RHF) =  -492.858901396     A.U. after   12 cycles
 SCF Done:  E(RHF) =  -492.858914903     A.U. after   11 cycles
 SCF Done:  E(RHF) =  -492.858915236     A.U. after    9 cycles
 SCF Done:  E(RHF) =  -492.858915291     A.U. after    7 cycles
 SCF Done:  E(RHF) =  -492.858915328     A.U. after    6 cycles
 SCF Done:  E(RHF) =  -492.858915385     A.U. after    8 cycles
 SCF Done:  E(RHF) =  -492.858915418     A.U. after    8 cycles
 Optimization completed.
    -- Stationary point found.

                         Standard orientation:
 ---------------------------------------------------------------------
 Center     Atomic      Atomic             Coordinates (Angstroms)
 Number     Number       Type             X           Y           Z
 ---------------------------------------------------------------------
      1          1           0       -3.518015   -1.734908    0.128995
      2          6           0       -3.030342   -0.889323    0.591854
      3          1           0       -2.761098   -1.159492    1.608586
      4          1           0       -3.711620   -0.047362    0.631057
      5          6           0       -1.771772   -0.564505   -0.178592
      6          8           0       -1.206516   -1.374684   -0.863299
      7          7           0       -1.315972    0.710597   -0.053392
      8          1           0       -1.662695    1.240047    0.716050
      9          6           0        0.018375    1.051672   -0.512576
     10          1           0        0.062144    0.831703   -1.570795
     11          6           0        0.275832    2.538603   -0.294262
     12          1           0        0.256764    2.776108    0.762809
     13          1           0        1.250779    2.812744   -0.680960
     14          1           0       -0.475192    3.128176   -0.808241
     15          6           0        1.073634    0.225758    0.232807
     16          8           0        1.204372    0.338878    1.422427
     17          7           0        1.855239   -0.562838   -0.534528
     18          1           0        1.456163   -0.855547   -1.398356
     19          6           0        2.800048   -1.470176    0.084025
     20          1           0        3.412352   -0.926146    0.787455
     21          1           0        2.302834   -2.277172    0.612152
     22          1           0        3.435206   -1.888189   -0.685868
 ---------------------------------------------------------------------

 The electronic state is 1-A.
 Alpha  occ. eigenvalues --  -20.53206 -20.52082 -15.58846 -15.57726 -11.35353
 Alpha  occ. eigenvalues --  -11.33785 -11.27899 -11.24893 -11.23534 -11.22890
 Alpha  occ. eigenvalues --   -1.40127  -1.38639  -1.24246  -1.22625  -1.05739
 Alpha  occ. eigenvalues --   -0.99598  -0.95581  -0.87286  -0.80132  -0.77586
 Alpha  occ. eigenvalues --   -0.72339  -0.68346  -0.67091  -0.63750  -0.62185
 Alpha  occ. eigenvalues --   -0.61765  -0.59625  -0.58642  -0.57645  -0.55665
 Alpha  occ. eigenvalues --   -0.54435  -0.54001  -0.52400  -0.51892  -0.50458
 Alpha  occ. eigenvalues --   -0.43497  -0.42530  -0.39567  -0.37966
 Alpha virt. eigenvalues --    0.19123   0.20305   0.22273   0.24147   0.26304
 Alpha virt. eigenvalues --    0.27524   0.28787   0.30041   0.30878   0.31717
 Alpha virt. eigenvalues --    0.32432   0.33073   0.34275   0.35347   0.38075

 Mulliken atomic charges:
              1
     1  H    0.214839
     2  C   -0.590859
     3  H    0.206145
     4  H    0.182783
     5  C    0.750991
     6  O   -0.617900
     7  N   -0.776582
     8  H    0.386873
     9  C   -0.037726
    10  H    0.203243
    11  C   -0.511096
    12  H    0.193873
    13  H    0.185720
    14  H    0.180348
    15  C    0.767104
    16  O   -0.627794
    17  N   -0.773282
    18  H    0.398664
    19  C   -0.283454
    20  H    0.199862
    21  H    0.178988
    22  H    0.169258
 Sum of Mulliken atomic charges =   0.00000

 Dipole moment (field-independent basis, Debye):
    X=             -1.2404    Y=              1.3319    Z=             -0.8999  Tot=              2.0304
 Quadrupole moment (field-independent basis, Debye-Ang):
   XX=            -52.7997   YY=            -59.2411   ZZ=            -64.0987
   XY=             -4.8314   XZ=             -8.3267   YZ=             -2.4390

 Normal termination of Gaussian 09 at Fri Feb 10 18:26:47 2017.
