 Gaussian 09, Revision A.02,
 Gaussian 09:  EM64L-G09RevA.02 11-Jun-2009

 -------------------------------------------
 # HF/6-31G* Opt=(ModRedundant) geom=nocrowd
 -------------------------------------------

 ------------------
 Phi Psi fixed scan
 ------------------
 Symbolic Z-matrix:
 Charge =  0 Multiplicity = 1

 SCF Done:  E(RHF) =  -492.825145210     A.U. after   15 cycles
 SCF Done:  E(RHF) =  -492.838979466     A.U. after   14 cycles
 SCF Done:  E(RHF) =  -492.844022376     A.U. after   14 cycles
 SCF Done:  E(RHF) =  -492.846161253     A.U. after   13 cycles
 SCF Done:  E(RHF) =  -492.848569165     A.U. after   15 cycles
 SCF Done:  E(RHF) =  -492.849274012     A.U. after   13 cycles
 SCF Done:  E(RHF) =  -492.849599950     A.U. after   13 cycles
 SCF Done:  E(RHF) =  -492.849657001     A.U. after   12 cycles
 SCF Done:  E(RHF) =  -492.849808397     A.U. after   12 cycles
 SCF Done:  E(RHF) =  -492.849869530     A.U. after   11 cycles
 SCF Done:  E(RHF) =  -492.850042187     A.U. after   12 cycles
 SCF Done:  E(RHF) =  -492.850201892     A.U. after   14 cycles
 SCF Done:  E(RHF) =  -492.850274578     A.U. after   13 cycles
 SCF Done:  E(RHF) =  -492.850358806     A.U. after   11 cycles
 SCF Done:  E(RHF) =  -492.850442688     A.U. after   11 cycles
 SCF Done:  E(RHF) =  -492.850438021     A.U. after   11 cycles
 SCF Done:  E(RHF) =  -492.850456637     A.U. after   10 cycles
 SCF Done:  E(RHF) =  -492.850457994     A.U. after    9 cycles
 SCF Done:  E(RHF) =  -492.850458993     A.U. after    9 cycles
 SCF Done:  E(RHF) =  -492.850459411     A.U. after    9 cycles
 Optimization completed.
    -- Stationary point found.

                         Standard orientation:
 ---------------------------------------------------------------------
 Center     Atomic      Atomic             Coordinates (Angstroms)
 Number     Number       Type             X           Y           Z
 ---------------------------------------------------------------------
      1          1           0        3.749134   -1.341829   -0.203193
      2          6           0        3.017012   -0.750135   -0.732829
      3          1           0        2.510513   -1.379583   -1.457578
      4          1           0        3.511128    0.057049   -1.263277
      5          6           0        1.994031   -0.231273    0.248421
      6          8           0        1.863135   -0.677977    1.348580
      7          7           0        1.250960    0.846479   -0.194992
      8          1           0        1.301514    0.976294   -1.184055
      9          6           0       -0.092010    1.011469    0.317272
     10          1           0       -0.020122    1.054922    1.397200
     11          6           0       -0.659969    2.334265   -0.203642
     12          1           0       -0.809246    2.303076   -1.278706
     13          1           0       -1.610132    2.583076    0.252717
     14          1           0        0.036204    3.131907    0.023555
     15          6           0       -0.961468   -0.213073   -0.029314
     16          8           0       -0.487871   -1.212192   -0.494171
     17          7           0       -2.299651   -0.052785    0.111588
     18          1           0       -2.627293    0.702347    0.668084
     19          6           0       -3.198191   -1.175855   -0.071024
     20          1           0       -2.995343   -1.648020   -1.020348
     21          1           0       -3.088477   -1.918758    0.711762
     22          1           0       -4.215596   -0.807379   -0.070919
 ---------------------------------------------------------------------

 The electronic state is 1-A.
 Alpha  occ. eigenvalues --  -20.52893 -20.51611 -15.58932 -15.57507 -11.34655
 Alpha  occ. eigenvalues --  -11.33815 -11.28131 -11.25921 -11.23874 -11.22088
 Alpha  occ. eigenvalues --   -1.40076  -1.38154  -1.23661  -1.23155  -1.05444
 Alpha  occ. eigenvalues --   -0.98706  -0.95802  -0.88235  -0.79339  -0.78049
 Alpha  occ. eigenvalues --   -0.72598  -0.66819  -0.66389  -0.63786  -0.62842
 Alpha  occ. eigenvalues --   -0.61656  -0.59306  -0.57975  -0.57049  -0.56211
 Alpha  occ. eigenvalues --   -0.55553  -0.54603  -0.53401  -0.50702  -0.49670
 Alpha  occ. eigenvalues --   -0.43708  -0.41146  -0.39545  -0.38415
 Alpha virt. eigenvalues --    0.19044   0.20909   0.21329   0.23285   0.26244
 Alpha virt. eigenvalues --    0.27514   0.29097   0.30289   0.31018   0.31440
 Alpha virt. eigenvalues --    0.32132   0.33222   0.33552   0.35172   0.37846

 Mulliken atomic charges:
              1
     1  H    0.210471
     2  C   -0.601046
     3  H    0.211415
     4  H    0.175083
     5  C    0.771358
     6  O   -0.594173
     7  N   -0.758473
     8  H    0.366407
     9  C   -0.083010
    10  H    0.233224
    11  C   -0.490258
    12  H    0.172601
    13  H    0.162317
    14  H    0.197794
    15  C    0.770102
    16  O   -0.611510
    17  N   -0.791153
    18  H    0.381810
    19  C   -0.276939
    20  H    0.205155
    21  H    0.180760
    22  H    0.168063
 Sum of Mulliken atomic charges =   0.00000

 Dipole moment (field-independent basis, Debye):
    X=             -2.9089    Y=              3.3323    Z=             -1.8753  Tot=              4.8045
 Quadrupole moment (field-independent basis, Debye-Ang):
   XX=            -50.6953   YY=            -61.9903   ZZ=            -62.3006
   XY=              0.0170   XZ=             -9.4960   YZ=              1.4535

 Normal termination of Gaussian 09 at Fri Feb 10 18:39:45 2017.
