 Gaussian 09, Revision A.02,
 Gaussian 09:  EM64L-G09RevA.02 11-Jun-2009

 -------------------------------------------
 # HF/6-31G* Opt=(ModRedundant) geom=nocrowd
 -------------------------------------------

 ------------------
 Phi Psi fixed scan
 ------------------
 Symbolic Z-matrix:
 Charge =  0 Multiplicity = 1

 SCF Done:  E(RHF) =  -492.843125670     A.U. after   15 cycles
 SCF Done:  E(RHF) =  -492.850662343     A.U. after   13 cycles
 SCF Done:  E(RHF) =  -492.852043963     A.U. after   13 cycles
 SCF Done:  E(RHF) =  -492.853361692     A.U. after   13 cycles
 SCF Done:  E(RHF) =  -492.854559898     A.U. after   13 cycles
 SCF Done:  E(RHF) =  -492.856012595     A.U. after   16 cycles
 SCF Done:  E(RHF) =  -492.856334927     A.U. after   12 cycles
 SCF Done:  E(RHF) =  -492.856440912     A.U. after   12 cycles
 SCF Done:  E(RHF) =  -492.856488746     A.U. after   16 cycles
 SCF Done:  E(RHF) =  -492.856557596     A.U. after   11 cycles
 SCF Done:  E(RHF) =  -492.856630886     A.U. after   11 cycles
 SCF Done:  E(RHF) =  -492.856719015     A.U. after   16 cycles
 SCF Done:  E(RHF) =  -492.856822701     A.U. after   11 cycles
 SCF Done:  E(RHF) =  -492.856959765     A.U. after   16 cycles
 SCF Done:  E(RHF) =  -492.856983983     A.U. after   11 cycles
 SCF Done:  E(RHF) =  -492.856986943     A.U. after   10 cycles
 SCF Done:  E(RHF) =  -492.856990855     A.U. after   10 cycles
 SCF Done:  E(RHF) =  -492.856993410     A.U. after   10 cycles
 SCF Done:  E(RHF) =  -492.856993914     A.U. after    9 cycles
 SCF Done:  E(RHF) =  -492.856993972     A.U. after    8 cycles
 Optimization completed.
    -- Stationary point found.

                         Standard orientation:
 ---------------------------------------------------------------------
 Center     Atomic      Atomic             Coordinates (Angstroms)
 Number     Number       Type             X           Y           Z
 ---------------------------------------------------------------------
      1          1           0       -3.718143   -1.458898   -0.016420
      2          6           0       -3.115120   -0.751168    0.533426
      3          1           0       -2.763591   -1.223745    1.445587
      4          1           0       -3.713098    0.112221    0.803005
      5          6           0       -1.917551   -0.365552   -0.300916
      6          8           0       -1.532627   -1.019903   -1.227344
      7          7           0       -1.304528    0.808063    0.059147
      8          1           0       -1.491353    1.101440    0.994090
      9          6           0        0.061653    1.013919   -0.360835
     10          1           0        0.084023    0.964153   -1.441458
     11          6           0        0.536162    2.395370    0.096333
     12          1           0        0.539157    2.462329    1.180229
     13          1           0        1.541966    2.597790   -0.250299
     14          1           0       -0.125643    3.159116   -0.294557
     15          6           0        0.975073   -0.081238    0.206299
     16          8           0        0.655494   -0.732321    1.162758
     17          7           0        2.195041   -0.170661   -0.370482
     18          1           0        2.305854    0.222452   -1.277515
     19          6           0        3.127440   -1.208299    0.021576
     20          1           0        3.219765   -1.219833    1.097100
     21          1           0        2.804443   -2.190418   -0.306662
     22          1           0        4.094155   -0.988820   -0.412362
 ---------------------------------------------------------------------

 The electronic state is 1-A.
 Alpha  occ. eigenvalues --  -20.52493 -20.52284 -15.58548 -15.57738 -11.34271
 Alpha  occ. eigenvalues --  -11.34241 -11.27854 -11.25605 -11.23514 -11.22521
 Alpha  occ. eigenvalues --   -1.39829  -1.38531  -1.23577  -1.23218  -1.05541
 Alpha  occ. eigenvalues --   -0.99005  -0.95773  -0.87687  -0.79415  -0.78039
 Alpha  occ. eigenvalues --   -0.72531  -0.67282  -0.66780  -0.63351  -0.62690
 Alpha  occ. eigenvalues --   -0.61629  -0.59557  -0.58044  -0.57275  -0.56178
 Alpha  occ. eigenvalues --   -0.55217  -0.54037  -0.53481  -0.51103  -0.49785
 Alpha  occ. eigenvalues --   -0.43025  -0.41639  -0.39209  -0.38997
 Alpha virt. eigenvalues --    0.19312   0.20438   0.22247   0.23091   0.26480
 Alpha virt. eigenvalues --    0.27270   0.29510   0.30701   0.30763   0.31572
 Alpha virt. eigenvalues --    0.32161   0.32578   0.34024   0.34712   0.37699

 Mulliken atomic charges:
              1
     1  H    0.211241
     2  C   -0.596863
     3  H    0.210688
     4  H    0.179697
     5  C    0.757859
     6  O   -0.603734
     7  N   -0.760437
     8  H    0.377118
     9  C   -0.064966
    10  H    0.213523
    11  C   -0.493344
    12  H    0.176161
    13  H    0.180441
    14  H    0.190868
    15  C    0.778532
    16  O   -0.624866
    17  N   -0.789311
    18  H    0.380785
    19  C   -0.277704
    20  H    0.203766
    21  H    0.182622
    22  H    0.167923
 Sum of Mulliken atomic charges =   0.00000

 Dipole moment (field-independent basis, Debye):
    X=              1.4338    Y=              3.0236    Z=              0.1484  Tot=              3.3496
 Quadrupole moment (field-independent basis, Debye-Ang):
   XX=            -49.5418   YY=            -61.1191   ZZ=            -63.2160
   XY=             -1.9013   XZ=             -9.3110   YZ=             -0.7250

 Normal termination of Gaussian 09 at Fri Feb 10 18:34:01 2017.
