 Gaussian 09, Revision A.02,
 Gaussian 09:  EM64L-G09RevA.02 11-Jun-2009

 -------------------------------------------
 # HF/6-31G* Opt=(ModRedundant) geom=nocrowd
 -------------------------------------------

 ------------------
 Phi Psi fixed scan
 ------------------
 Symbolic Z-matrix:
 Charge =  0 Multiplicity = 1

 SCF Done:  E(RHF) =  -492.847084915     A.U. after   15 cycles
 SCF Done:  E(RHF) =  -492.853590785     A.U. after   13 cycles
 SCF Done:  E(RHF) =  -492.854354906     A.U. after   13 cycles
 SCF Done:  E(RHF) =  -492.855336609     A.U. after   13 cycles
 SCF Done:  E(RHF) =  -492.856205531     A.U. after   13 cycles
 SCF Done:  E(RHF) =  -492.857448833     A.U. after   13 cycles
 SCF Done:  E(RHF) =  -492.857726303     A.U. after   13 cycles
 SCF Done:  E(RHF) =  -492.857829126     A.U. after   12 cycles
 SCF Done:  E(RHF) =  -492.857897445     A.U. after   11 cycles
 SCF Done:  E(RHF) =  -492.857987255     A.U. after   12 cycles
 SCF Done:  E(RHF) =  -492.858110221     A.U. after   11 cycles
 SCF Done:  E(RHF) =  -492.858238338     A.U. after   12 cycles
 SCF Done:  E(RHF) =  -492.858336559     A.U. after   11 cycles
 SCF Done:  E(RHF) =  -492.858384890     A.U. after   12 cycles
 SCF Done:  E(RHF) =  -492.858389825     A.U. after   11 cycles
 SCF Done:  E(RHF) =  -492.858394261     A.U. after   10 cycles
 SCF Done:  E(RHF) =  -492.858399915     A.U. after   11 cycles
 SCF Done:  E(RHF) =  -492.858401095     A.U. after   10 cycles
 SCF Done:  E(RHF) =  -492.858401192     A.U. after    8 cycles
 Optimization completed.
    -- Stationary point found.

                         Standard orientation:
 ---------------------------------------------------------------------
 Center     Atomic      Atomic             Coordinates (Angstroms)
 Number     Number       Type             X           Y           Z
 ---------------------------------------------------------------------
      1          1           0       -3.652871   -1.574514   -0.011146
      2          6           0       -3.111638   -0.796449    0.507141
      3          1           0       -2.816597   -1.167767    1.484025
      4          1           0       -3.751448    0.067193    0.648388
      5          6           0       -1.867820   -0.451660   -0.276596
      6          8           0       -1.388462   -1.188971   -1.091993
      7          7           0       -1.321532    0.772181   -0.005036
      8          1           0       -1.571466    1.165843    0.876200
      9          6           0        0.041460    1.019183   -0.417564
     10          1           0        0.085158    0.899908   -1.491773
     11          6           0        0.445026    2.446523   -0.046703
     12          1           0        0.415153    2.584921    1.029322
     13          1           0        1.453037    2.658668   -0.382898
     14          1           0       -0.231086    3.156443   -0.508936
     15          6           0        0.996612    0.024377    0.250130
     16          8           0        0.801410   -0.361733    1.370624
     17          7           0        2.103144   -0.286072   -0.459553
     18          1           0        2.065323   -0.150716   -1.444187
     19          6           0        3.050954   -1.262479    0.037826
     20          1           0        3.312143   -1.021749    1.057303
     21          1           0        2.646754   -2.268828    0.014235
     22          1           0        3.943472   -1.223504   -0.572864
 ---------------------------------------------------------------------

 The electronic state is 1-A.
 Alpha  occ. eigenvalues --  -20.52614 -20.52229 -15.58340 -15.58002 -11.34586
 Alpha  occ. eigenvalues --  -11.34034 -11.27801 -11.25380 -11.23313 -11.22839
 Alpha  occ. eigenvalues --   -1.39816  -1.38599  -1.23710  -1.23071  -1.05598
 Alpha  occ. eigenvalues --   -0.99201  -0.95737  -0.87494  -0.79572  -0.78002
 Alpha  occ. eigenvalues --   -0.72477  -0.67602  -0.66887  -0.63475  -0.62423
 Alpha  occ. eigenvalues --   -0.61618  -0.59609  -0.58212  -0.57394  -0.56077
 Alpha  occ. eigenvalues --   -0.54963  -0.53946  -0.53212  -0.51395  -0.49885
 Alpha  occ. eigenvalues --   -0.42952  -0.41853  -0.39437  -0.38690
 Alpha virt. eigenvalues --    0.19349   0.20337   0.22518   0.23293   0.26436
 Alpha virt. eigenvalues --    0.27302   0.29477   0.30457   0.30793   0.31567
 Alpha virt. eigenvalues --    0.32047   0.33016   0.34214   0.34686   0.37934

 Mulliken atomic charges:
              1
     1  H    0.212327
     2  C   -0.594289
     3  H    0.208734
     4  H    0.181606
     5  C    0.753367
     6  O   -0.608123
     7  N   -0.764190
     8  H    0.381771
     9  C   -0.052461
    10  H    0.205963
    11  C   -0.501045
    12  H    0.182194
    13  H    0.184471
    14  H    0.188003
    15  C    0.780245
    16  O   -0.630028
    17  N   -0.787401
    18  H    0.384442
    19  C   -0.279266
    20  H    0.202674
    21  H    0.183036
    22  H    0.167973
 Sum of Mulliken atomic charges =   0.00000

 Dipole moment (field-independent basis, Debye):
    X=              0.5616    Y=              2.5420    Z=             -0.5672  Tot=              2.6643
 Quadrupole moment (field-independent basis, Debye-Ang):
   XX=            -49.9263   YY=            -60.3725   ZZ=            -63.6873
   XY=             -3.0078   XZ=             -8.9655   YZ=             -0.9605

 Normal termination of Gaussian 09 at Fri Feb 10 18:31:33 2017.
