 Gaussian 09, Revision A.02,
 Gaussian 09:  EM64L-G09RevA.02 11-Jun-2009

 -------------------------------------------
 # HF/6-31G* Opt=(ModRedundant) geom=nocrowd
 -------------------------------------------

 ------------------
 Phi Psi fixed scan
 ------------------
 Symbolic Z-matrix:
 Charge =  0 Multiplicity = 1

 SCF Done:  E(RHF) =  -492.822298370     A.U. after   15 cycles
 SCF Done:  E(RHF) =  -492.836613550     A.U. after   14 cycles
 SCF Done:  E(RHF) =  -492.839246652     A.U. after   13 cycles
 SCF Done:  E(RHF) =  -492.839683386     A.U. after   13 cycles
 SCF Done:  E(RHF) =  -492.840128765     A.U. after   13 cycles
 SCF Done:  E(RHF) =  -492.840387598     A.U. after   13 cycles
 SCF Done:  E(RHF) =  -492.840475738     A.U. after   14 cycles
 SCF Done:  E(RHF) =  -492.840784082     A.U. after   13 cycles
 SCF Done:  E(RHF) =  -492.840942849     A.U. after   13 cycles
 SCF Done:  E(RHF) =  -492.840992753     A.U. after   12 cycles
 SCF Done:  E(RHF) =  -492.841086399     A.U. after   13 cycles
 SCF Done:  E(RHF) =  -492.841191248     A.U. after   16 cycles
 SCF Done:  E(RHF) =  -492.841242545     A.U. after   12 cycles
 SCF Done:  E(RHF) =  -492.841275386     A.U. after   11 cycles
 SCF Done:  E(RHF) =  -492.841351740     A.U. after   12 cycles
 SCF Done:  E(RHF) =  -492.841402697     A.U. after   16 cycles
 SCF Done:  E(RHF) =  -492.841434429     A.U. after   11 cycles
 SCF Done:  E(RHF) =  -492.841461027     A.U. after   11 cycles
 SCF Done:  E(RHF) =  -492.841466750     A.U. after   11 cycles
 SCF Done:  E(RHF) =  -492.841467956     A.U. after    9 cycles
 Optimization completed.
    -- Stationary point found.

                         Standard orientation:
 ---------------------------------------------------------------------
 Center     Atomic      Atomic             Coordinates (Angstroms)
 Number     Number       Type             X           Y           Z
 ---------------------------------------------------------------------
      1          1           0       -3.762500   -1.275719    0.662601
      2          6           0       -2.984559   -0.646038    1.068063
      3          1           0       -2.485213   -1.181262    1.870694
      4          1           0       -3.423905    0.254348    1.484117
      5          6           0       -1.990393   -0.329261   -0.031299
      6          8           0       -1.960048   -0.929176   -1.061577
      7          7           0       -1.157856    0.722524    0.249730
      8          1           0       -1.186253    1.056049    1.188138
      9          6           0        0.066876    1.015022   -0.484383
     10          1           0       -0.200100    1.062304   -1.530285
     11          6           0        0.601153    2.375721   -0.047997
     12          1           0        0.796995    2.423326    1.020583
     13          1           0        1.523391    2.610858   -0.565201
     14          1           0       -0.129411    3.141456   -0.280129
     15          6           0        1.091997   -0.133420   -0.430611
     16          8           0        1.140037   -0.967152   -1.286247
     17          7           0        1.982527   -0.104190    0.594526
     18          1           0        1.826334    0.515335    1.353917
     19          6           0        2.929332   -1.182499    0.786973
     20          1           0        3.440875   -1.385368   -0.142146
     21          1           0        3.655154   -0.879688    1.530545
     22          1           0        2.445586   -2.096509    1.115492
 ---------------------------------------------------------------------

 The electronic state is 1-A.
 Alpha  occ. eigenvalues --  -20.52287 -20.51960 -15.58957 -15.58502 -11.34670
 Alpha  occ. eigenvalues --  -11.33937 -11.28151 -11.25701 -11.24195 -11.23356
 Alpha  occ. eigenvalues --   -1.39494  -1.38634  -1.24345  -1.22685  -1.06054
 Alpha  occ. eigenvalues --   -0.99495  -0.95632  -0.88795  -0.80037  -0.78634
 Alpha  occ. eigenvalues --   -0.72024  -0.67689  -0.66694  -0.63873  -0.62151
 Alpha  occ. eigenvalues --   -0.61947  -0.59343  -0.58696  -0.57941  -0.56322
 Alpha  occ. eigenvalues --   -0.55705  -0.54829  -0.53012  -0.51374  -0.50738
 Alpha  occ. eigenvalues --   -0.43728  -0.41617  -0.38737  -0.37731
 Alpha virt. eigenvalues --    0.18877   0.19789   0.20764   0.23740   0.25740
 Alpha virt. eigenvalues --    0.27052   0.27976   0.29508   0.30348   0.31138
 Alpha virt. eigenvalues --    0.32147   0.32868   0.33818   0.34726   0.37936

 Mulliken atomic charges:
              1
     1  H    0.219485
     2  C   -0.594260
     3  H    0.188674
     4  H    0.179729
     5  C    0.744397
     6  O   -0.560576
     7  N   -0.806754
     8  H    0.367857
     9  C   -0.039822
    10  H    0.241946
    11  C   -0.504727
    12  H    0.141389
    13  H    0.197123
    14  H    0.195421
    15  C    0.755888
    16  O   -0.579811
    17  N   -0.796945
    18  H    0.376239
    19  C   -0.272356
    20  H    0.207143
    21  H    0.164068
    22  H    0.175891
 Sum of Mulliken atomic charges =   0.00000

 Dipole moment (field-independent basis, Debye):
    X=              0.9897    Y=              3.7725    Z=              6.1293  Tot=              7.2649
 Quadrupole moment (field-independent basis, Debye-Ang):
   XX=            -56.2860   YY=            -60.9426   ZZ=            -62.0367
   XY=             -1.0804   XZ=             -1.8944   YZ=             -5.4373

 Normal termination of Gaussian 09 at Fri Feb 10 19:08:18 2017.
