 Gaussian 09, Revision A.02,
 Gaussian 09:  EM64L-G09RevA.02 11-Jun-2009

 -------------------------------------------
 # HF/6-31G* Opt=(ModRedundant) geom=nocrowd
 -------------------------------------------

 ------------------
 Phi Psi fixed scan
 ------------------
 Symbolic Z-matrix:
 Charge =  0 Multiplicity = 1

 SCF Done:  E(RHF) =  -492.838569456     A.U. after   15 cycles
 SCF Done:  E(RHF) =  -492.847438486     A.U. after   14 cycles
 SCF Done:  E(RHF) =  -492.848809907     A.U. after   13 cycles
 SCF Done:  E(RHF) =  -492.848899693     A.U. after   13 cycles
 SCF Done:  E(RHF) =  -492.849287268     A.U. after   13 cycles
 SCF Done:  E(RHF) =  -492.849584054     A.U. after   13 cycles
 SCF Done:  E(RHF) =  -492.849765767     A.U. after   13 cycles
 SCF Done:  E(RHF) =  -492.849986662     A.U. after   12 cycles
 SCF Done:  E(RHF) =  -492.850163411     A.U. after   12 cycles
 SCF Done:  E(RHF) =  -492.850261002     A.U. after   11 cycles
 SCF Done:  E(RHF) =  -492.850689643     A.U. after   13 cycles
 SCF Done:  E(RHF) =  -492.850736091     A.U. after   11 cycles
 SCF Done:  E(RHF) =  -492.850756260     A.U. after   11 cycles
 SCF Done:  E(RHF) =  -492.850772621     A.U. after   12 cycles
 SCF Done:  E(RHF) =  -492.850773703     A.U. after   10 cycles
 SCF Done:  E(RHF) =  -492.850773897     A.U. after    8 cycles
 SCF Done:  E(RHF) =  -492.850774098     A.U. after    8 cycles
 SCF Done:  E(RHF) =  -492.850774287     A.U. after    8 cycles
 SCF Done:  E(RHF) =  -492.850774484     A.U. after    9 cycles
 SCF Done:  E(RHF) =  -492.850774509     A.U. after    8 cycles
 Optimization completed.
    -- Stationary point found.

                         Standard orientation:
 ---------------------------------------------------------------------
 Center     Atomic      Atomic             Coordinates (Angstroms)
 Number     Number       Type             X           Y           Z
 ---------------------------------------------------------------------
      1          1           0        3.517723   -1.660473   -0.432099
      2          6           0        3.213328   -0.629806   -0.540605
      3          1           0        3.205314   -0.359090   -1.590667
      4          1           0        3.938526   -0.000652   -0.033121
      5          6           0        1.856600   -0.449226    0.106373
      6          8           0        1.433079   -1.199962    0.936018
      7          7           0        1.147671    0.632233   -0.324347
      8          1           0        1.621964    1.288059   -0.903880
      9          6           0       -0.043856    1.110212    0.363613
     10          1           0        0.192514    1.306897    1.401720
     11          6           0       -0.538948    2.395249   -0.295883
     12          1           0       -0.771949    2.243440   -1.343684
     13          1           0       -1.433999    2.745584    0.203288
     14          1           0        0.214328    3.173492   -0.216779
     15          6           0       -1.156634    0.058366    0.428072
     16          8           0       -1.686322   -0.207551    1.466751
     17          7           0       -1.615024   -0.383993   -0.772376
     18          1           0       -0.975544   -0.330936   -1.533420
     19          6           0       -2.601266   -1.444494   -0.823716
     20          1           0       -3.438984   -1.183005   -0.195148
     21          1           0       -2.946720   -1.548414   -1.844367
     22          1           0       -2.201109   -2.394282   -0.484052
 ---------------------------------------------------------------------

 The electronic state is 1-A.
 Alpha  occ. eigenvalues --  -20.53176 -20.51578 -15.59546 -15.57495 -11.35499
 Alpha  occ. eigenvalues --  -11.33512 -11.28000 -11.24824 -11.24044 -11.23845
 Alpha  occ. eigenvalues --   -1.40191  -1.38351  -1.24891  -1.21969  -1.06162
 Alpha  occ. eigenvalues --   -1.00028  -0.95058  -0.88301  -0.80802  -0.77464
 Alpha  occ. eigenvalues --   -0.70607  -0.69358  -0.67602  -0.62905  -0.62383
 Alpha  occ. eigenvalues --   -0.62037  -0.59468  -0.58547  -0.58238  -0.55736
 Alpha  occ. eigenvalues --   -0.54912  -0.54637  -0.54200  -0.51555  -0.50154
 Alpha  occ. eigenvalues --   -0.42717  -0.42088  -0.39130  -0.38290
 Alpha virt. eigenvalues --    0.19227   0.20257   0.20802   0.24255   0.25775
 Alpha virt. eigenvalues --    0.27672   0.28188   0.29681   0.30081   0.30871
 Alpha virt. eigenvalues --    0.32164   0.33000   0.34200   0.35011   0.37514

 Mulliken atomic charges:
              1
     1  H    0.219379
     2  C   -0.589674
     3  H    0.175877
     4  H    0.199232
     5  C    0.739385
     6  O   -0.578202
     7  N   -0.825188
     8  H    0.382205
     9  C   -0.035495
    10  H    0.226078
    11  C   -0.511407
    12  H    0.173785
    13  H    0.204414
    14  H    0.171029
    15  C    0.780049
    16  O   -0.600105
    17  N   -0.775092
    18  H    0.377912
    19  C   -0.281189
    20  H    0.203849
    21  H    0.163210
    22  H    0.179948
 Sum of Mulliken atomic charges =   0.00000

 Dipole moment (field-independent basis, Debye):
    X=              2.5802    Y=              2.9160    Z=             -5.4754  Tot=              6.7187
 Quadrupole moment (field-independent basis, Debye-Ang):
   XX=            -55.2741   YY=            -58.1085   ZZ=            -64.6746
   XY=              4.1745   XZ=              1.7022   YZ=              4.6529

 Normal termination of Gaussian 09 at Fri Feb 10 19:14:01 2017.
