 Gaussian 09, Revision A.02,
 Gaussian 09:  EM64L-G09RevA.02 11-Jun-2009

 -------------------------------------------
 # HF/6-31G* Opt=(ModRedundant) geom=nocrowd
 -------------------------------------------

 ------------------
 Phi Psi fixed scan
 ------------------
 Symbolic Z-matrix:
 Charge =  0 Multiplicity = 1

 SCF Done:  E(RHF) =  -492.821886162     A.U. after   15 cycles
 SCF Done:  E(RHF) =  -492.845038215     A.U. after   16 cycles
 SCF Done:  E(RHF) =  -492.844790424     A.U. after   15 cycles
 SCF Done:  E(RHF) =  -492.851462585     A.U. after   13 cycles
 SCF Done:  E(RHF) =  -492.852367347     A.U. after   13 cycles
 SCF Done:  E(RHF) =  -492.853017447     A.U. after   12 cycles
 SCF Done:  E(RHF) =  -492.853185293     A.U. after   16 cycles
 SCF Done:  E(RHF) =  -492.853250788     A.U. after   13 cycles
 SCF Done:  E(RHF) =  -492.853493000     A.U. after   12 cycles
 SCF Done:  E(RHF) =  -492.853902543     A.U. after   13 cycles
 SCF Done:  E(RHF) =  -492.854486777     A.U. after   12 cycles
 SCF Done:  E(RHF) =  -492.854479912     A.U. after   12 cycles
 SCF Done:  E(RHF) =  -492.854503771     A.U. after   11 cycles
 SCF Done:  E(RHF) =  -492.854529710     A.U. after   12 cycles
 SCF Done:  E(RHF) =  -492.854523457     A.U. after   11 cycles
 SCF Done:  E(RHF) =  -492.854534943     A.U. after   10 cycles
 SCF Done:  E(RHF) =  -492.854538065     A.U. after   10 cycles
 SCF Done:  E(RHF) =  -492.854540419     A.U. after   10 cycles
 SCF Done:  E(RHF) =  -492.854540692     A.U. after    9 cycles
 SCF Done:  E(RHF) =  -492.854540710     A.U. after    8 cycles
 Optimization completed on the basis of negligible forces.
    -- Stationary point found.

                         Standard orientation:
 ---------------------------------------------------------------------
 Center     Atomic      Atomic             Coordinates (Angstroms)
 Number     Number       Type             X           Y           Z
 ---------------------------------------------------------------------
      1          1           0        3.880225   -1.005834    0.129160
      2          6           0        3.181977   -0.517199   -0.535355
      3          1           0        3.022222   -1.163909   -1.392435
      4          1           0        3.603166    0.418365   -0.883171
      5          6           0        1.867096   -0.338687    0.192377
      6          8           0        1.489819   -1.138240    1.012712
      7          7           0        1.155326    0.753749   -0.150022
      8          1           0        1.501509    1.292375   -0.911121
      9          6           0       -0.166567    1.133085    0.338761
     10          1           0       -0.102291    1.206815    1.419952
     11          6           0       -0.498998    2.515356   -0.219615
     12          1           0       -0.568019    2.488418   -1.303567
     13          1           0       -1.447648    2.851757    0.167022
     14          1           0        0.272110    3.224411    0.062458
     15          6           0       -1.347036    0.172948    0.096270
     16          8           0       -2.460431    0.607477    0.232206
     17          7           0       -1.102192   -1.099779   -0.273748
     18          1           0       -0.227210   -1.483349    0.005992
     19          6           0       -2.212694   -2.025642   -0.378919
     20          1           0       -2.952311   -1.634586   -1.062021
     21          1           0       -1.838936   -2.965010   -0.764713
     22          1           0       -2.692537   -2.200295    0.578379
 ---------------------------------------------------------------------

 The electronic state is 1-A.
 Alpha  occ. eigenvalues --  -20.53796 -20.51794 -15.60232 -15.56901 -11.36535
 Alpha  occ. eigenvalues --  -11.33968 -11.28684 -11.24561 -11.24523 -11.22855
 Alpha  occ. eigenvalues --   -1.40763  -1.38671  -1.25416  -1.21968  -1.06271
 Alpha  occ. eigenvalues --   -1.00174  -0.95266  -0.87872  -0.81469  -0.77657
 Alpha  occ. eigenvalues --   -0.72408  -0.69352  -0.67621  -0.63605  -0.62321
 Alpha  occ. eigenvalues --   -0.62199  -0.59474  -0.59077  -0.58398  -0.55040
 Alpha  occ. eigenvalues --   -0.54574  -0.54321  -0.53461  -0.52392  -0.49653
 Alpha  occ. eigenvalues --   -0.44154  -0.43273  -0.39496  -0.37721
 Alpha virt. eigenvalues --    0.18042   0.20102   0.21262   0.25746   0.26159
 Alpha virt. eigenvalues --    0.28111   0.28879   0.29631   0.30977   0.31269
 Alpha virt. eigenvalues --    0.32827   0.33211   0.34796   0.35327   0.38327

 Mulliken atomic charges:
              1
     1  H    0.219295
     2  C   -0.584751
     3  H    0.204421
     4  H    0.177555
     5  C    0.754059
     6  O   -0.632310
     7  N   -0.815521
     8  H    0.390848
     9  C   -0.013926
    10  H    0.225253
    11  C   -0.517347
    12  H    0.167178
    13  H    0.230085
    14  H    0.171468
    15  C    0.761839
    16  O   -0.618858
    17  N   -0.814750
    18  H    0.436559
    19  C   -0.278168
    20  H    0.193933
    21  H    0.166505
    22  H    0.176632
 Sum of Mulliken atomic charges =   0.00000

 Dipole moment (field-independent basis, Debye):
    X=              3.7525    Y=              0.8336    Z=             -2.6436  Tot=              4.6653
 Quadrupole moment (field-independent basis, Debye-Ang):
   XX=            -63.6488   YY=            -56.9640   ZZ=            -61.5486
   XY=              7.1237   XZ=             -3.7196   YZ=              1.9872

 Normal termination of Gaussian 09 at Fri Feb 10 17:57:13 2017.
