 Gaussian 09, Revision A.02,
 Gaussian 09:  EM64L-G09RevA.02 11-Jun-2009

 -------------------------------------------
 # HF/6-31G* Opt=(ModRedundant) geom=nocrowd
 -------------------------------------------

 ------------------
 Phi Psi fixed scan
 ------------------
 Symbolic Z-matrix:
 Charge =  0 Multiplicity = 1

 SCF Done:  E(RHF) =  -492.842762180     A.U. after   15 cycles
 SCF Done:  E(RHF) =  -492.851489652     A.U. after   14 cycles
 SCF Done:  E(RHF) =  -492.852899561     A.U. after   13 cycles
 SCF Done:  E(RHF) =  -492.853026027     A.U. after   12 cycles
 SCF Done:  E(RHF) =  -492.853344900     A.U. after   11 cycles
 SCF Done:  E(RHF) =  -492.853425476     A.U. after   12 cycles
 SCF Done:  E(RHF) =  -492.853521251     A.U. after   12 cycles
 SCF Done:  E(RHF) =  -492.853600216     A.U. after   11 cycles
 SCF Done:  E(RHF) =  -492.853714760     A.U. after   12 cycles
 SCF Done:  E(RHF) =  -492.853767372     A.U. after   11 cycles
 SCF Done:  E(RHF) =  -492.853958150     A.U. after   13 cycles
 SCF Done:  E(RHF) =  -492.854156457     A.U. after   13 cycles
 SCF Done:  E(RHF) =  -492.854316505     A.U. after   12 cycles
 SCF Done:  E(RHF) =  -492.854348668     A.U. after   11 cycles
 SCF Done:  E(RHF) =  -492.854354721     A.U. after   11 cycles
 SCF Done:  E(RHF) =  -492.854357163     A.U. after   11 cycles
 SCF Done:  E(RHF) =  -492.854357787     A.U. after    9 cycles
 SCF Done:  E(RHF) =  -492.854357905     A.U. after    8 cycles
 SCF Done:  E(RHF) =  -492.854358021     A.U. after    8 cycles
 SCF Done:  E(RHF) =  -492.854358067     A.U. after    8 cycles
 Optimization completed.
    -- Stationary point found.

                         Standard orientation:
 ---------------------------------------------------------------------
 Center     Atomic      Atomic             Coordinates (Angstroms)
 Number     Number       Type             X           Y           Z
 ---------------------------------------------------------------------
      1          1           0        3.467899   -1.633714   -0.297488
      2          6           0        3.208183   -0.588665   -0.385692
      3          1           0        3.259988   -0.285559   -1.425396
      4          1           0        3.934034   -0.007583    0.174407
      5          6           0        1.836740   -0.371204    0.217715
      6          8           0        1.394703   -1.086452    1.074869
      7          7           0        1.154051    0.699246   -0.255553
      8          1           0        1.566267    1.236964   -0.982867
      9          6           0       -0.122006    1.155087    0.271205
     10          1           0       -0.005975    1.366286    1.326868
     11          6           0       -0.524191    2.442441   -0.449362
     12          1           0       -0.660777    2.264830   -1.512282
     13          1           0       -1.453683    2.812003   -0.041512
     14          1           0        0.239156    3.203064   -0.319590
     15          6           0       -1.297553    0.172227    0.218189
     16          8           0       -2.295224    0.463920    0.821297
     17          7           0       -1.204738   -0.921492   -0.563908
     18          1           0       -0.293520   -1.240214   -0.790481
     19          6           0       -2.254597   -1.919644   -0.532265
     20          1           0       -3.210087   -1.444356   -0.695087
     21          1           0       -2.076363   -2.633908   -1.325582
     22          1           0       -2.287415   -2.443286    0.417168
 ---------------------------------------------------------------------

 The electronic state is 1-A.
 Alpha  occ. eigenvalues --  -20.53519 -20.51463 -15.59914 -15.57498 -11.36061
 Alpha  occ. eigenvalues --  -11.33784 -11.28256 -11.24767 -11.24458 -11.23305
 Alpha  occ. eigenvalues --   -1.40536  -1.38434  -1.25225  -1.22147  -1.06212
 Alpha  occ. eigenvalues --   -1.00199  -0.95325  -0.88068  -0.81282  -0.78024
 Alpha  occ. eigenvalues --   -0.71970  -0.69221  -0.67707  -0.63105  -0.62340
 Alpha  occ. eigenvalues --   -0.62258  -0.59524  -0.59056  -0.58381  -0.55546
 Alpha  occ. eigenvalues --   -0.54834  -0.54327  -0.53986  -0.52232  -0.49375
 Alpha  occ. eigenvalues --   -0.43335  -0.43028  -0.39489  -0.37801
 Alpha virt. eigenvalues --    0.18753   0.20054   0.20686   0.25317   0.25706
 Alpha virt. eigenvalues --    0.27720   0.29428   0.29593   0.29635   0.31524
 Alpha virt. eigenvalues --    0.32328   0.32918   0.34279   0.34929   0.37859

 Mulliken atomic charges:
              1
     1  H    0.216127
     2  C   -0.584255
     3  H    0.173030
     4  H    0.207283
     5  C    0.728918
     6  O   -0.601879
     7  N   -0.833347
     8  H    0.389633
     9  C    0.010668
    10  H    0.226676
    11  C   -0.526564
    12  H    0.171625
    13  H    0.224733
    14  H    0.172660
    15  C    0.768742
    16  O   -0.625441
    17  N   -0.781475
    18  H    0.396189
    19  C   -0.280738
    20  H    0.200530
    21  H    0.164169
    22  H    0.182716
 Sum of Mulliken atomic charges =   0.00000

 Dipole moment (field-independent basis, Debye):
    X=              3.8663    Y=              1.0468    Z=             -4.2250  Tot=              5.8219
 Quadrupole moment (field-independent basis, Debye-Ang):
   XX=            -60.9406   YY=            -56.2114   ZZ=            -63.5826
   XY=              6.1697   XZ=             -0.1214   YZ=              2.4428

 Normal termination of Gaussian 09 at Fri Feb 10 19:22:22 2017.
