 Gaussian 09, Revision A.02,
 Gaussian 09:  EM64L-G09RevA.02 11-Jun-2009

 -------------------------------------------
 # HF/6-31G* Opt=(ModRedundant) geom=nocrowd
 -------------------------------------------

 ------------------
 Phi Psi fixed scan
 ------------------
 Symbolic Z-matrix:
 Charge =  0 Multiplicity = 1

 SCF Done:  E(RHF) =  -492.814462311     A.U. after   15 cycles
 SCF Done:  E(RHF) =  -492.832388142     A.U. after   14 cycles
 SCF Done:  E(RHF) =  -492.836281774     A.U. after   14 cycles
 SCF Done:  E(RHF) =  -492.837057054     A.U. after   13 cycles
 SCF Done:  E(RHF) =  -492.837909072     A.U. after   14 cycles
 SCF Done:  E(RHF) =  -492.838801512     A.U. after   14 cycles
 SCF Done:  E(RHF) =  -492.839026796     A.U. after   14 cycles
 SCF Done:  E(RHF) =  -492.839382530     A.U. after   13 cycles
 SCF Done:  E(RHF) =  -492.839432137     A.U. after   12 cycles
 SCF Done:  E(RHF) =  -492.839483967     A.U. after   12 cycles
 SCF Done:  E(RHF) =  -492.839836973     A.U. after   12 cycles
 SCF Done:  E(RHF) =  -492.839923362     A.U. after   12 cycles
 SCF Done:  E(RHF) =  -492.839949624     A.U. after   12 cycles
 SCF Done:  E(RHF) =  -492.839951306     A.U. after    8 cycles
 SCF Done:  E(RHF) =  -492.839954297     A.U. after    9 cycles
 SCF Done:  E(RHF) =  -492.839719920     A.U. after   13 cycles
 SCF Done:  E(RHF) =  -492.839983549     A.U. after   13 cycles
 SCF Done:  E(RHF) =  -492.839994220     A.U. after   10 cycles
 SCF Done:  E(RHF) =  -492.839995621     A.U. after    9 cycles
 SCF Done:  E(RHF) =  -492.839995660     A.U. after    9 cycles
 Optimization completed.
    -- Stationary point found.

                         Standard orientation:
 ---------------------------------------------------------------------
 Center     Atomic      Atomic             Coordinates (Angstroms)
 Number     Number       Type             X           Y           Z
 ---------------------------------------------------------------------
      1          1           0       -3.694133   -1.302544    0.777255
      2          6           0       -2.870618   -0.709624    1.146394
      3          1           0       -2.267684   -1.321251    1.811490
      4          1           0       -3.252560    0.132213    1.714607
      5          6           0       -2.028715   -0.254110   -0.027221
      6          8           0       -2.150790   -0.710525   -1.120162
      7          7           0       -1.160468    0.778840    0.266454
      8          1           0       -1.076576    0.961708    1.244411
      9          6           0        0.083041    1.004308   -0.461950
     10          1           0       -0.180061    1.043423   -1.509844
     11          6           0        0.656167    2.356443   -0.049951
     12          1           0        0.862343    2.408499    1.016669
     13          1           0        1.573470    2.574056   -0.586167
     14          1           0       -0.062334    3.132961   -0.280439
     15          6           0        1.036316   -0.203403   -0.366030
     16          8           0        0.823553   -1.213900   -0.971272
     17          7           0        2.106156   -0.079028    0.456605
     18          1           0        2.333341    0.805561    0.841764
     19          6           0        3.083399   -1.142271    0.565100
     20          1           0        3.621447   -1.287720   -0.364760
     21          1           0        3.788264   -0.886657    1.345355
     22          1           0        2.595032   -2.071593    0.821670
 ---------------------------------------------------------------------

 The electronic state is 1-A.
 Alpha  occ. eigenvalues --  -20.52086 -20.52007 -15.58788 -15.58467 -11.34288
 Alpha  occ. eigenvalues --  -11.34221 -11.28226 -11.25927 -11.24285 -11.22960
 Alpha  occ. eigenvalues --   -1.39501  -1.38520  -1.24019  -1.22910  -1.05904
 Alpha  occ. eigenvalues --   -0.99240  -0.95792  -0.88865  -0.79501  -0.78680
 Alpha  occ. eigenvalues --   -0.72282  -0.67197  -0.66205  -0.64313  -0.62514
 Alpha  occ. eigenvalues --   -0.61433  -0.59329  -0.58596  -0.57755  -0.56467
 Alpha  occ. eigenvalues --   -0.55796  -0.55006  -0.52925  -0.50948  -0.50542
 Alpha  occ. eigenvalues --   -0.44075  -0.41418  -0.39105  -0.37394
 Alpha virt. eigenvalues --    0.18645   0.20225   0.21709   0.23411   0.25479
 Alpha virt. eigenvalues --    0.27425   0.27882   0.29718   0.29918   0.31130
 Alpha virt. eigenvalues --    0.32889   0.33052   0.33282   0.33779   0.37837

 Mulliken atomic charges:
              1
     1  H    0.217745
     2  C   -0.596412
     3  H    0.191512
     4  H    0.179370
     5  C    0.748668
     6  O   -0.556063
     7  N   -0.788682
     8  H    0.363392
     9  C   -0.035692
    10  H    0.239748
    11  C   -0.522754
    12  H    0.151282
    13  H    0.183747
    14  H    0.206046
    15  C    0.743196
    16  O   -0.584100
    17  N   -0.808721
    18  H    0.390953
    19  C   -0.269928
    20  H    0.183430
    21  H    0.163601
    22  H    0.199662
 Sum of Mulliken atomic charges =   0.00000

 Dipole moment (field-independent basis, Debye):
    X=              2.7047    Y=              3.8680    Z=              5.1628  Tot=              6.9951
 Quadrupole moment (field-independent basis, Debye-Ang):
   XX=            -54.5625   YY=            -61.2971   ZZ=            -62.1557
   XY=              0.7922   XZ=             -4.4261   YZ=             -4.9151

 Normal termination of Gaussian 09 at Sat Feb 11 17:43:04 2017.
