 Gaussian 09, Revision A.02,
 Gaussian 09:  EM64L-G09RevA.02 11-Jun-2009

 -------------------------------------------
 # HF/6-31G* Opt=(ModRedundant) geom=nocrowd
 -------------------------------------------

 ------------------
 Phi Psi fixed scan
 ------------------
 Symbolic Z-matrix:
 Charge =  0 Multiplicity = 1

 SCF Done:  E(RHF) =  -492.843482433     A.U. after   15 cycles
 SCF Done:  E(RHF) =  -492.851396865     A.U. after   13 cycles
 SCF Done:  E(RHF) =  -492.852430990     A.U. after   13 cycles
 SCF Done:  E(RHF) =  -492.852641472     A.U. after   13 cycles
 SCF Done:  E(RHF) =  -492.852985523     A.U. after   12 cycles
 SCF Done:  E(RHF) =  -492.853211242     A.U. after   14 cycles
 SCF Done:  E(RHF) =  -492.853457116     A.U. after   12 cycles
 SCF Done:  E(RHF) =  -492.853576532     A.U. after   12 cycles
 SCF Done:  E(RHF) =  -492.853675653     A.U. after   11 cycles
 SCF Done:  E(RHF) =  -492.853768443     A.U. after   11 cycles
 SCF Done:  E(RHF) =  -492.854177988     A.U. after   13 cycles
 SCF Done:  E(RHF) =  -492.854210007     A.U. after   11 cycles
 SCF Done:  E(RHF) =  -492.854223875     A.U. after   11 cycles
 SCF Done:  E(RHF) =  -492.854232730     A.U. after   11 cycles
 SCF Done:  E(RHF) =  -492.854235324     A.U. after   10 cycles
 SCF Done:  E(RHF) =  -492.854235452     A.U. after    8 cycles
 SCF Done:  E(RHF) =  -492.854235493     A.U. after    7 cycles
 SCF Done:  E(RHF) =  -492.854235556     A.U. after    8 cycles
 SCF Done:  E(RHF) =  -492.854235617     A.U. after    8 cycles
 SCF Done:  E(RHF) =  -492.854235630     A.U. after    6 cycles
 Optimization completed.
    -- Stationary point found.

                         Standard orientation:
 ---------------------------------------------------------------------
 Center     Atomic      Atomic             Coordinates (Angstroms)
 Number     Number       Type             X           Y           Z
 ---------------------------------------------------------------------
      1          1           0        3.461410   -1.693613   -0.264317
      2          6           0        3.191821   -0.658481   -0.415200
      3          1           0        3.232347   -0.419589   -1.472117
      4          1           0        3.915707   -0.036028    0.102115
      5          6           0        1.819427   -0.417888    0.175611
      6          8           0        1.357860   -1.110331    1.036656
      7          7           0        1.139468    0.645112   -0.337137
      8          1           0        1.630961    1.260113   -0.945982
      9          6           0       -0.069609    1.158061    0.289139
     10          1           0        0.134831    1.419207    1.319596
     11          6           0       -0.553901    2.396488   -0.463078
     12          1           0       -0.774370    2.165951   -1.499639
     13          1           0       -1.453988    2.777945    0.002180
     14          1           0        0.198313    3.179211   -0.431999
     15          6           0       -1.196947    0.127067    0.374246
     16          8           0       -1.913662    0.103018    1.333759
     17          7           0       -1.423038   -0.603054   -0.743467
     18          1           0       -0.662860   -0.690145   -1.378381
     19          6           0       -2.402657   -1.669675   -0.731369
     20          1           0       -3.336920   -1.293959   -0.342251
     21          1           0       -2.556996   -2.011907   -1.746715
     22          1           0       -2.085830   -2.506518   -0.117684
 ---------------------------------------------------------------------

 The electronic state is 1-A.
 Alpha  occ. eigenvalues --  -20.53464 -20.51374 -15.59728 -15.57345 -11.35774
 Alpha  occ. eigenvalues --  -11.33475 -11.27961 -11.24724 -11.24273 -11.23688
 Alpha  occ. eigenvalues --   -1.40452  -1.38211  -1.25102  -1.21895  -1.06188
 Alpha  occ. eigenvalues --   -1.00183  -0.95118  -0.88151  -0.80976  -0.77550
 Alpha  occ. eigenvalues --   -0.70908  -0.69461  -0.67807  -0.62620  -0.62367
 Alpha  occ. eigenvalues --   -0.62237  -0.59598  -0.58734  -0.58333  -0.55687
 Alpha  occ. eigenvalues --   -0.54793  -0.54582  -0.54221  -0.51798  -0.49812
 Alpha  occ. eigenvalues --   -0.42799  -0.42425  -0.39252  -0.38127
 Alpha virt. eigenvalues --    0.19087   0.20379   0.20739   0.24808   0.25528
 Alpha virt. eigenvalues --    0.27727   0.28530   0.29578   0.30005   0.31190
 Alpha virt. eigenvalues --    0.32125   0.32972   0.34216   0.34915   0.37498

 Mulliken atomic charges:
              1
     1  H    0.219121
     2  C   -0.588459
     3  H    0.175593
     4  H    0.201869
     5  C    0.737653
     6  O   -0.583480
     7  N   -0.831126
     8  H    0.384337
     9  C   -0.020972
    10  H    0.225506
    11  C   -0.517268
    12  H    0.177678
    13  H    0.209554
    14  H    0.170529
    15  C    0.777945
    16  O   -0.612589
    17  N   -0.777082
    18  H    0.383977
    19  C   -0.280301
    20  H    0.202734
    21  H    0.162606
    22  H    0.182173
 Sum of Mulliken atomic charges =   0.00000

 Dipole moment (field-independent basis, Debye):
    X=              3.3297    Y=              2.0430    Z=             -5.3104  Tot=              6.5925
 Quadrupole moment (field-independent basis, Debye-Ang):
   XX=            -57.0119   YY=            -56.6790   ZZ=            -65.0858
   XY=              4.6593   XZ=              1.7540   YZ=              3.5930

 Normal termination of Gaussian 09 at Fri Feb 10 19:16:45 2017.
