 Gaussian 09, Revision A.02,
 Gaussian 09:  EM64L-G09RevA.02 11-Jun-2009

 -------------------------------------------
 # HF/6-31G* Opt=(ModRedundant) geom=nocrowd
 -------------------------------------------

 ------------------
 Phi Psi fixed scan
 ------------------
 Symbolic Z-matrix:
 Charge =  0 Multiplicity = 1

 SCF Done:  E(RHF) =  -492.831148876     A.U. after   15 cycles
 SCF Done:  E(RHF) =  -492.842113304     A.U. after   14 cycles
 SCF Done:  E(RHF) =  -492.843813722     A.U. after   13 cycles
 SCF Done:  E(RHF) =  -492.844021011     A.U. after   13 cycles
 SCF Done:  E(RHF) =  -492.844356563     A.U. after   12 cycles
 SCF Done:  E(RHF) =  -492.844478401     A.U. after   12 cycles
 SCF Done:  E(RHF) =  -492.844634961     A.U. after   13 cycles
 SCF Done:  E(RHF) =  -492.844748172     A.U. after   11 cycles
 SCF Done:  E(RHF) =  -492.844952757     A.U. after   13 cycles
 SCF Done:  E(RHF) =  -492.845060754     A.U. after   12 cycles
 SCF Done:  E(RHF) =  -492.845603241     A.U. after   12 cycles
 SCF Done:  E(RHF) =  -492.845610503     A.U. after   11 cycles
 SCF Done:  E(RHF) =  -492.845615558     A.U. after   10 cycles
 SCF Done:  E(RHF) =  -492.845631711     A.U. after   13 cycles
 SCF Done:  E(RHF) =  -492.845638129     A.U. after   12 cycles
 SCF Done:  E(RHF) =  -492.845646942     A.U. after   11 cycles
 SCF Done:  E(RHF) =  -492.845648070     A.U. after   10 cycles
 SCF Done:  E(RHF) =  -492.845648228     A.U. after    8 cycles
 SCF Done:  E(RHF) =  -492.845648626     A.U. after   10 cycles
 SCF Done:  E(RHF) =  -492.845648724     A.U. after    8 cycles
 Optimization completed.
    -- Stationary point found.

                         Standard orientation:
 ---------------------------------------------------------------------
 Center     Atomic      Atomic             Coordinates (Angstroms)
 Number     Number       Type             X           Y           Z
 ---------------------------------------------------------------------
      1          1           0        3.571499   -1.560472   -0.699652
      2          6           0        3.225992   -0.537402   -0.723505
      3          1           0        3.129404   -0.208771   -1.752577
      4          1           0        3.966582    0.088959   -0.235213
      5          6           0        1.915902   -0.447436    0.032433
      6          8           0        1.580043   -1.267505    0.834520
      7          7           0        1.158802    0.645029   -0.265090
      8          1           0        1.558198    1.329947   -0.865950
      9          6           0       -0.039642    1.032444    0.467135
     10          1           0        0.204249    1.115403    1.518665
     11          6           0       -0.532135    2.384931   -0.040328
     12          1           0       -0.747793    2.368807   -1.103220
     13          1           0       -1.436551    2.674079    0.480276
     14          1           0        0.219682    3.146018    0.143912
     15          6           0       -1.135650   -0.044792    0.438990
     16          8           0       -1.468528   -0.612866    1.435561
     17          7           0       -1.817024   -0.164666   -0.734474
     18          1           0       -1.335729    0.116252   -1.559234
     19          6           0       -2.803813   -1.214868   -0.890890
     20          1           0       -3.509279   -1.164491   -0.075499
     21          1           0       -3.331813   -1.058703   -1.822898
     22          1           0       -2.356937   -2.203869   -0.895321
 ---------------------------------------------------------------------

 The electronic state is 1-A.
 Alpha  occ. eigenvalues --  -20.52590 -20.51812 -15.59305 -15.57786 -11.35077
 Alpha  occ. eigenvalues --  -11.33628 -11.28135 -11.25029 -11.24075 -11.23704
 Alpha  occ. eigenvalues --   -1.39722  -1.38523  -1.24605  -1.22164  -1.06153
 Alpha  occ. eigenvalues --   -0.99758  -0.95115  -0.88562  -0.80641  -0.77669
 Alpha  occ. eigenvalues --   -0.70688  -0.69004  -0.67240  -0.63271  -0.62365
 Alpha  occ. eigenvalues --   -0.61810  -0.59255  -0.58501  -0.58084  -0.55882
 Alpha  occ. eigenvalues --   -0.55216  -0.54611  -0.54014  -0.51406  -0.50362
 Alpha  occ. eigenvalues --   -0.42825  -0.41619  -0.38726  -0.38408
 Alpha virt. eigenvalues --    0.19293   0.20214   0.20755   0.23688   0.25939
 Alpha virt. eigenvalues --    0.27464   0.27777   0.29745   0.29926   0.31226
 Alpha virt. eigenvalues --    0.32145   0.33065   0.34160   0.35226   0.37764

 Mulliken atomic charges:
              1
     1  H    0.218781
     2  C   -0.589634
     3  H    0.173044
     4  H    0.197559
     5  C    0.741655
     6  O   -0.573548
     7  N   -0.827263
     8  H    0.381698
     9  C   -0.033144
    10  H    0.228300
    11  C   -0.509997
    12  H    0.162931
    13  H    0.202842
    14  H    0.175589
    15  C    0.775698
    16  O   -0.586116
    17  N   -0.777223
    18  H    0.372631
    19  C   -0.280706
    20  H    0.205539
    21  H    0.163796
    22  H    0.177568
 Sum of Mulliken atomic charges =   0.00000

 Dipole moment (field-independent basis, Debye):
    X=              1.5070    Y=              4.0143    Z=             -5.4290  Tot=              6.9181
 Quadrupole moment (field-independent basis, Debye-Ang):
   XX=            -54.4025   YY=            -60.1770   ZZ=            -63.0971
   XY=              3.7444   XZ=              1.0472   YZ=              5.4482

 Normal termination of Gaussian 09 at Fri Feb 10 19:11:17 2017.
