 Gaussian 09, Revision A.02,
 Gaussian 09:  EM64L-G09RevA.02 11-Jun-2009

 -------------------------------------------
 # HF/6-31G* Opt=(ModRedundant) geom=nocrowd
 -------------------------------------------

 ------------------
 Phi Psi fixed scan
 ------------------
 Symbolic Z-matrix:
 Charge =  0 Multiplicity = 1

 SCF Done:  E(RHF) =  -492.838861289     A.U. after   15 cycles
 SCF Done:  E(RHF) =  -492.850439362     A.U. after   13 cycles
 SCF Done:  E(RHF) =  -492.854881487     A.U. after   14 cycles
 SCF Done:  E(RHF) =  -492.855305002     A.U. after   13 cycles
 SCF Done:  E(RHF) =  -492.856348010     A.U. after   12 cycles
 SCF Done:  E(RHF) =  -492.856608508     A.U. after   12 cycles
 SCF Done:  E(RHF) =  -492.856676235     A.U. after   12 cycles
 SCF Done:  E(RHF) =  -492.856791613     A.U. after   12 cycles
 SCF Done:  E(RHF) =  -492.856884480     A.U. after   12 cycles
 SCF Done:  E(RHF) =  -492.856945631     A.U. after   12 cycles
 SCF Done:  E(RHF) =  -492.857415625     A.U. after   13 cycles
 SCF Done:  E(RHF) =  -492.857446815     A.U. after   11 cycles
 SCF Done:  E(RHF) =  -492.857463862     A.U. after   11 cycles
 SCF Done:  E(RHF) =  -492.857480051     A.U. after   11 cycles
 SCF Done:  E(RHF) =  -492.857488244     A.U. after   11 cycles
 SCF Done:  E(RHF) =  -492.857501032     A.U. after   11 cycles
 SCF Done:  E(RHF) =  -492.857506081     A.U. after   10 cycles
 SCF Done:  E(RHF) =  -492.857512523     A.U. after   11 cycles
 SCF Done:  E(RHF) =  -492.857513259     A.U. after    9 cycles
 SCF Done:  E(RHF) =  -492.857513347     A.U. after    8 cycles
 Optimization completed.
    -- Stationary point found.

                         Standard orientation:
 ---------------------------------------------------------------------
 Center     Atomic      Atomic             Coordinates (Angstroms)
 Number     Number       Type             X           Y           Z
 ---------------------------------------------------------------------
      1          1           0       -3.667455   -1.380947    0.317097
      2          6           0       -3.021998   -0.646561    0.776335
      3          1           0       -2.701406   -1.026633    1.741694
      4          1           0       -3.570460    0.274225    0.936542
      5          6           0       -1.806423   -0.448579   -0.102065
      6          8           0       -1.429814   -1.306967   -0.858552
      7          7           0       -1.203581    0.759007    0.008896
      8          1           0       -1.516180    1.333287    0.760607
      9          6           0        0.122986    1.100647   -0.507391
     10          1           0        0.098147    0.912680   -1.574893
     11          6           0        0.375863    2.581283   -0.266262
     12          1           0        0.424889    2.798052    0.793933
     13          1           0        1.321770    2.876402   -0.700033
     14          1           0       -0.414947    3.169008   -0.719680
     15          6           0        1.263291    0.243796    0.080476
     16          8           0        2.030585    0.710540    0.882683
     17          7           0        1.361392   -1.013378   -0.378415
     18          1           0        0.589312   -1.385350   -0.886682
     19          6           0        2.350152   -1.920989    0.160633
     20          1           0        3.336367   -1.484262    0.088445
     21          1           0        2.159406   -2.156340    1.202499
     22          1           0        2.326504   -2.835683   -0.416299
 ---------------------------------------------------------------------

 The electronic state is 1-A.
 Alpha  occ. eigenvalues --  -20.53996 -20.51698 -15.60094 -15.56835 -11.36475
 Alpha  occ. eigenvalues --  -11.33633 -11.28400 -11.24705 -11.24334 -11.22493
 Alpha  occ. eigenvalues --   -1.40761  -1.38373  -1.25163  -1.22043  -1.06088
 Alpha  occ. eigenvalues --   -1.00021  -0.95615  -0.87329  -0.81099  -0.77446
 Alpha  occ. eigenvalues --   -0.72490  -0.69269  -0.67361  -0.63835  -0.62385
 Alpha  occ. eigenvalues --   -0.61432  -0.60061  -0.59349  -0.58053  -0.54869
 Alpha  occ. eigenvalues --   -0.54617  -0.53640  -0.52653  -0.52071  -0.50975
 Alpha  occ. eigenvalues --   -0.44612  -0.43112  -0.38894  -0.37496
 Alpha virt. eigenvalues --    0.18290   0.19927   0.22160   0.24980   0.26415
 Alpha virt. eigenvalues --    0.27650   0.28796   0.29848   0.30787   0.31772
 Alpha virt. eigenvalues --    0.32610   0.33000   0.34632   0.35454   0.39273

 Mulliken atomic charges:
              1
     1  H    0.218891
     2  C   -0.590117
     3  H    0.203807
     4  H    0.182937
     5  C    0.763515
     6  O   -0.631624
     7  N   -0.799557
     8  H    0.387446
     9  C   -0.038843
    10  H    0.210889
    11  C   -0.495230
    12  H    0.187288
    13  H    0.196042
    14  H    0.171430
    15  C    0.752650
    16  O   -0.622803
    17  N   -0.808379
    18  H    0.448000
    19  C   -0.271296
    20  H    0.192942
    21  H    0.171838
    22  H    0.170176
 Sum of Mulliken atomic charges =   0.00000

 Dipole moment (field-independent basis, Debye):
    X=             -2.8852    Y=              0.6245    Z=              0.4609  Tot=              2.9878
 Quadrupole moment (field-independent basis, Debye-Ang):
   XX=            -60.4946   YY=            -58.4775   ZZ=            -62.1030
   XY=             -7.2760   XZ=             -9.1369   YZ=             -3.4824

 Normal termination of Gaussian 09 at Fri Feb 10 18:19:24 2017.
