 Gaussian 09, Revision A.02,
 Gaussian 09:  EM64L-G09RevA.02 11-Jun-2009

 -------------------------------------------
 # HF/6-31G* Opt=(ModRedundant) geom=nocrowd
 -------------------------------------------

 ------------------
 Phi Psi fixed scan
 ------------------
 Symbolic Z-matrix:
 Charge =  0 Multiplicity = 1

 SCF Done:  E(RHF) =  -492.845372823     A.U. after   15 cycles
 SCF Done:  E(RHF) =  -492.852028651     A.U. after   14 cycles
 SCF Done:  E(RHF) =  -492.854659101     A.U. after   13 cycles
 SCF Done:  E(RHF) =  -492.855505833     A.U. after   13 cycles
 SCF Done:  E(RHF) =  -492.856651648     A.U. after   13 cycles
 SCF Done:  E(RHF) =  -492.857232230     A.U. after   13 cycles
 SCF Done:  E(RHF) =  -492.857355885     A.U. after   13 cycles
 SCF Done:  E(RHF) =  -492.857517810     A.U. after   12 cycles
 SCF Done:  E(RHF) =  -492.857607874     A.U. after   10 cycles
 SCF Done:  E(RHF) =  -492.857840920     A.U. after   13 cycles
 SCF Done:  E(RHF) =  -492.857954464     A.U. after   11 cycles
 SCF Done:  E(RHF) =  -492.858179461     A.U. after   12 cycles
 SCF Done:  E(RHF) =  -492.858254530     A.U. after   12 cycles
 SCF Done:  E(RHF) =  -492.858271578     A.U. after   12 cycles
 SCF Done:  E(RHF) =  -492.858279371     A.U. after   11 cycles
 SCF Done:  E(RHF) =  -492.858280324     A.U. after    9 cycles
 SCF Done:  E(RHF) =  -492.858280582     A.U. after    8 cycles
 SCF Done:  E(RHF) =  -492.858280958     A.U. after    8 cycles
 SCF Done:  E(RHF) =  -492.858281438     A.U. after   10 cycles
 SCF Done:  E(RHF) =  -492.858281462     A.U. after    7 cycles
 Optimization completed.
    -- Stationary point found.

                         Standard orientation:
 ---------------------------------------------------------------------
 Center     Atomic      Atomic             Coordinates (Angstroms)
 Number     Number       Type             X           Y           Z
 ---------------------------------------------------------------------
      1          1           0       -3.569899   -1.563233    0.308956
      2          6           0       -2.991860   -0.763539    0.748497
      3          1           0       -2.669170   -1.074787    1.737537
      4          1           0       -3.609482    0.120746    0.853606
      5          6           0       -1.773259   -0.511373   -0.110727
      6          8           0       -1.322351   -1.357989   -0.837729
      7          7           0       -1.244188    0.734099   -0.018929
      8          1           0       -1.577235    1.301522    0.729343
      9          6           0        0.077555    1.091381   -0.528544
     10          1           0        0.075794    0.868711   -1.588392
     11          6           0        0.305659    2.582145   -0.326807
     12          1           0        0.339595    2.826215    0.727646
     13          1           0        1.251910    2.879543   -0.761347
     14          1           0       -0.487097    3.146931   -0.805069
     15          6           0        1.200660    0.272406    0.133913
     16          8           0        1.758568    0.677975    1.120083
     17          7           0        1.523585   -0.882441   -0.477144
     18          1           0        0.830162   -1.273340   -1.076653
     19          6           0        2.478094   -1.786814    0.127597
     20          1           0        3.386977   -1.253125    0.363786
     21          1           0        2.097133   -2.232911    1.040881
     22          1           0        2.704688   -2.572998   -0.580200
 ---------------------------------------------------------------------

 The electronic state is 1-A.
 Alpha  occ. eigenvalues --  -20.53833 -20.51921 -15.59787 -15.57072 -11.36191
 Alpha  occ. eigenvalues --  -11.33686 -11.28219 -11.24700 -11.24145 -11.22575
 Alpha  occ. eigenvalues --   -1.40609  -1.38523  -1.24925  -1.22216  -1.05986
 Alpha  occ. eigenvalues --   -0.99932  -0.95587  -0.87268  -0.80839  -0.77299
 Alpha  occ. eigenvalues --   -0.72400  -0.69072  -0.67274  -0.63898  -0.62301
 Alpha  occ. eigenvalues --   -0.61687  -0.59889  -0.59154  -0.57935  -0.55095
 Alpha  occ. eigenvalues --   -0.54403  -0.53794  -0.52681  -0.51596  -0.51244
 Alpha  occ. eigenvalues --   -0.44373  -0.43071  -0.39199  -0.37558
 Alpha virt. eigenvalues --    0.18602   0.19888   0.22106   0.24994   0.26363
 Alpha virt. eigenvalues --    0.27642   0.28701   0.29812   0.30825   0.31931
 Alpha virt. eigenvalues --    0.32714   0.32886   0.34450   0.35389   0.38796

 Mulliken atomic charges:
              1
     1  H    0.217875
     2  C   -0.590894
     3  H    0.204073
     4  H    0.183554
     5  C    0.758005
     6  O   -0.625699
     7  N   -0.791548
     8  H    0.387220
     9  C   -0.038466
    10  H    0.209073
    11  C   -0.501762
    12  H    0.193645
    13  H    0.189522
    14  H    0.173924
    15  C    0.749099
    16  O   -0.621302
    17  N   -0.787815
    18  H    0.430690
    19  C   -0.277955
    20  H    0.196954
    21  H    0.171205
    22  H    0.170601
 Sum of Mulliken atomic charges =   0.00000

 Dipole moment (field-independent basis, Debye):
    X=             -2.4746    Y=              0.7033    Z=             -0.0541  Tot=              2.5732
 Quadrupole moment (field-independent basis, Debye-Ang):
   XX=            -57.7718   YY=            -58.8061   ZZ=            -63.1186
   XY=             -6.4969   XZ=             -8.9882   YZ=             -3.5892

 Normal termination of Gaussian 09 at Fri Feb 10 18:21:55 2017.
