 Gaussian 09, Revision A.02,
 Gaussian 09:  EM64L-G09RevA.02 11-Jun-2009

 -------------------------------------------
 # HF/6-31G* Opt=(ModRedundant) geom=nocrowd
 -------------------------------------------

 ------------------
 Phi Psi fixed scan
 ------------------
 Symbolic Z-matrix:
 Charge =  0 Multiplicity = 1

 SCF Done:  E(RHF) =  -492.808987486     A.U. after   16 cycles
 SCF Done:  E(RHF) =  -492.829674851     A.U. after   14 cycles
 SCF Done:  E(RHF) =  -492.834905601     A.U. after   14 cycles
 SCF Done:  E(RHF) =  -492.836409121     A.U. after   13 cycles
 SCF Done:  E(RHF) =  -492.838027268     A.U. after   15 cycles
 SCF Done:  E(RHF) =  -492.839212055     A.U. after   14 cycles
 SCF Done:  E(RHF) =  -492.839594039     A.U. after   12 cycles
 SCF Done:  E(RHF) =  -492.839690154     A.U. after   12 cycles
 SCF Done:  E(RHF) =  -492.839717931     A.U. after   12 cycles
 SCF Done:  E(RHF) =  -492.839757982     A.U. after   12 cycles
 SCF Done:  E(RHF) =  -492.840052265     A.U. after   12 cycles
 SCF Done:  E(RHF) =  -492.840115524     A.U. after   13 cycles
 SCF Done:  E(RHF) =  -492.840198515     A.U. after   13 cycles
 SCF Done:  E(RHF) =  -492.840274052     A.U. after   12 cycles
 SCF Done:  E(RHF) =  -492.840296091     A.U. after   11 cycles
 SCF Done:  E(RHF) =  -492.840304961     A.U. after   10 cycles
 SCF Done:  E(RHF) =  -492.840309161     A.U. after   11 cycles
 SCF Done:  E(RHF) =  -492.840309660     A.U. after   10 cycles
 SCF Done:  E(RHF) =  -492.840309769     A.U. after    8 cycles
 SCF Done:  E(RHF) =  -492.840309784     A.U. after    8 cycles
 Optimization completed.
    -- Stationary point found.

                         Standard orientation:
 ---------------------------------------------------------------------
 Center     Atomic      Atomic             Coordinates (Angstroms)
 Number     Number       Type             X           Y           Z
 ---------------------------------------------------------------------
      1          1           0       -3.670438   -1.339721    0.712757
      2          6           0       -2.829691   -0.782928    1.098985
      3          1           0       -2.192176   -1.455406    1.665575
      4          1           0       -3.182647   -0.004926    1.768265
      5          6           0       -2.043218   -0.209816   -0.059204
      6          8           0       -2.208732   -0.559504   -1.185024
      7          7           0       -1.171547    0.810882    0.287545
      8          1           0       -1.075437    0.917644    1.276466
      9          6           0        0.093237    1.010888   -0.407605
     10          1           0       -0.146129    1.069439   -1.461523
     11          6           0        0.688392    2.345701    0.030545
     12          1           0        0.929199    2.357363    1.090589
     13          1           0        1.587499    2.582519   -0.528674
     14          1           0       -0.033256    3.131243   -0.153625
     15          6           0        1.004556   -0.228915   -0.292684
     16          8           0        0.636028   -1.306344   -0.665464
     17          7           0        2.209637   -0.059263    0.299304
     18          1           0        2.537665    0.853734    0.501842
     19          6           0        3.150179   -1.157181    0.390089
     20          1           0        2.681919   -2.008582    0.862898
     21          1           0        3.503721   -1.463824   -0.587704
     22          1           0        3.994344   -0.840523    0.988346
 ---------------------------------------------------------------------

 The electronic state is 1-A.
 Alpha  occ. eigenvalues --  -20.52138 -20.51835 -15.59018 -15.58095 -11.34478
 Alpha  occ. eigenvalues --  -11.34044 -11.28290 -11.26048 -11.24199 -11.22657
 Alpha  occ. eigenvalues --   -1.39628  -1.38332  -1.23851  -1.23050  -1.05739
 Alpha  occ. eigenvalues --   -0.99053  -0.95880  -0.88814  -0.79498  -0.78422
 Alpha  occ. eigenvalues --   -0.72418  -0.66963  -0.66017  -0.64458  -0.62599
 Alpha  occ. eigenvalues --   -0.61379  -0.59315  -0.58467  -0.57519  -0.56419
 Alpha  occ. eigenvalues --   -0.55775  -0.55065  -0.53216  -0.50632  -0.50172
 Alpha  occ. eigenvalues --   -0.44180  -0.41205  -0.39223  -0.37502
 Alpha virt. eigenvalues --    0.18282   0.20416   0.22257   0.23531   0.25478
 Alpha virt. eigenvalues --    0.27812   0.27929   0.29321   0.30318   0.31211
 Alpha virt. eigenvalues --    0.32461   0.33127   0.33451   0.34002   0.37903

 Mulliken atomic charges:
              1
     1  H    0.215941
     2  C   -0.597935
     3  H    0.196711
     4  H    0.176506
     5  C    0.761151
     6  O   -0.563279
     7  N   -0.779381
     8  H    0.360808
     9  C   -0.048217
    10  H    0.239155
    11  C   -0.524547
    12  H    0.160075
    13  H    0.175496
    14  H    0.208607
    15  C    0.748197
    16  O   -0.592752
    17  N   -0.808783
    18  H    0.393548
    19  C   -0.270449
    20  H    0.199919
    21  H    0.184390
    22  H    0.164839
 Sum of Mulliken atomic charges =   0.00000

 Dipole moment (field-independent basis, Debye):
    X=              3.4031    Y=              3.5882    Z=              4.4791  Tot=              6.6722
 Quadrupole moment (field-independent basis, Debye-Ang):
   XX=            -53.9403   YY=            -61.5970   ZZ=            -61.8612
   XY=              1.2675   XZ=             -6.1991   YZ=             -4.0609

 Normal termination of Gaussian 09 at Fri Feb 10 18:51:34 2017.
