 Gaussian 09, Revision A.02,
 Gaussian 09:  EM64L-G09RevA.02 11-Jun-2009

 -------------------------------------------
 # HF/6-31G* Opt=(ModRedundant) geom=nocrowd
 -------------------------------------------

 ------------------
 Phi Psi fixed scan
 ------------------
 Symbolic Z-matrix:
 Charge =  0 Multiplicity = 1

 SCF Done:  E(RHF) =  -492.813623892     A.U. after   15 cycles
 SCF Done:  E(RHF) =  -492.832581585     A.U. after   14 cycles
 SCF Done:  E(RHF) =  -492.838745645     A.U. after   16 cycles
 SCF Done:  E(RHF) =  -492.841053678     A.U. after   14 cycles
 SCF Done:  E(RHF) =  -492.843489854     A.U. after   15 cycles
 SCF Done:  E(RHF) =  -492.844758982     A.U. after   13 cycles
 SCF Done:  E(RHF) =  -492.845179600     A.U. after   13 cycles
 SCF Done:  E(RHF) =  -492.845399462     A.U. after   13 cycles
 SCF Done:  E(RHF) =  -492.845489413     A.U. after   12 cycles
 SCF Done:  E(RHF) =  -492.845529028     A.U. after   11 cycles
 SCF Done:  E(RHF) =  -492.845673163     A.U. after   12 cycles
 SCF Done:  E(RHF) =  -492.845789383     A.U. after   11 cycles
 SCF Done:  E(RHF) =  -492.845182871     A.U. after   15 cycles
 SCF Done:  E(RHF) =  -492.846071057     A.U. after   15 cycles
 SCF Done:  E(RHF) =  -492.846121653     A.U. after   11 cycles
 SCF Done:  E(RHF) =  -492.846130407     A.U. after   11 cycles
 SCF Done:  E(RHF) =  -492.846136331     A.U. after   10 cycles
 SCF Done:  E(RHF) =  -492.846141506     A.U. after   11 cycles
 SCF Done:  E(RHF) =  -492.846143867     A.U. after   10 cycles
 SCF Done:  E(RHF) =  -492.846144132     A.U. after    8 cycles
 Optimization completed.
    -- Stationary point found.

                         Standard orientation:
 ---------------------------------------------------------------------
 Center     Atomic      Atomic             Coordinates (Angstroms)
 Number     Number       Type             X           Y           Z
 ---------------------------------------------------------------------
      1          1           0        3.712481   -1.350771   -0.385514
      2          6           0        2.924024   -0.792636   -0.868489
      3          1           0        2.337260   -1.467828   -1.483277
      4          1           0        3.354317   -0.029810   -1.509274
      5          6           0        2.021992   -0.195173    0.184611
      6          8           0        2.037160   -0.542505    1.325667
      7          7           0        1.220118    0.847422   -0.254990
      8          1           0        1.201993    0.924896   -1.251254
      9          6           0       -0.098518    1.014688    0.324831
     10          1           0        0.039681    1.079496    1.397688
     11          6           0       -0.694380    2.330965   -0.176669
     12          1           0       -0.934349    2.285935   -1.234624
     13          1           0       -1.595440    2.605033    0.360647
     14          1           0        0.027423    3.122732   -0.022184
     15          6           0       -0.965985   -0.238840    0.083908
     16          8           0       -0.471603   -1.317375   -0.092986
     17          7           0       -2.301711   -0.046102   -0.020992
     18          1           0       -2.689094    0.819977    0.268929
     19          6           0       -3.202974   -1.175233   -0.138114
     20          1           0       -2.879993   -1.815193   -0.945606
     21          1           0       -3.237476   -1.764139    0.771937
     22          1           0       -4.195064   -0.803149   -0.357506
 ---------------------------------------------------------------------

 The electronic state is 1-A.
 Alpha  occ. eigenvalues --  -20.52730 -20.51459 -15.59086 -15.57548 -11.34741
 Alpha  occ. eigenvalues --  -11.33745 -11.28254 -11.26043 -11.24030 -11.22086
 Alpha  occ. eigenvalues --   -1.40018  -1.38039  -1.23743  -1.23077  -1.05469
 Alpha  occ. eigenvalues --   -0.98702  -0.95880  -0.88499  -0.79474  -0.78036
 Alpha  occ. eigenvalues --   -0.72589  -0.66724  -0.66118  -0.64170  -0.62763
 Alpha  occ. eigenvalues --   -0.61570  -0.59285  -0.58116  -0.57066  -0.56231
 Alpha  occ. eigenvalues --   -0.55632  -0.54860  -0.53399  -0.50576  -0.49657
 Alpha  occ. eigenvalues --   -0.43983  -0.40963  -0.39535  -0.38046
 Alpha virt. eigenvalues --    0.18753   0.20500   0.21972   0.23400   0.26018
 Alpha virt. eigenvalues --    0.27499   0.28874   0.29587   0.31002   0.31500
 Alpha virt. eigenvalues --    0.32077   0.33224   0.33873   0.35094   0.38175

 Mulliken atomic charges:
              1
     1  H    0.211398
     2  C   -0.601817
     3  H    0.208900
     4  H    0.173624
     5  C    0.775486
     6  O   -0.585901
     7  N   -0.761946
     8  H    0.362088
     9  C   -0.079452
    10  H    0.239053
    11  C   -0.505340
    12  H    0.173250
    13  H    0.160735
    14  H    0.204011
    15  C    0.765971
    16  O   -0.607278
    17  N   -0.798479
    18  H    0.386807
    19  C   -0.274267
    20  H    0.204226
    21  H    0.181644
    22  H    0.167285
 Sum of Mulliken atomic charges =   0.00000

 Dipole moment (field-independent basis, Debye):
    X=             -3.4765    Y=              3.3448    Z=             -2.7965  Tot=              5.5762
 Quadrupole moment (field-independent basis, Debye-Ang):
   XX=            -51.8097   YY=            -61.9535   ZZ=            -62.0308
   XY=             -0.8873   XZ=             -8.8700   YZ=              2.1441

 Normal termination of Gaussian 09 at Fri Feb 10 18:42:43 2017.
