 Gaussian 09, Revision A.02,
 Gaussian 09:  EM64L-G09RevA.02 11-Jun-2009

 -------------------------------------------
 # HF/6-31G* Opt=(ModRedundant) geom=nocrowd
 -------------------------------------------

 ------------------
 Phi Psi fixed scan
 ------------------
 Symbolic Z-matrix:
 Charge =  0 Multiplicity = 1

 SCF Done:  E(RHF) =  -492.834394581     A.U. after   15 cycles
 SCF Done:  E(RHF) =  -492.848338751     A.U. after   15 cycles
 SCF Done:  E(RHF) =  -492.851293980     A.U. after   13 cycles
 SCF Done:  E(RHF) =  -492.851525268     A.U. after   13 cycles
 SCF Done:  E(RHF) =  -492.852172087     A.U. after   13 cycles
 SCF Done:  E(RHF) =  -492.852535162     A.U. after   12 cycles
 SCF Done:  E(RHF) =  -492.852664226     A.U. after   13 cycles
 SCF Done:  E(RHF) =  -492.853057692     A.U. after   13 cycles
 SCF Done:  E(RHF) =  -492.853168436     A.U. after   11 cycles
 SCF Done:  E(RHF) =  -492.853422443     A.U. after   12 cycles
 SCF Done:  E(RHF) =  -492.854008611     A.U. after   11 cycles
 SCF Done:  E(RHF) =  -492.854031966     A.U. after   11 cycles
 SCF Done:  E(RHF) =  -492.854033988     A.U. after    9 cycles
 SCF Done:  E(RHF) =  -492.854050110     A.U. after   13 cycles
 SCF Done:  E(RHF) =  -492.854057609     A.U. after   11 cycles
 SCF Done:  E(RHF) =  -492.854067005     A.U. after   11 cycles
 SCF Done:  E(RHF) =  -492.854067423     A.U. after   10 cycles
 SCF Done:  E(RHF) =  -492.854067838     A.U. after   10 cycles
 SCF Done:  E(RHF) =  -492.854067995     A.U. after    8 cycles
 SCF Done:  E(RHF) =  -492.854068027     A.U. after    7 cycles
 Optimization completed.
    -- Stationary point found.

                         Standard orientation:
 ---------------------------------------------------------------------
 Center     Atomic      Atomic             Coordinates (Angstroms)
 Number     Number       Type             X           Y           Z
 ---------------------------------------------------------------------
      1          1           0        3.479504   -1.586793   -0.451092
      2          6           0        3.229827   -0.535814   -0.424040
      3          1           0        3.295476   -0.119247   -1.422470
      4          1           0        3.954718   -0.030076    0.205722
      5          6           0        1.856422   -0.375016    0.191761
      6          8           0        1.432303   -1.154285    1.005922
      7          7           0        1.161607    0.711295   -0.207516
      8          1           0        1.547774    1.258902   -0.941686
      9          6           0       -0.134782    1.136620    0.302969
     10          1           0       -0.042335    1.283700    1.373249
     11          6           0       -0.488651    2.476288   -0.343300
     12          1           0       -0.591682    2.370354   -1.419703
     13          1           0       -1.424286    2.838233    0.053676
     14          1           0        0.287102    3.207179   -0.139222
     15          6           0       -1.329779    0.179830    0.160841
     16          8           0       -2.400094    0.575465    0.539684
     17          7           0       -1.160039   -1.022620   -0.426892
     18          1           0       -0.257069   -1.428721   -0.343623
     19          6           0       -2.273686   -1.950914   -0.456819
     20          1           0       -3.127746   -1.479253   -0.919468
     21          1           0       -1.985772   -2.812478   -1.044927
     22          1           0       -2.560442   -2.277925    0.537071
 ---------------------------------------------------------------------

 The electronic state is 1-A.
 Alpha  occ. eigenvalues --  -20.53699 -20.51714 -15.60074 -15.57135 -11.36350
 Alpha  occ. eigenvalues --  -11.33928 -11.28529 -11.24585 -11.24516 -11.23078
 Alpha  occ. eigenvalues --   -1.40685  -1.38637  -1.25322  -1.22035  -1.06256
 Alpha  occ. eigenvalues --   -1.00198  -0.95202  -0.87983  -0.81438  -0.77718
 Alpha  occ. eigenvalues --   -0.72181  -0.69346  -0.67623  -0.63439  -0.62342
 Alpha  occ. eigenvalues --   -0.62295  -0.59462  -0.58975  -0.58389  -0.55282
 Alpha  occ. eigenvalues --   -0.54829  -0.54206  -0.53677  -0.52364  -0.49424
 Alpha  occ. eigenvalues --   -0.43748  -0.43261  -0.39640  -0.37739
 Alpha virt. eigenvalues --    0.18341   0.20033   0.21024   0.25722   0.25921
 Alpha virt. eigenvalues --    0.27692   0.29419   0.29856   0.30640   0.31167
 Alpha virt. eigenvalues --    0.32763   0.33105   0.34349   0.34948   0.38004

 Mulliken atomic charges:
              1
     1  H    0.215006
     2  C   -0.580661
     3  H    0.173707
     4  H    0.208857
     5  C    0.739805
     6  O   -0.621131
     7  N   -0.822884
     8  H    0.390901
     9  C    0.005386
    10  H    0.224690
    11  C   -0.525310
    12  H    0.169714
    13  H    0.230103
    14  H    0.171320
    15  C    0.761172
    16  O   -0.620965
    17  N   -0.795761
    18  H    0.416648
    19  C   -0.281503
    20  H    0.196211
    21  H    0.165792
    22  H    0.178902
 Sum of Mulliken atomic charges =   0.00000

 Dipole moment (field-independent basis, Debye):
    X=              3.9162    Y=              0.9765    Z=             -3.2344  Tot=              5.1721
 Quadrupole moment (field-independent basis, Debye-Ang):
   XX=            -61.9740   YY=            -56.7702   ZZ=            -62.5538
   XY=              7.0273   XZ=             -1.4702   YZ=              1.9963

 Normal termination of Gaussian 09 at Fri Feb 10 17:53:46 2017.
