 Gaussian 09, Revision A.02,
 Gaussian 09:  EM64L-G09RevA.02 11-Jun-2009

 -------------------------------------------
 # HF/6-31G* Opt=(ModRedundant) geom=nocrowd
 -------------------------------------------

 ------------------
 Phi Psi fixed scan
 ------------------
 Symbolic Z-matrix:
 Charge =  0 Multiplicity = 1

 SCF Done:  E(RHF) =  -492.811229331     A.U. after   15 cycles
 SCF Done:  E(RHF) =  -492.838227080     A.U. after   16 cycles
 SCF Done:  E(RHF) =  -492.841382840     A.U. after   14 cycles
 SCF Done:  E(RHF) =  -492.849892467     A.U. after   13 cycles
 SCF Done:  E(RHF) =  -492.852215231     A.U. after   13 cycles
 SCF Done:  E(RHF) =  -492.853217859     A.U. after   13 cycles
 SCF Done:  E(RHF) =  -492.853506001     A.U. after   16 cycles
 SCF Done:  E(RHF) =  -492.853868627     A.U. after   13 cycles
 SCF Done:  E(RHF) =  -492.854043500     A.U. after   12 cycles
 SCF Done:  E(RHF) =  -492.854287055     A.U. after   13 cycles
 SCF Done:  E(RHF) =  -492.855150174     A.U. after   12 cycles
 SCF Done:  E(RHF) =  -492.855164207     A.U. after   11 cycles
 SCF Done:  E(RHF) =  -492.855186152     A.U. after   11 cycles
 SCF Done:  E(RHF) =  -492.855201764     A.U. after   11 cycles
 SCF Done:  E(RHF) =  -492.855206724     A.U. after   10 cycles
 SCF Done:  E(RHF) =  -492.855218091     A.U. after   11 cycles
 SCF Done:  E(RHF) =  -492.855220141     A.U. after   10 cycles
 SCF Done:  E(RHF) =  -492.855220946     A.U. after   10 cycles
 SCF Done:  E(RHF) =  -492.855221015     A.U. after    8 cycles
 SCF Done:  E(RHF) =  -492.855221047     A.U. after    8 cycles
 Optimization completed.
    -- Stationary point found.

                         Standard orientation:
 ---------------------------------------------------------------------
 Center     Atomic      Atomic             Coordinates (Angstroms)
 Number     Number       Type             X           Y           Z
 ---------------------------------------------------------------------
      1          1           0        3.864441   -1.033463   -0.013142
      2          6           0        3.146474   -0.506952   -0.625500
      3          1           0        2.940509   -1.112639   -1.502556
      4          1           0        3.566210    0.437702   -0.949753
      5          6           0        1.865576   -0.343645    0.163321
      6          8           0        1.524293   -1.165018    0.978519
      7          7           0        1.155514    0.770506   -0.108219
      8          1           0        1.474844    1.315772   -0.877034
      9          6           0       -0.177116    1.122004    0.379926
     10          1           0       -0.127458    1.112217    1.465292
     11          6           0       -0.486444    2.544769   -0.075088
     12          1           0       -0.547515    2.601272   -1.157878
     13          1           0       -1.435165    2.866395    0.323858
     14          1           0        0.291862    3.217965    0.267923
     15          6           0       -1.349664    0.178600    0.039034
     16          8           0       -2.453729    0.646615   -0.064208
     17          7           0       -1.102066   -1.133644   -0.116842
     18          1           0       -0.256739   -1.493058    0.268940
     19          6           0       -2.207066   -2.051966   -0.299013
     20          1           0       -2.807877   -1.745791   -1.143286
     21          1           0       -1.803784   -3.037221   -0.492339
     22          1           0       -2.848528   -2.096819    0.574843
 ---------------------------------------------------------------------

 The electronic state is 1-A.
 Alpha  occ. eigenvalues --  -20.53891 -20.51718 -15.60299 -15.56735 -11.36636
 Alpha  occ. eigenvalues --  -11.33893 -11.28734 -11.24583 -11.24502 -11.22657
 Alpha  occ. eigenvalues --   -1.40807  -1.38562  -1.25431  -1.21910  -1.06247
 Alpha  occ. eigenvalues --   -1.00128  -0.95378  -0.87718  -0.81420  -0.77680
 Alpha  occ. eigenvalues --   -0.72547  -0.69354  -0.67542  -0.63677  -0.62330
 Alpha  occ. eigenvalues --   -0.61891  -0.59599  -0.59258  -0.58349  -0.55013
 Alpha  occ. eigenvalues --   -0.54421  -0.54011  -0.53334  -0.52413  -0.49942
 Alpha  occ. eigenvalues --   -0.44432  -0.43206  -0.39143  -0.37709
 Alpha virt. eigenvalues --    0.17884   0.20117   0.21720   0.25624   0.26316
 Alpha virt. eigenvalues --    0.27964   0.28901   0.29688   0.30879   0.31546
 Alpha virt. eigenvalues --    0.32751   0.33284   0.34663   0.35434   0.38959

 Mulliken atomic charges:
              1
     1  H    0.219247
     2  C   -0.586364
     3  H    0.205274
     4  H    0.178680
     5  C    0.764622
     6  O   -0.638822
     7  N   -0.810570
     8  H    0.389771
     9  C   -0.031658
    10  H    0.222921
    11  C   -0.506470
    12  H    0.168085
    13  H    0.224554
    14  H    0.170738
    15  C    0.763403
    16  O   -0.619939
    17  N   -0.826667
    18  H    0.451371
    19  C   -0.273054
    20  H    0.192087
    21  H    0.167354
    22  H    0.175439
 Sum of Mulliken atomic charges =   0.00000

 Dipole moment (field-independent basis, Debye):
    X=              3.5891    Y=              0.7511    Z=             -2.0292  Tot=              4.1909
 Quadrupole moment (field-independent basis, Debye-Ang):
   XX=            -64.2237   YY=            -57.4171   ZZ=            -60.8613
   XY=              7.5322   XZ=             -5.6921   YZ=              2.2121

 Normal termination of Gaussian 09 at Fri Feb 10 18:00:07 2017.
