 Gaussian 09, Revision A.02,
 Gaussian 09:  EM64L-G09RevA.02 11-Jun-2009

 -------------------------------------------
 # HF/6-31G* Opt=(ModRedundant) geom=nocrowd
 -------------------------------------------

 ------------------
 Phi Psi fixed scan
 ------------------
 Symbolic Z-matrix:
 Charge =  0 Multiplicity = 1

 SCF Done:  E(RHF) =  -492.845360961     A.U. after   15 cycles
 SCF Done:  E(RHF) =  -492.853181811     A.U. after   14 cycles
 SCF Done:  E(RHF) =  -492.853896641     A.U. after   13 cycles
 SCF Done:  E(RHF) =  -492.854019439     A.U. after   13 cycles
 SCF Done:  E(RHF) =  -492.854226299     A.U. after   12 cycles
 SCF Done:  E(RHF) =  -492.854345705     A.U. after   13 cycles
 SCF Done:  E(RHF) =  -492.854421843     A.U. after   13 cycles
 SCF Done:  E(RHF) =  -492.854497191     A.U. after   11 cycles
 SCF Done:  E(RHF) =  -492.854584103     A.U. after   11 cycles
 SCF Done:  E(RHF) =  -492.854640278     A.U. after   11 cycles
 SCF Done:  E(RHF) =  -492.855067851     A.U. after   12 cycles
 SCF Done:  E(RHF) =  -492.855118965     A.U. after   11 cycles
 SCF Done:  E(RHF) =  -492.855126148     A.U. after   10 cycles
 SCF Done:  E(RHF) =  -492.855131120     A.U. after   10 cycles
 SCF Done:  E(RHF) =  -492.855132895     A.U. after   10 cycles
 SCF Done:  E(RHF) =  -492.855133422     A.U. after    9 cycles
 SCF Done:  E(RHF) =  -492.855133644     A.U. after    8 cycles
 SCF Done:  E(RHF) =  -492.855133888     A.U. after    8 cycles
 SCF Done:  E(RHF) =  -492.855134208     A.U. after    8 cycles
 SCF Done:  E(RHF) =  -492.855134308     A.U. after    8 cycles
 Optimization completed.
    -- Stationary point found.

                         Standard orientation:
 ---------------------------------------------------------------------
 Center     Atomic      Atomic             Coordinates (Angstroms)
 Number     Number       Type             X           Y           Z
 ---------------------------------------------------------------------
      1          1           0        3.435014   -1.678382   -0.240897
      2          6           0        3.186164   -0.635103   -0.371094
      3          1           0        3.243722   -0.373442   -1.421765
      4          1           0        3.916300   -0.039771    0.168437
      5          6           0        1.814314   -0.381053    0.216040
      6          8           0        1.355470   -1.057801    1.092526
      7          7           0        1.140018    0.677062   -0.306446
      8          1           0        1.601882    1.249276   -0.975902
      9          6           0       -0.103559    1.170745    0.261207
     10          1           0        0.053094    1.431428    1.299955
     11          6           0       -0.556661    2.412178   -0.506988
     12          1           0       -0.737590    2.179245   -1.551647
     13          1           0       -1.473157    2.791650   -0.075730
     14          1           0        0.196209    3.192433   -0.449375
     15          6           0       -1.250212    0.157803    0.295735
     16          8           0       -2.128733    0.307128    1.099581
     17          7           0       -1.278487   -0.785175   -0.668682
     18          1           0       -0.428661   -0.970308   -1.146840
     19          6           0       -2.268834   -1.840682   -0.632014
     20          1           0       -3.249503   -1.409963   -0.497175
     21          1           0       -2.244654   -2.373362   -1.574014
     22          1           0       -2.084537   -2.539948    0.176674
 ---------------------------------------------------------------------

 The electronic state is 1-A.
 Alpha  occ. eigenvalues --  -20.53461 -20.51298 -15.59842 -15.57425 -11.35899
 Alpha  occ. eigenvalues --  -11.33571 -11.28043 -11.24757 -11.24384 -11.23543
 Alpha  occ. eigenvalues --   -1.40480  -1.38218  -1.25194  -1.22006  -1.06202
 Alpha  occ. eigenvalues --   -1.00215  -0.95273  -0.88107  -0.81149  -0.77862
 Alpha  occ. eigenvalues --   -0.71457  -0.69341  -0.67824  -0.62670  -0.62354
 Alpha  occ. eigenvalues --   -0.62265  -0.59621  -0.58973  -0.58366  -0.55666
 Alpha  occ. eigenvalues --   -0.54787  -0.54468  -0.54176  -0.52020  -0.49511
 Alpha  occ. eigenvalues --   -0.42876  -0.42802  -0.39284  -0.37937
 Alpha virt. eigenvalues --    0.18949   0.20356   0.20591   0.25077   0.25517
 Alpha virt. eigenvalues --    0.27696   0.28899   0.29577   0.29731   0.31689
 Alpha virt. eigenvalues --    0.32026   0.32901   0.34288   0.34915   0.37721

 Mulliken atomic charges:
              1
     1  H    0.217692
     2  C   -0.586327
     3  H    0.173309
     4  H    0.205105
     5  C    0.733136
     6  O   -0.590313
     7  N   -0.837769
     8  H    0.387647
     9  C   -0.001040
    10  H    0.226620
    11  C   -0.523438
    12  H    0.175341
    13  H    0.217036
    14  H    0.171861
    15  C    0.775403
    16  O   -0.622958
    17  N   -0.778829
    18  H    0.388198
    19  C   -0.279508
    20  H    0.202391
    21  H    0.162724
    22  H    0.183719
 Sum of Mulliken atomic charges =   0.00000

 Dipole moment (field-independent basis, Debye):
    X=              3.7251    Y=              1.4458    Z=             -4.9523  Tot=              6.3633
 Quadrupole moment (field-independent basis, Debye-Ang):
   XX=            -59.1896   YY=            -56.0600   ZZ=            -64.4997
   XY=              5.3086   XZ=              1.1118   YZ=              2.8850

 Normal termination of Gaussian 09 at Fri Feb 10 19:19:44 2017.
