 Gaussian 09, Revision A.02,
 Gaussian 09:  EM64L-G09RevA.02 11-Jun-2009

 -------------------------------------------
 # HF/6-31G* Opt=(ModRedundant) geom=nocrowd
 -------------------------------------------

 ------------------
 Phi Psi fixed scan
 ------------------
 Symbolic Z-matrix:
 Charge =  0 Multiplicity = 1

 SCF Done:  E(RHF) =  -492.807678066     A.U. after   16 cycles
 SCF Done:  E(RHF) =  -492.829273925     A.U. after   14 cycles
 SCF Done:  E(RHF) =  -492.835522994     A.U. after   14 cycles
 SCF Done:  E(RHF) =  -492.837702827     A.U. after   14 cycles
 SCF Done:  E(RHF) =  -492.839919578     A.U. after   15 cycles
 SCF Done:  E(RHF) =  -492.841148379     A.U. after   14 cycles
 SCF Done:  E(RHF) =  -492.841738350     A.U. after   12 cycles
 SCF Done:  E(RHF) =  -492.841823167     A.U. after   13 cycles
 SCF Done:  E(RHF) =  -492.841874857     A.U. after   12 cycles
 SCF Done:  E(RHF) =  -492.841915680     A.U. after   12 cycles
 SCF Done:  E(RHF) =  -492.842129629     A.U. after   16 cycles
 SCF Done:  E(RHF) =  -492.842281855     A.U. after   11 cycles
 SCF Done:  E(RHF) =  -492.842353563     A.U. after   13 cycles
 SCF Done:  E(RHF) =  -492.842398713     A.U. after   12 cycles
 SCF Done:  E(RHF) =  -492.842421647     A.U. after   11 cycles
 SCF Done:  E(RHF) =  -492.842458073     A.U. after   10 cycles
 SCF Done:  E(RHF) =  -492.842491373     A.U. after   11 cycles
 SCF Done:  E(RHF) =  -492.842498470     A.U. after   10 cycles
 SCF Done:  E(RHF) =  -492.842500703     A.U. after   10 cycles
 SCF Done:  E(RHF) =  -492.842500901     A.U. after    9 cycles
 Optimization completed.
    -- Stationary point found.

                         Standard orientation:
 ---------------------------------------------------------------------
 Center     Atomic      Atomic             Coordinates (Angstroms)
 Number     Number       Type             X           Y           Z
 ---------------------------------------------------------------------
      1          1           0        3.670195   -1.367103   -0.567816
      2          6           0        2.840819   -0.823961   -0.996011
      3          1           0        2.202021   -1.519083   -1.532338
      4          1           0        3.210949   -0.085799   -1.700319
      5          6           0        2.039556   -0.186275    0.114758
      6          8           0        2.170776   -0.485087    1.260483
      7          7           0        1.191880    0.836111   -0.291381
      8          1           0        1.118301    0.898897   -1.286361
      9          6           0       -0.098200    1.017297    0.353941
     10          1           0        0.100274    1.089370    1.416519
     11          6           0       -0.705133    2.336846   -0.118224
     12          1           0       -0.970681    2.307701   -1.171225
     13          1           0       -1.590795    2.600008    0.450700
     14          1           0        0.020176    3.127236    0.025637
     15          6           0       -0.978647   -0.241000    0.196835
     16          8           0       -0.514618   -1.341359    0.307061
     17          7           0       -2.271543   -0.051880   -0.152240
     18          1           0       -2.657794    0.860805   -0.133248
     19          6           0       -3.185923   -1.172509   -0.239180
     20          1           0       -2.773902   -1.933462   -0.885736
     21          1           0       -3.373803   -1.616038    0.732156
     22          1           0       -4.121390   -0.822986   -0.655687
 ---------------------------------------------------------------------

 The electronic state is 1-A.
 Alpha  occ. eigenvalues --  -20.52428 -20.51565 -15.59146 -15.57742 -11.34687
 Alpha  occ. eigenvalues --  -11.33833 -11.28307 -11.26106 -11.24125 -11.22302
 Alpha  occ. eigenvalues --   -1.39841  -1.38121  -1.23799  -1.23068  -1.05575
 Alpha  occ. eigenvalues --   -0.98841  -0.95930  -0.88694  -0.79549  -0.78144
 Alpha  occ. eigenvalues --   -0.72539  -0.66781  -0.65952  -0.64448  -0.62686
 Alpha  occ. eigenvalues --   -0.61441  -0.59311  -0.58297  -0.57245  -0.56321
 Alpha  occ. eigenvalues --   -0.55706  -0.55029  -0.53395  -0.50533  -0.49807
 Alpha  occ. eigenvalues --   -0.44149  -0.40993  -0.39411  -0.37737
 Alpha virt. eigenvalues --    0.18356   0.20474   0.22335   0.23513   0.25714
 Alpha virt. eigenvalues --    0.27619   0.28467   0.29223   0.30816   0.31368
 Alpha virt. eigenvalues --    0.32167   0.33121   0.33775   0.34617   0.37999

 Mulliken atomic charges:
              1
     1  H    0.213382
     2  C   -0.600690
     3  H    0.203944
     4  H    0.173879
     5  C    0.772562
     6  O   -0.574956
     7  N   -0.769025
     8  H    0.359980
     9  C   -0.066569
    10  H    0.239973
    11  C   -0.519377
    12  H    0.168484
    13  H    0.166935
    14  H    0.208373
    15  C    0.758405
    16  O   -0.601890
    17  N   -0.805279
    18  H    0.391974
    19  C   -0.271794
    20  H    0.202074
    21  H    0.183439
    22  H    0.166177
 Sum of Mulliken atomic charges =   0.00000

 Dipole moment (field-independent basis, Debye):
    X=             -3.7025    Y=              3.3698    Z=             -3.6851  Tot=              6.2164
 Quadrupole moment (field-independent basis, Debye-Ang):
   XX=            -53.0678   YY=            -61.7750   ZZ=            -61.8385
   XY=             -1.4018   XZ=             -7.7007   YZ=              3.0263

 Normal termination of Gaussian 09 at Fri Feb 10 18:46:53 2017.
