 Gaussian 09, Revision A.02,
 Gaussian 09:  EM64L-G09RevA.02 11-Jun-2009

 ----------------------------------------------------------------------
 # b3lyp/6-31G* Opt=(ModRedundant, maxcycles=1000, calcfc) geom=nocrowd
 ----------------------------------------------------------------------

 ------------------
 Phi Psi fixed scan
 ------------------
 Symbolic Z-matrix:
 Charge =  0 Multiplicity = 1

 SCF Done:  E(RB3LYP) =  -990.466358497     A.U. after   14 cycles

  Exact polarizability:   0.000   0.000   0.000   0.000   0.000   0.000
 Approx polarizability: 237.744  -2.514 243.443   6.351  19.277 190.301

 SCF Done:  E(RB3LYP) =  -990.477194728     A.U. after   12 cycles
 SCF Done:  E(RB3LYP) =  -990.491194134     A.U. after   13 cycles
 SCF Done:  E(RB3LYP) =  -990.496005756     A.U. after   13 cycles
 SCF Done:  E(RB3LYP) =  -990.498515873     A.U. after   13 cycles
 SCF Done:  E(RB3LYP) =  -990.500655656     A.U. after   14 cycles
 SCF Done:  E(RB3LYP) =  -990.502428808     A.U. after   13 cycles
 SCF Done:  E(RB3LYP) =  -990.427966777     A.U. after   15 cycles
 SCF Done:  E(RB3LYP) =  -990.502578806     A.U. after   15 cycles
 SCF Done:  E(RB3LYP) =  -990.503083284     A.U. after   12 cycles
 SCF Done:  E(RB3LYP) =  -990.504252509     A.U. after   11 cycles
 SCF Done:  E(RB3LYP) =  -990.504256351     A.U. after    9 cycles
 SCF Done:  E(RB3LYP) =  -990.504257365     A.U. after    9 cycles
 SCF Done:  E(RB3LYP) =  -990.504257726     A.U. after    7 cycles
 SCF Done:  E(RB3LYP) =  -990.504258035     A.U. after    7 cycles
 SCF Done:  E(RB3LYP) =  -990.504258359     A.U. after    8 cycles
 SCF Done:  E(RB3LYP) =  -990.504258546     A.U. after    8 cycles
 SCF Done:  E(RB3LYP) =  -990.504258690     A.U. after    7 cycles
 SCF Done:  E(RB3LYP) =  -990.504258711     A.U. after    7 cycles
 SCF Done:  E(RB3LYP) =  -990.504258733     A.U. after    6 cycles
 Optimization completed.
    -- Stationary point found.

                         Standard orientation:
 ---------------------------------------------------------------------
 Center     Atomic      Atomic             Coordinates (Angstroms)
 Number     Number       Type             X           Y           Z
 ---------------------------------------------------------------------
      1          1           0       -5.282379   -3.359165    0.171383
      2          6           0       -4.874593   -2.722741   -0.620111
      3          1           0       -5.664734   -2.582773   -1.364406
      4          1           0       -4.028673   -3.234548   -1.088874
      5          6           0       -4.516330   -1.369153   -0.025663
      6          8           0       -5.346304   -0.663131    0.540761
      7          7           0       -3.212786   -0.994470   -0.160274
      8          1           0       -2.539536   -1.547146   -0.677943
      9          6           0       -2.736303    0.292211    0.304589
     10          1           0       -3.500597    1.044837    0.074094
     11          6           0       -2.486670    0.300435    1.827130
     12          1           0       -1.717639   -0.431983    2.093618
     13          1           0       -2.163960    1.287588    2.178227
     14          1           0       -3.419342    0.041401    2.333810
     15          6           0       -1.444325    0.601547   -0.465785
     16          8           0       -0.823902   -0.288603   -1.051595
     17          7           0       -1.071100    1.906217   -0.473742
     18          1           0       -1.605919    2.527426    0.121799
     19          6           0        0.235646    2.438347   -0.904008
     20          1           0        0.371988    2.102553   -1.940977
     21          6           0        0.181125    3.961903   -0.868878
     22          1           0        0.066687    4.324772    0.157921
     23          1           0        1.113161    4.379980   -1.252598
     24          1           0       -0.651830    4.324211   -1.480157
     25          6           0        1.464257    1.911299   -0.105064
     26          8           0        2.201892    2.700465    0.485393
     27          7           0        1.682481    0.576050   -0.124312
     28          1           0        1.055969   -0.056596   -0.622933
     29          6           0        2.829007    0.003704    0.561365
     30          1           0        3.656209    0.716939    0.471633
     31          6           0        2.545592   -0.232280    2.058201
     32          1           0        1.715958   -0.936314    2.180211
     33          1           0        3.425367   -0.640799    2.568374
     34          1           0        2.281940    0.719168    2.528035
     35          6           0        3.182153   -1.318660   -0.133971
     36          8           0        2.332976   -1.989606   -0.709935
     37          7           0        4.487479   -1.693139   -0.014264
     38          1           0        5.130813   -1.059291    0.437970
     39          6           0        5.000353   -2.942882   -0.548822
     40          1           0        4.159645   -3.473221   -0.997790
     41          1           0        5.760949   -2.762608   -1.317504
     42          1           0        5.436644   -3.562423    0.243357
 ---------------------------------------------------------------------

 The electronic state is 1-A.
 Alpha  occ. eigenvalues --  -19.13712 -19.11789 -19.11132 -19.10034 -14.38206
 Alpha  occ. eigenvalues --  -14.37067 -14.35207 -14.34906 -10.30558 -10.29088
 Alpha  occ. eigenvalues --  -10.28468 -10.28033 -10.24702 -10.24149 -10.23578
 Alpha  occ. eigenvalues --  -10.22373 -10.19063 -10.18880 -10.18632 -10.18555
 Alpha  occ. eigenvalues --   -1.05607  -1.03939  -1.02835  -1.02068  -0.94298
 Alpha  occ. eigenvalues --   -0.92766  -0.91817  -0.91536  -0.79683  -0.77418
 Alpha  occ. eigenvalues --   -0.76191  -0.72242  -0.71336  -0.67430  -0.65984
 Alpha  occ. eigenvalues --   -0.63304  -0.60658  -0.59143  -0.57853  -0.57388
 Alpha  occ. eigenvalues --   -0.55024  -0.52622  -0.49950  -0.49572  -0.47892
 Alpha  occ. eigenvalues --   -0.47584  -0.46293  -0.45825  -0.45323  -0.45145
 Alpha  occ. eigenvalues --   -0.43708  -0.43269  -0.42450  -0.41947  -0.41350
 Alpha  occ. eigenvalues --   -0.41275  -0.40017  -0.39658  -0.39581  -0.38964
 Alpha  occ. eigenvalues --   -0.38696  -0.38273  -0.38066  -0.37365  -0.37311
 Alpha  occ. eigenvalues --   -0.36955  -0.36503  -0.35015  -0.34142  -0.29151
 Alpha  occ. eigenvalues --   -0.27443  -0.26243  -0.25997  -0.24883  -0.24538
 Alpha  occ. eigenvalues --   -0.24085  -0.23960
 Alpha virt. eigenvalues --    0.00084   0.01720   0.02826   0.03749   0.06430
 Alpha virt. eigenvalues --    0.06687   0.09583   0.10642   0.11276   0.11777
 Alpha virt. eigenvalues --    0.12974   0.13736   0.13870   0.14780   0.14919

 Mulliken atomic charges:
              1
     1  H    0.182735
     2  C   -0.533694
     3  H    0.182908
     4  H    0.150709
     5  C    0.597773
     6  O   -0.524283
     7  N   -0.606051
     8  H    0.351260
     9  C   -0.032952
    10  H    0.175613
    11  C   -0.448945
    12  H    0.160127
    13  H    0.136241
    14  H    0.194385
    15  C    0.619857
    16  O   -0.542342
    17  N   -0.608510
    18  H    0.336328
    19  C   -0.042218
    20  H    0.179930
    21  C   -0.465832
    22  H    0.163532
    23  H    0.181717
    24  H    0.150915
    25  C    0.609708
    26  O   -0.534837
    27  N   -0.636254
    28  H    0.400308
    29  C   -0.033112
    30  H    0.163709
    31  C   -0.443671
    32  H    0.161622
    33  H    0.139910
    34  H    0.178802
    35  C    0.601555
    36  O   -0.517649
    37  N   -0.593125
    38  H    0.328673
    39  C   -0.312345
    40  H    0.207224
    41  H    0.160961
    42  H    0.159315
 Sum of Mulliken atomic charges =   0.00000

 Dipole moment (field-independent basis, Debye):
    X=              3.8443    Y=             -0.2339    Z=              0.1819  Tot=              3.8557
 Quadrupole moment (field-independent basis, Debye-Ang):
   XX=           -118.1872   YY=           -114.3772   ZZ=           -118.5250
   XY=            -10.5214   XZ=              6.3258   YZ=             -4.1528

 Normal termination of Gaussian 09 at Fri Dec 30 02:12:06 2016.
