 Gaussian 09, Revision A.02,
 Gaussian 09:  EM64L-G09RevA.02 11-Jun-2009

 ----------------------------------------------------------------------
 # b3lyp/6-31G* Opt=(ModRedundant, maxcycles=1000, calcfc) geom=nocrowd
 ----------------------------------------------------------------------

 ------------------
 Phi Psi fixed scan
 ------------------
 Symbolic Z-matrix:
 Charge =  0 Multiplicity = 1

 SCF Done:  E(RB3LYP) =  -990.484503129     A.U. after   14 cycles

  Exact polarizability:   0.000   0.000   0.000   0.000   0.000   0.000
 Approx polarizability: 228.793 -19.331 234.967   3.556  18.763 204.496

 SCF Done:  E(RB3LYP) =  -990.491551783     A.U. after   12 cycles
 SCF Done:  E(RB3LYP) =  -990.499449068     A.U. after   13 cycles
 SCF Done:  E(RB3LYP) =  -990.501821162     A.U. after   13 cycles
 SCF Done:  E(RB3LYP) =  -990.503784464     A.U. after   13 cycles
 SCF Done:  E(RB3LYP) =  -990.504867405     A.U. after   13 cycles
 SCF Done:  E(RB3LYP) =  -990.505241042     A.U. after   12 cycles
 SCF Done:  E(RB3LYP) =  -990.481349028     A.U. after   15 cycles
 SCF Done:  E(RB3LYP) =  -990.505294298     A.U. after   15 cycles
 SCF Done:  E(RB3LYP) =  -990.505412636     A.U. after   11 cycles
 SCF Done:  E(RB3LYP) =  -990.505529654     A.U. after    8 cycles
 SCF Done:  E(RB3LYP) =  -990.505530140     A.U. after    7 cycles
 SCF Done:  E(RB3LYP) =  -990.505530973     A.U. after    9 cycles
 SCF Done:  E(RB3LYP) =  -990.505532319     A.U. after    9 cycles
 SCF Done:  E(RB3LYP) =  -990.505535569     A.U. after    9 cycles
 SCF Done:  E(RB3LYP) =  -990.505539878     A.U. after   10 cycles
 SCF Done:  E(RB3LYP) =  -990.505542580     A.U. after    9 cycles
 SCF Done:  E(RB3LYP) =  -990.505543370     A.U. after    9 cycles
 SCF Done:  E(RB3LYP) =  -990.505543546     A.U. after    7 cycles
 SCF Done:  E(RB3LYP) =  -990.505543592     A.U. after    7 cycles
 Optimization completed.
    -- Stationary point found.

                         Standard orientation:
 ---------------------------------------------------------------------
 Center     Atomic      Atomic             Coordinates (Angstroms)
 Number     Number       Type             X           Y           Z
 ---------------------------------------------------------------------
      1          1           0       -5.655771   -2.700039   -1.438266
      2          6           0       -4.917501   -2.796550   -0.635996
      3          1           0       -4.041750   -3.329119   -1.019148
      4          1           0       -5.377159   -3.391440    0.159289
      5          6           0       -4.600803   -1.411386   -0.092296
      6          8           0       -5.466217   -0.683372    0.386097
      7          7           0       -3.293188   -1.034717   -0.169545
      8          1           0       -2.589075   -1.609813   -0.616593
      9          6           0       -2.848259    0.278301    0.252569
     10          1           0       -3.599401    1.013114   -0.062547
     11          6           0       -2.686613    0.370498    1.784026
     12          1           0       -1.937313   -0.347282    2.133571
     13          1           0       -2.378340    1.374713    2.097289
     14          1           0       -3.647637    0.141126    2.250501
     15          6           0       -1.515694    0.553882   -0.456804
     16          8           0       -0.839823   -0.360417   -0.930663
     17          7           0       -1.157908    1.863477   -0.544635
     18          1           0       -1.707199    2.525735   -0.009786
     19          6           0        0.196975    2.308947   -0.911773
     20          1           0        0.406869    1.882058   -1.898906
     21          6           0        0.227289    3.831491   -0.983507
     22          1           0        0.099520    4.260799    0.014819
     23          1           0        1.194476    4.171770   -1.363523
     24          1           0       -0.558229    4.199834   -1.651267
     25          6           0        1.266001    1.787907    0.085037
     26          8           0        1.601462    2.454324    1.063415
     27          7           0        1.811226    0.587303   -0.224847
     28          1           0        1.356054   -0.013807   -0.906842
     29          6           0        2.782574   -0.051696    0.646235
     30          1           0        3.471331    0.726291    0.993083
     31          6           0        2.121150   -0.714269    1.871140
     32          1           0        1.405927   -1.476102    1.544817
     33          1           0        2.869903   -1.190516    2.514355
     34          1           0        1.596339    0.048475    2.452439
     35          6           0        3.523459   -1.102475   -0.193378
     36          8           0        2.965516   -1.691790   -1.112936
     37          7           0        4.805112   -1.349471    0.196636
     38          1           0        5.199096   -0.788752    0.938650
     39          6           0        5.638593   -2.361539   -0.429736
     40          1           0        5.034157   -2.854451   -1.192174
     41          1           0        6.517780   -1.911883   -0.905863
     42          1           0        5.973205   -3.105469    0.302442
 ---------------------------------------------------------------------

 The electronic state is 1-A.
 Alpha  occ. eigenvalues --  -19.13544 -19.11945 -19.11269 -19.10001 -14.37892
 Alpha  occ. eigenvalues --  -14.37259 -14.35361 -14.35186 -10.30299 -10.29241
 Alpha  occ. eigenvalues --  -10.28450 -10.28007 -10.24417 -10.24001 -10.23781
 Alpha  occ. eigenvalues --  -10.22503 -10.19131 -10.18708 -10.18588 -10.18567
 Alpha  occ. eigenvalues --   -1.05401  -1.04085  -1.02916  -1.02030  -0.94008
 Alpha  occ. eigenvalues --   -0.92937  -0.92063  -0.91654  -0.79636  -0.77499
 Alpha  occ. eigenvalues --   -0.76085  -0.72210  -0.71473  -0.67470  -0.65983
 Alpha  occ. eigenvalues --   -0.63249  -0.60490  -0.59252  -0.57835  -0.57492
 Alpha  occ. eigenvalues --   -0.55008  -0.52418  -0.50242  -0.49229  -0.47702
 Alpha  occ. eigenvalues --   -0.47479  -0.46449  -0.45859  -0.45224  -0.45201
 Alpha  occ. eigenvalues --   -0.43949  -0.43396  -0.42509  -0.41941  -0.41432
 Alpha  occ. eigenvalues --   -0.41245  -0.40177  -0.39810  -0.39734  -0.38921
 Alpha  occ. eigenvalues --   -0.38493  -0.38260  -0.37705  -0.37282  -0.37168
 Alpha  occ. eigenvalues --   -0.36985  -0.36531  -0.35362  -0.34078  -0.28976
 Alpha  occ. eigenvalues --   -0.27457  -0.26442  -0.26135  -0.24982  -0.24652
 Alpha  occ. eigenvalues --   -0.24075  -0.23867
 Alpha virt. eigenvalues --    0.00394   0.01466   0.02707   0.03717   0.06420
 Alpha virt. eigenvalues --    0.06817   0.09410   0.10570   0.11498   0.11635
 Alpha virt. eigenvalues --    0.12776   0.13694   0.13944   0.14818   0.14924

 Mulliken atomic charges:
              1
     1  H    0.183082
     2  C   -0.533565
     3  H    0.149299
     4  H    0.182645
     5  C    0.597932
     6  O   -0.523734
     7  N   -0.606070
     8  H    0.347865
     9  C   -0.033142
    10  H    0.174876
    11  C   -0.449062
    12  H    0.158562
    13  H    0.140791
    14  H    0.193204
    15  C    0.614338
    16  O   -0.537836
    17  N   -0.602469
    18  H    0.336179
    19  C   -0.032623
    20  H    0.169727
    21  C   -0.476174
    22  H    0.176402
    23  H    0.170236
    24  H    0.153927
    25  C    0.610948
    26  O   -0.539346
    27  N   -0.602057
    28  H    0.375185
    29  C   -0.041206
    30  H    0.162051
    31  C   -0.449079
    32  H    0.168983
    33  H    0.140475
    34  H    0.181108
    35  C    0.609402
    36  O   -0.522670
    37  N   -0.593650
    38  H    0.329027
    39  C   -0.312863
    40  H    0.207629
    41  H    0.161550
    42  H    0.160123
 Sum of Mulliken atomic charges =   0.00000

 Dipole moment (field-independent basis, Debye):
    X=              4.2613    Y=             -0.0758    Z=              0.3904  Tot=              4.2798
 Quadrupole moment (field-independent basis, Debye-Ang):
   XX=           -116.4774   YY=           -113.0177   ZZ=           -120.5524
   XY=             -5.9168   XZ=              8.8927   YZ=             -7.6447

 Normal termination of Gaussian 09 at Fri Dec 30 03:58:19 2016.
