 Gaussian 09, Revision A.02,
 Gaussian 09:  EM64L-G09RevA.02 11-Jun-2009

 ----------------------------------------------------------------------
 # b3lyp/6-31G* Opt=(ModRedundant, maxcycles=1000, calcfc) geom=nocrowd
 ----------------------------------------------------------------------

 ------------------
 Phi Psi fixed scan
 ------------------
 Symbolic Z-matrix:
 Charge =  0 Multiplicity = 1

 SCF Done:  E(RB3LYP) =  -990.488105162     A.U. after   15 cycles

  Exact polarizability:   0.000   0.000   0.000   0.000   0.000   0.000
 Approx polarizability: 216.098  10.030 214.340  30.026   3.596 237.935

 SCF Done:  E(RB3LYP) =  -990.495887357     A.U. after   12 cycles
 SCF Done:  E(RB3LYP) =  -990.503080429     A.U. after   13 cycles
 SCF Done:  E(RB3LYP) =  -990.504482857     A.U. after   12 cycles
 SCF Done:  E(RB3LYP) =  -990.505370285     A.U. after   13 cycles
 SCF Done:  E(RB3LYP) =  -990.505984933     A.U. after   12 cycles
 SCF Done:  E(RB3LYP) =  -990.506136262     A.U. after   12 cycles
 SCF Done:  E(RB3LYP) =  -990.505995233     A.U. after   12 cycles
 SCF Done:  E(RB3LYP) =  -990.506143102     A.U. after   11 cycles
 SCF Done:  E(RB3LYP) =  -990.506198818     A.U. after   11 cycles
 SCF Done:  E(RB3LYP) =  -990.506226718     A.U. after    9 cycles
 SCF Done:  E(RB3LYP) =  -990.506232482     A.U. after   10 cycles
 SCF Done:  E(RB3LYP) =  -990.506239686     A.U. after   10 cycles
 SCF Done:  E(RB3LYP) =  -990.506242399     A.U. after   10 cycles
 SCF Done:  E(RB3LYP) =  -990.506244664     A.U. after    9 cycles
 SCF Done:  E(RB3LYP) =  -990.506249031     A.U. after    9 cycles
 SCF Done:  E(RB3LYP) =  -990.506250313     A.U. after    9 cycles
 SCF Done:  E(RB3LYP) =  -990.506250039     A.U. after    7 cycles
 SCF Done:  E(RB3LYP) =  -990.506249690     A.U. after    7 cycles
 SCF Done:  E(RB3LYP) =  -990.506249716     A.U. after    6 cycles
 Optimization completed.
    -- Stationary point found.

                         Standard orientation:
 ---------------------------------------------------------------------
 Center     Atomic      Atomic             Coordinates (Angstroms)
 Number     Number       Type             X           Y           Z
 ---------------------------------------------------------------------
      1          1           0        5.465483    2.462456   -0.957198
      2          6           0        5.113144    1.496207   -1.331446
      3          1           0        5.993394    0.932063   -1.655215
      4          1           0        4.459593    1.664864   -2.192810
      5          6           0        4.440276    0.744050   -0.192324
      6          8           0        5.031852    0.472722    0.849184
      7          7           0        3.138232    0.402470   -0.403424
      8          1           0        2.689318    0.525363   -1.303779
      9          6           0        2.393210   -0.395666    0.549934
     10          1           0        3.061117   -1.174727    0.941567
     11          6           0        1.878561    0.445111    1.735930
     12          1           0        1.148843    1.189841    1.403517
     13          1           0        1.403349   -0.186229    2.496368
     14          1           0        2.730753    0.948234    2.199075
     15          6           0        1.240511   -1.051826   -0.226464
     16          8           0        0.962706   -0.731708   -1.378933
     17          7           0        0.532146   -1.998594    0.452978
     18          1           0        0.824356   -2.256460    1.385909
     19          6           0       -0.597683   -2.705967   -0.147482
     20          1           0       -0.263089   -3.182629   -1.074929
     21          6           0       -1.119297   -3.776038    0.816644
     22          1           0       -1.472703   -3.326567    1.752284
     23          1           0       -1.956768   -4.302401    0.352204
     24          1           0       -0.337204   -4.507557    1.049369
     25          6           0       -1.754710   -1.787237   -0.592810
     26          8           0       -2.511973   -2.147809   -1.487527
     27          7           0       -1.924030   -0.645025    0.120261
     28          1           0       -1.202981   -0.318129    0.753733
     29          6           0       -2.882442    0.365387   -0.283242
     30          1           0       -2.945722    0.356290   -1.378951
     31          6           0       -4.284938    0.087862    0.290488
     32          1           0       -4.259669    0.092926    1.385105
     33          1           0       -5.011680    0.837125   -0.043728
     34          1           0       -4.618165   -0.894672   -0.053707
     35          6           0       -2.330875    1.719930    0.194845
     36          8           0       -1.432250    1.787713    1.032375
     37          7           0       -2.928546    2.810078   -0.351622
     38          1           0       -3.628571    2.665250   -1.065494
     39          6           0       -2.565011    4.173582   -0.002136
     40          1           0       -1.805701    4.120424    0.778610
     41          1           0       -2.152789    4.706280   -0.866828
     42          1           0       -3.432940    4.726041    0.375126
 ---------------------------------------------------------------------

 The electronic state is 1-A.
 Alpha  occ. eigenvalues --  -19.13026 -19.12943 -19.10814 -19.09688 -14.37900
 Alpha  occ. eigenvalues --  -14.37600 -14.35305 -14.34731 -10.30096 -10.29816
 Alpha  occ. eigenvalues --  -10.28229 -10.27660 -10.24127 -10.24109 -10.23548
 Alpha  occ. eigenvalues --  -10.23002 -10.19918 -10.19013 -10.18331 -10.17883
 Alpha  occ. eigenvalues --   -1.05082  -1.04865  -1.02705  -1.01685  -0.93973
 Alpha  occ. eigenvalues --   -0.93661  -0.91878  -0.91265  -0.79570  -0.77553
 Alpha  occ. eigenvalues --   -0.76012  -0.71922  -0.71851  -0.67410  -0.65718
 Alpha  occ. eigenvalues --   -0.63795  -0.60528  -0.60025  -0.57777  -0.57143
 Alpha  occ. eigenvalues --   -0.54967  -0.52930  -0.49630  -0.48936  -0.48325
 Alpha  occ. eigenvalues --   -0.47443  -0.46573  -0.46014  -0.45474  -0.44678
 Alpha  occ. eigenvalues --   -0.43692  -0.43418  -0.42916  -0.41489  -0.41332
 Alpha  occ. eigenvalues --   -0.40782  -0.40518  -0.40279  -0.39991  -0.39718
 Alpha  occ. eigenvalues --   -0.38645  -0.38288  -0.37826  -0.37726  -0.37092
 Alpha  occ. eigenvalues --   -0.36505  -0.36204  -0.34640  -0.33575  -0.28255
 Alpha  occ. eigenvalues --   -0.27031  -0.26986  -0.26723  -0.25023  -0.24616
 Alpha  occ. eigenvalues --   -0.23889  -0.23676
 Alpha virt. eigenvalues --    0.01154   0.01277   0.02950   0.03914   0.06091
 Alpha virt. eigenvalues --    0.06193   0.09945   0.11007   0.11123   0.11926
 Alpha virt. eigenvalues --    0.13215   0.13476   0.13957   0.14125   0.14801

 Mulliken atomic charges:
              1
     1  H    0.181585
     2  C   -0.533155
     3  H    0.181508
     4  H    0.147887
     5  C    0.595731
     6  O   -0.524434
     7  N   -0.603678
     8  H    0.347095
     9  C   -0.032341
    10  H    0.171341
    11  C   -0.463946
    12  H    0.188076
    13  H    0.127613
    14  H    0.189131
    15  C    0.608186
    16  O   -0.523728
    17  N   -0.642351
    18  H    0.335335
    19  C   -0.002262
    20  H    0.186225
    21  C   -0.489403
    22  H    0.155399
    23  H    0.190088
    24  H    0.159149
    25  C    0.624454
    26  O   -0.537291
    27  N   -0.613417
    28  H    0.356026
    29  C   -0.034884
    30  H    0.175726
    31  C   -0.441169
    32  H    0.158027
    33  H    0.135200
    34  H    0.187061
    35  C    0.609432
    36  O   -0.532922
    37  N   -0.590313
    38  H    0.333189
    39  C   -0.313681
    40  H    0.207242
    41  H    0.165466
    42  H    0.162801
 Sum of Mulliken atomic charges =   0.00000

 Dipole moment (field-independent basis, Debye):
    X=             -3.7446    Y=              1.8366    Z=              0.4980  Tot=              4.2004
 Quadrupole moment (field-independent basis, Debye-Ang):
   XX=           -126.9804   YY=           -102.3301   ZZ=           -123.4197
   XY=            -14.4223   XZ=            -10.5704   YZ=            -15.8319

 Normal termination of Gaussian 09 at Fri Dec 30 00:49:20 2016.
