 Gaussian 09, Revision A.02,
 Gaussian 09:  EM64L-G09RevA.02 11-Jun-2009

 ----------------------------------------------------------------------
 # b3lyp/6-31G* Opt=(ModRedundant, maxcycles=1000, calcfc) geom=nocrowd
 ----------------------------------------------------------------------

 ------------------
 Phi Psi fixed scan
 ------------------
 Symbolic Z-matrix:
 Charge =  0 Multiplicity = 1

 SCF Done:  E(RB3LYP) =  -990.481910896     A.U. after   15 cycles

  Exact polarizability:   0.000   0.000   0.000   0.000   0.000   0.000
 Approx polarizability: 206.662   1.867 203.244 -14.446 -11.258 257.215

 SCF Done:  E(RB3LYP) =  -990.490121024     A.U. after   15 cycles
 SCF Done:  E(RB3LYP) =  -990.497858339     A.U. after   13 cycles
 SCF Done:  E(RB3LYP) =  -990.499378462     A.U. after   12 cycles
 SCF Done:  E(RB3LYP) =  -990.500462391     A.U. after   14 cycles
 SCF Done:  E(RB3LYP) =  -990.501241675     A.U. after   12 cycles
 SCF Done:  E(RB3LYP) =  -990.501470131     A.U. after   15 cycles
 SCF Done:  E(RB3LYP) =  -990.501305428     A.U. after   12 cycles
 SCF Done:  E(RB3LYP) =  -990.499926822     A.U. after   12 cycles
 SCF Done:  E(RB3LYP) =  -990.501486476     A.U. after   12 cycles
 SCF Done:  E(RB3LYP) =  -990.501644103     A.U. after    8 cycles
 SCF Done:  E(RB3LYP) =  -990.501644678     A.U. after    7 cycles
 SCF Done:  E(RB3LYP) =  -990.501645521     A.U. after    9 cycles
 SCF Done:  E(RB3LYP) =  -990.501646882     A.U. after    9 cycles
 SCF Done:  E(RB3LYP) =  -990.501648623     A.U. after    9 cycles
 SCF Done:  E(RB3LYP) =  -990.501650302     A.U. after   10 cycles
 SCF Done:  E(RB3LYP) =  -990.501650948     A.U. after    9 cycles
 SCF Done:  E(RB3LYP) =  -990.501651054     A.U. after    7 cycles
 SCF Done:  E(RB3LYP) =  -990.501651029     A.U. after    7 cycles
 SCF Done:  E(RB3LYP) =  -990.501651031     A.U. after    5 cycles
 Optimization completed.
    -- Stationary point found.

                         Standard orientation:
 ---------------------------------------------------------------------
 Center     Atomic      Atomic             Coordinates (Angstroms)
 Number     Number       Type             X           Y           Z
 ---------------------------------------------------------------------
      1          1           0       -5.698457    2.397080    1.166663
      2          6           0       -5.384786    1.368997    1.372787
      3          1           0       -6.292808    0.769500    1.491340
      4          1           0       -4.819019    1.350249    2.309258
      5          6           0       -4.603994    0.844464    0.176527
      6          8           0       -5.089615    0.801161   -0.950795
      7          7           0       -3.330681    0.436950    0.439477
      8          1           0       -2.973454    0.362850    1.385425
      9          6           0       -2.499239   -0.175910   -0.577144
     10          1           0       -3.127277   -0.849809   -1.175499
     11          6           0       -1.870161    0.867633   -1.522783
     12          1           0       -1.165426    1.510985   -0.986562
     13          1           0       -1.330339    0.388924   -2.347887
     14          1           0       -2.670172    1.478183   -1.948086
     15          6           0       -1.424073   -0.990015    0.162238
     16          8           0       -1.260102   -0.903773    1.375432
     17          7           0       -0.643235   -1.778149   -0.626843
     18          1           0       -0.864867   -1.848147   -1.610983
     19          6           0        0.439826   -2.611872   -0.100429
     20          1           0        0.034337   -3.257237    0.685635
     21          6           0        1.033515   -3.466405   -1.222102
     22          1           0        1.455513   -2.846675   -2.021030
     23          1           0        1.835589   -4.094703   -0.824780
     24          1           0        0.268380   -4.123109   -1.651909
     25          6           0        1.520839   -1.774628    0.621141
     26          8           0        1.886985   -2.044315    1.755766
     27          7           0        2.135695   -0.837137   -0.164475
     28          1           0        1.637798   -0.477515   -0.975410
     29          6           0        3.035147    0.141210    0.424436
     30          1           0        2.834736    0.173722    1.502485
     31          6           0        4.509902   -0.244918    0.208559
     32          1           0        4.742597   -0.295713   -0.860194
     33          1           0        5.190034    0.475671    0.676965
     34          1           0        4.689595   -1.227193    0.654321
     35          6           0        2.700014    1.505664   -0.206992
     36          8           0        1.984562    1.592545   -1.204224
     37          7           0        3.267931    2.578561    0.402208
     38          1           0        3.798021    2.424112    1.248297
     39          6           0        3.077213    3.944714   -0.057180
     40          1           0        2.514156    3.901498   -0.989933
     41          1           0        2.512079    4.534371    0.674132
     42          1           0        4.041160    4.432822   -0.238606
 ---------------------------------------------------------------------

 The electronic state is 1-A.
 Alpha  occ. eigenvalues --  -19.13024 -19.12729 -19.11187 -19.09660 -14.37893
 Alpha  occ. eigenvalues --  -14.37459 -14.35294 -14.34682 -10.30064 -10.29631
 Alpha  occ. eigenvalues --  -10.28320 -10.27625 -10.24166 -10.24002 -10.23498
 Alpha  occ. eigenvalues --  -10.23009 -10.20211 -10.19213 -10.18285 -10.18011
 Alpha  occ. eigenvalues --   -1.04988  -1.04761  -1.02921  -1.01648  -0.93872
 Alpha  occ. eigenvalues --   -0.93648  -0.91889  -0.91217  -0.79749  -0.77491
 Alpha  occ. eigenvalues --   -0.75974  -0.71933  -0.71829  -0.67420  -0.65720
 Alpha  occ. eigenvalues --   -0.63817  -0.60532  -0.59914  -0.57614  -0.57096
 Alpha  occ. eigenvalues --   -0.54936  -0.52823  -0.49475  -0.48762  -0.48034
 Alpha  occ. eigenvalues --   -0.47453  -0.46645  -0.45766  -0.45533  -0.44672
 Alpha  occ. eigenvalues --   -0.43860  -0.43563  -0.42914  -0.41714  -0.41292
 Alpha  occ. eigenvalues --   -0.40866  -0.40512  -0.40407  -0.40017  -0.39329
 Alpha  occ. eigenvalues --   -0.38630  -0.38406  -0.38036  -0.37748  -0.37296
 Alpha  occ. eigenvalues --   -0.36601  -0.35970  -0.35120  -0.33587  -0.28091
 Alpha  occ. eigenvalues --   -0.27055  -0.26967  -0.26440  -0.25280  -0.24608
 Alpha  occ. eigenvalues --   -0.23955  -0.23635
 Alpha virt. eigenvalues --    0.01277   0.01431   0.02325   0.03932   0.05999
 Alpha virt. eigenvalues --    0.06085   0.09995   0.10558   0.11098   0.11967
 Alpha virt. eigenvalues --    0.13336   0.13497   0.13565   0.14045   0.14749

 Mulliken atomic charges:
              1
     1  H    0.181270
     2  C   -0.533240
     3  H    0.181537
     4  H    0.148717
     5  C    0.595231
     6  O   -0.524660
     7  N   -0.604515
     8  H    0.347821
     9  C   -0.036988
    10  H    0.170916
    11  C   -0.447275
    12  H    0.168770
    13  H    0.133316
    14  H    0.189322
    15  C    0.615337
    16  O   -0.518998
    17  N   -0.630554
    18  H    0.332128
    19  C   -0.020218
    20  H    0.184429
    21  C   -0.487414
    22  H    0.158444
    23  H    0.182217
    24  H    0.160527
    25  C    0.613470
    26  O   -0.511969
    27  N   -0.602252
    28  H    0.346032
    29  C   -0.052812
    30  H    0.182298
    31  C   -0.435887
    32  H    0.158791
    33  H    0.135346
    34  H    0.180073
    35  C    0.607743
    36  O   -0.533650
    37  N   -0.588192
    38  H    0.333195
    39  C   -0.313547
    40  H    0.207062
    41  H    0.165815
    42  H    0.162365
 Sum of Mulliken atomic charges =   0.00000

 Dipole moment (field-independent basis, Debye):
    X=              4.4085    Y=              1.4581    Z=             -0.5912  Tot=              4.6809
 Quadrupole moment (field-independent basis, Debye-Ang):
   XX=           -121.0981   YY=           -105.5771   ZZ=           -124.5694
   XY=             13.3157   XZ=             -8.1728   YZ=             17.9403

 Normal termination of Gaussian 09 at Fri Dec 30 01:09:08 2016.
