 Gaussian 09, Revision A.02,
 Gaussian 09:  EM64L-G09RevA.02 11-Jun-2009

 ----------------------------------------------------------------------
 # b3lyp/6-31G* Opt=(ModRedundant, maxcycles=1000, calcfc) geom=nocrowd
 ----------------------------------------------------------------------

 ------------------
 Phi Psi fixed scan
 ------------------
 Symbolic Z-matrix:
 Charge =  0 Multiplicity = 1

 SCF Done:  E(RB3LYP) =  -990.480385551     A.U. after   15 cycles

  Exact polarizability:   0.000   0.000   0.000   0.000   0.000   0.000
 Approx polarizability: 241.116  -3.266 234.206 -17.749  -6.152 190.444

 SCF Done:  E(RB3LYP) =  -990.488065064     A.U. after   12 cycles
 SCF Done:  E(RB3LYP) =  -990.496793371     A.U. after   13 cycles
 SCF Done:  E(RB3LYP) =  -990.499550496     A.U. after   13 cycles
 SCF Done:  E(RB3LYP) =  -990.502026416     A.U. after   13 cycles
 SCF Done:  E(RB3LYP) =  -990.503228721     A.U. after   13 cycles
 SCF Done:  E(RB3LYP) =  -990.409088359     A.U. after   16 cycles
 SCF Done:  E(RB3LYP) =  -990.503368044     A.U. after   15 cycles
 SCF Done:  E(RB3LYP) =  -990.503753717     A.U. after   14 cycles
 SCF Done:  E(RB3LYP) =  -990.486974461     A.U. after   15 cycles
 SCF Done:  E(RB3LYP) =  -990.503916766     A.U. after    8 cycles
 SCF Done:  E(RB3LYP) =  -990.503918721     A.U. after    9 cycles
 SCF Done:  E(RB3LYP) =  -990.503920497     A.U. after    9 cycles
 SCF Done:  E(RB3LYP) =  -990.503921173     A.U. after    8 cycles
 SCF Done:  E(RB3LYP) =  -990.503921875     A.U. after    8 cycles
 SCF Done:  E(RB3LYP) =  -990.503922576     A.U. after    7 cycles
 SCF Done:  E(RB3LYP) =  -990.503923043     A.U. after    7 cycles
 SCF Done:  E(RB3LYP) =  -990.503923122     A.U. after    7 cycles
 SCF Done:  E(RB3LYP) =  -990.503923160     A.U. after    6 cycles
 SCF Done:  E(RB3LYP) =  -990.503923174     A.U. after    6 cycles
 Optimization completed.
    -- Stationary point found.

                         Standard orientation:
 ---------------------------------------------------------------------
 Center     Atomic      Atomic             Coordinates (Angstroms)
 Number     Number       Type             X           Y           Z
 ---------------------------------------------------------------------
      1          1           0       -7.107040   -0.813380   -1.438267
      2          6           0       -6.325096   -1.430316   -0.984882
      3          1           0       -5.735033   -1.900497   -1.777580
      4          1           0       -6.823690   -2.211408   -0.402186
      5          6           0       -5.502129   -0.563446   -0.042027
      6          8           0       -6.015763    0.058760    0.884318
      7          7           0       -4.164338   -0.533703   -0.291651
      8          1           0       -3.755032   -0.985600   -1.101039
      9          6           0       -3.252659    0.292575    0.475631
     10          1           0       -3.745919    1.252057    0.677073
     11          6           0       -2.875546   -0.358033    1.821863
     12          1           0       -2.352331   -1.303511    1.656086
     13          1           0       -2.218233    0.290457    2.411430
     14          1           0       -3.791962   -0.536413    2.389971
     15          6           0       -2.013858    0.522385   -0.399970
     16          8           0       -1.780404   -0.164993   -1.387466
     17          7           0       -1.224056    1.587018   -0.037186
     18          1           0       -1.382534    1.936769    0.901363
     19          6           0        0.165874    1.621674   -0.466718
     20          1           0        0.165455    1.548040   -1.559865
     21          6           0        0.799819    2.952549   -0.040707
     22          1           0        0.839469    3.037175    1.052292
     23          1           0        1.822127    3.051714   -0.415632
     24          1           0        0.211012    3.787940   -0.431639
     25          6           0        0.937856    0.389016    0.080333
     26          8           0        0.416076   -0.436061    0.823673
     27          7           0        2.247280    0.336184   -0.270679
     28          1           0        2.677564    1.013638   -0.890857
     29          6           0        3.128859   -0.735338    0.154252
     30          1           0        2.962776   -0.910926    1.224280
     31          6           0        2.863599   -2.047949   -0.609310
     32          1           0        3.039976   -1.908349   -1.680766
     33          1           0        3.514799   -2.853813   -0.252091
     34          1           0        1.823767   -2.345521   -0.454670
     35          6           0        4.564124   -0.235347   -0.082313
     36          8           0        4.794883    0.700213   -0.845755
     37          7           0        5.530500   -0.920055    0.582990
     38          1           0        5.249468   -1.663674    1.206546
     39          6           0        6.948655   -0.636368    0.433800
     40          1           0        7.044443    0.191802   -0.269044
     41          1           0        7.394281   -0.347452    1.392343
     42          1           0        7.485622   -1.506930    0.040054
 ---------------------------------------------------------------------

 The electronic state is 1-A.
 Alpha  occ. eigenvalues --  -19.13263 -19.12015 -19.11787 -19.09077 -14.38233
 Alpha  occ. eigenvalues --  -14.36193 -14.36141 -14.34148 -10.30406 -10.28921
 Alpha  occ. eigenvalues --  -10.28817 -10.27098 -10.24693 -10.24215 -10.23290
 Alpha  occ. eigenvalues --  -10.22657 -10.20090 -10.19122 -10.17874 -10.17146
 Alpha  occ. eigenvalues --   -1.05306  -1.04363  -1.03183  -1.01060  -0.93995
 Alpha  occ. eigenvalues --   -0.92867  -0.92801  -0.90632  -0.79706  -0.77416
 Alpha  occ. eigenvalues --   -0.75431  -0.72173  -0.71290  -0.67515  -0.65721
 Alpha  occ. eigenvalues --   -0.63311  -0.60600  -0.58870  -0.58590  -0.56427
 Alpha  occ. eigenvalues --   -0.55479  -0.51697  -0.49956  -0.49083  -0.48066
 Alpha  occ. eigenvalues --   -0.46926  -0.46459  -0.45934  -0.45192  -0.44286
 Alpha  occ. eigenvalues --   -0.43933  -0.43243  -0.43020  -0.42210  -0.40971
 Alpha  occ. eigenvalues --   -0.40765  -0.40531  -0.40287  -0.39815  -0.39256
 Alpha  occ. eigenvalues --   -0.38883  -0.37999  -0.37882  -0.37293  -0.37049
 Alpha  occ. eigenvalues --   -0.36053  -0.35777  -0.34868  -0.33014  -0.28002
 Alpha  occ. eigenvalues --   -0.27335  -0.26998  -0.25896  -0.25481  -0.24845
 Alpha  occ. eigenvalues --   -0.23675  -0.23088
 Alpha virt. eigenvalues --    0.00882   0.01972   0.02493   0.04506   0.05707
 Alpha virt. eigenvalues --    0.07130   0.08561   0.10537   0.10967   0.12595
 Alpha virt. eigenvalues --    0.13176   0.13621   0.13917   0.14125   0.14762

 Mulliken atomic charges:
              1
     1  H    0.179958
     2  C   -0.532618
     3  H    0.146765
     4  H    0.180097
     5  C    0.597156
     6  O   -0.526801
     7  N   -0.604603
     8  H    0.345135
     9  C   -0.044170
    10  H    0.171341
    11  C   -0.436838
    12  H    0.170977
    13  H    0.134775
    14  H    0.180325
    15  C    0.631185
    16  O   -0.531405
    17  N   -0.590516
    18  H    0.327176
    19  C   -0.065130
    20  H    0.188356
    21  C   -0.472826
    22  H    0.155581
    23  H    0.165946
    24  H    0.173011
    25  C    0.637741
    26  O   -0.534302
    27  N   -0.623448
    28  H    0.352452
    29  C   -0.030750
    30  H    0.167412
    31  C   -0.446218
    32  H    0.161901
    33  H    0.135924
    34  H    0.198044
    35  C    0.607279
    36  O   -0.531808
    37  N   -0.592525
    38  H    0.332569
    39  C   -0.314212
    40  H    0.208251
    41  H    0.164410
    42  H    0.164403
 Sum of Mulliken atomic charges =   0.00000

 Dipole moment (field-independent basis, Debye):
    X=              6.8342    Y=             -0.7441    Z=              0.7736  Tot=              6.9180
 Quadrupole moment (field-independent basis, Debye-Ang):
   XX=           -119.0291   YY=           -109.4821   ZZ=           -120.6185
   XY=             -6.8764   XZ=             19.1562   YZ=              0.8735

 Normal termination of Gaussian 09 at Fri Dec 30 01:34:39 2016.
