 Gaussian 09, Revision A.02,
 Gaussian 09:  EM64L-G09RevA.02 11-Jun-2009

 ----------------------------------------------------------------------
 # b3lyp/6-31G* Opt=(ModRedundant, maxcycles=1000, calcfc) geom=nocrowd
 ----------------------------------------------------------------------

 ------------------
 Phi Psi fixed scan
 ------------------
 Symbolic Z-matrix:
 Charge =  0 Multiplicity = 1

 SCF Done:  E(RB3LYP) =  -990.488022040     A.U. after   14 cycles

  Exact polarizability:   0.000   0.000   0.000   0.000   0.000   0.000
 Approx polarizability: 237.381 -17.152 221.149 -17.340  -5.957 207.169

 SCF Done:  E(RB3LYP) =  -990.494414899     A.U. after   11 cycles
 SCF Done:  E(RB3LYP) =  -990.501362114     A.U. after   13 cycles
 SCF Done:  E(RB3LYP) =  -990.503220896     A.U. after   12 cycles
 SCF Done:  E(RB3LYP) =  -990.504961690     A.U. after   13 cycles
 SCF Done:  E(RB3LYP) =  -990.505477944     A.U. after   13 cycles
 SCF Done:  E(RB3LYP) =  -990.505865376     A.U. after   14 cycles
 SCF Done:  E(RB3LYP) =  -990.503338149     A.U. after   13 cycles
 SCF Done:  E(RB3LYP) =  -990.506023446     A.U. after   13 cycles
 SCF Done:  E(RB3LYP) =  -990.506138813     A.U. after   12 cycles
 SCF Done:  E(RB3LYP) =  -990.506239271     A.U. after    8 cycles
 SCF Done:  E(RB3LYP) =  -990.506241112     A.U. after    9 cycles
 SCF Done:  E(RB3LYP) =  -990.506244192     A.U. after    9 cycles
 SCF Done:  E(RB3LYP) =  -990.506248506     A.U. after   10 cycles
 SCF Done:  E(RB3LYP) =  -990.506250150     A.U. after    9 cycles
 SCF Done:  E(RB3LYP) =  -990.506250554     A.U. after    8 cycles
 SCF Done:  E(RB3LYP) =  -990.506250770     A.U. after    7 cycles
 SCF Done:  E(RB3LYP) =  -990.506250884     A.U. after    7 cycles
 SCF Done:  E(RB3LYP) =  -990.506250915     A.U. after    6 cycles
 SCF Done:  E(RB3LYP) =  -990.506250926     A.U. after    6 cycles
 Optimization completed.
    -- Stationary point found.

                         Standard orientation:
 ---------------------------------------------------------------------
 Center     Atomic      Atomic             Coordinates (Angstroms)
 Number     Number       Type             X           Y           Z
 ---------------------------------------------------------------------
      1          1           0       -6.475556   -2.623546   -0.323217
      2          6           0       -5.938629   -1.970400   -1.018383
      3          1           0       -6.676325   -1.560260   -1.714975
      4          1           0       -5.211805   -2.567332   -1.577910
      5          6           0       -5.315242   -0.824496   -0.234068
      6          8           0       -5.993369   -0.045179    0.430149
      7          7           0       -3.959585   -0.726635   -0.316825
      8          1           0       -3.406693   -1.339930   -0.903658
      9          6           0       -3.220336    0.336618    0.335476
     10          1           0       -3.796978    1.264355    0.237993
     11          6           0       -2.990806    0.050897    1.834233
     12          1           0       -2.423869   -0.876358    1.960820
     13          1           0       -2.427254    0.857261    2.315672
     14          1           0       -3.962193   -0.046623    2.325396
     15          6           0       -1.880858    0.468554   -0.397456
     16          8           0       -1.418438   -0.445236   -1.074965
     17          7           0       -1.244446    1.669955   -0.253841
     18          1           0       -1.573371    2.265332    0.496598
     19          6           0        0.175431    1.775066   -0.562510
     20          1           0        0.305562    1.479346   -1.608618
     21          6           0        0.644225    3.221033   -0.365368
     22          1           0        0.541428    3.517602    0.685255
     23          1           0        1.697764    3.323763   -0.641501
     24          1           0        0.054018    3.903733   -0.984941
     25          6           0        0.991446    0.819298    0.338490
     26          8           0        0.646859    0.574953    1.492067
     27          7           0        2.132227    0.345983   -0.216751
     28          1           0        2.383961    0.529977   -1.182128
     29          6           0        3.055653   -0.511241    0.502070
     30          1           0        3.179358   -0.106808    1.514213
     31          6           0        2.537317   -1.959419    0.606828
     32          1           0        2.418761   -2.394005   -0.390778
     33          1           0        3.226757   -2.587802    1.182249
     34          1           0        1.567134   -1.953261    1.109015
     35          6           0        4.391197   -0.453725   -0.258157
     36          8           0        4.443544   -0.079441   -1.427513
     37          7           0        5.474388   -0.873063    0.447575
     38          1           0        5.343325   -1.146389    1.411313
     39          6           0        6.809250   -0.951251   -0.122847
     40          1           0        6.740937   -0.620952   -1.159809
     41          1           0        7.506126   -0.299555    0.416343
     42          1           0        7.190159   -1.978613   -0.096179
 ---------------------------------------------------------------------

 The electronic state is 1-A.
 Alpha  occ. eigenvalues --  -19.12999 -19.12432 -19.11399 -19.09334 -14.38004
 Alpha  occ. eigenvalues --  -14.36467 -14.36031 -14.34492 -10.30158 -10.29101
 Alpha  occ. eigenvalues --  -10.28606 -10.27372 -10.24454 -10.24114 -10.23106
 Alpha  occ. eigenvalues --  -10.22981 -10.19868 -10.18867 -10.18103 -10.17473
 Alpha  occ. eigenvalues --   -1.05054  -1.04495  -1.03046  -1.01341  -0.93761
 Alpha  occ. eigenvalues --   -0.93052  -0.92624  -0.90948  -0.79608  -0.77506
 Alpha  occ. eigenvalues --   -0.75651  -0.71981  -0.71557  -0.67450  -0.65714
 Alpha  occ. eigenvalues --   -0.63252  -0.60465  -0.59128  -0.58363  -0.56841
 Alpha  occ. eigenvalues --   -0.55304  -0.51902  -0.50267  -0.48813  -0.48122
 Alpha  occ. eigenvalues --   -0.46790  -0.46589  -0.45634  -0.45333  -0.44639
 Alpha  occ. eigenvalues --   -0.44215  -0.43340  -0.42611  -0.42059  -0.41128
 Alpha  occ. eigenvalues --   -0.40746  -0.40480  -0.40196  -0.39916  -0.38806
 Alpha  occ. eigenvalues --   -0.38465  -0.38233  -0.37750  -0.37339  -0.37209
 Alpha  occ. eigenvalues --   -0.36261  -0.36042  -0.35009  -0.33325  -0.27767
 Alpha  occ. eigenvalues --   -0.27160  -0.26909  -0.26112  -0.25381  -0.24772
 Alpha  occ. eigenvalues --   -0.23915  -0.23354
 Alpha virt. eigenvalues --    0.01006   0.01465   0.02905   0.04312   0.05881
 Alpha virt. eigenvalues --    0.07464   0.08948   0.10267   0.11133   0.12357
 Alpha virt. eigenvalues --    0.13319   0.13701   0.13823   0.14496   0.14868

 Mulliken atomic charges:
              1
     1  H    0.180921
     2  C   -0.532888
     3  H    0.181072
     4  H    0.146623
     5  C    0.598079
     6  O   -0.525608
     7  N   -0.604925
     8  H    0.344014
     9  C   -0.039113
    10  H    0.171360
    11  C   -0.441723
    12  H    0.162620
    13  H    0.147621
    14  H    0.182617
    15  C    0.622696
    16  O   -0.536363
    17  N   -0.589470
    18  H    0.333156
    19  C   -0.046713
    20  H    0.170109
    21  C   -0.474253
    22  H    0.162792
    23  H    0.167513
    24  H    0.169025
    25  C    0.642278
    26  O   -0.549698
    27  N   -0.615025
    28  H    0.351800
    29  C   -0.035181
    30  H    0.166572
    31  C   -0.442793
    32  H    0.165455
    33  H    0.134366
    34  H    0.195025
    35  C    0.607162
    36  O   -0.529941
    37  N   -0.592733
    38  H    0.331894
    39  C   -0.313801
    40  H    0.208209
    41  H    0.163602
    42  H    0.163648
 Sum of Mulliken atomic charges =   0.00000

 Dipole moment (field-independent basis, Debye):
    X=              6.2661    Y=             -0.2948    Z=              0.7626  Tot=              6.3192
 Quadrupole moment (field-independent basis, Debye-Ang):
   XX=           -117.6810   YY=           -106.8495   ZZ=           -122.8411
   XY=             -1.6240   XZ=             17.6372   YZ=             -1.9285

 Normal termination of Gaussian 09 at Thu Dec 29 22:10:42 2016.
