 Gaussian 09, Revision A.02,
 Gaussian 09:  EM64L-G09RevA.02 11-Jun-2009

 -------------------------------------------
 # HF/6-31G* Opt=(ModRedundant) geom=nocrowd
 -------------------------------------------

 ------------------
 Phi Psi fixed scan
 ------------------
 Symbolic Z-matrix:
 Charge =  0 Multiplicity = 1

 SCF Done:  E(RHF) =  -492.851761206     A.U. after   15 cycles
 SCF Done:  E(RHF) =  -492.858047403     A.U. after   13 cycles
 SCF Done:  E(RHF) =  -492.858729786     A.U. after   13 cycles
 SCF Done:  E(RHF) =  -492.859200197     A.U. after   16 cycles
 SCF Done:  E(RHF) =  -492.859498822     A.U. after   16 cycles
 SCF Done:  E(RHF) =  -492.859451989     A.U. after   16 cycles
 SCF Done:  E(RHF) =  -492.859652563     A.U. after   16 cycles
 SCF Done:  E(RHF) =  -492.859664960     A.U. after   10 cycles
 SCF Done:  E(RHF) =  -492.859669965     A.U. after   10 cycles
 SCF Done:  E(RHF) =  -492.859677232     A.U. after   10 cycles
 SCF Done:  E(RHF) =  -492.859977528     A.U. after   16 cycles
 SCF Done:  E(RHF) =  -492.859987800     A.U. after   11 cycles
 SCF Done:  E(RHF) =  -492.859990815     A.U. after    9 cycles
 SCF Done:  E(RHF) =  -492.860007460     A.U. after   16 cycles
 SCF Done:  E(RHF) =  -492.860018090     A.U. after   11 cycles
 SCF Done:  E(RHF) =  -492.860023999     A.U. after   10 cycles
 SCF Done:  E(RHF) =  -492.860025254     A.U. after   10 cycles
 SCF Done:  E(RHF) =  -492.860025514     A.U. after   10 cycles
 SCF Done:  E(RHF) =  -492.860025817     A.U. after   10 cycles
 SCF Done:  E(RHF) =  -492.860025861     A.U. after    8 cycles
 Optimization completed.
    -- Stationary point found.

                         Standard orientation:
 ---------------------------------------------------------------------
 Center     Atomic      Atomic             Coordinates (Angstroms)
 Number     Number       Type             X           Y           Z
 ---------------------------------------------------------------------
      1          1           0       -4.275332   -0.774702   -0.121509
      2          6           0       -3.288155   -1.135948    0.128461
      3          1           0       -3.101825   -2.044715   -0.435835
      4          1           0       -3.240700   -1.375435    1.184277
      5          6           0       -2.267534   -0.092071   -0.269432
      6          8           0       -2.474333    0.702072   -1.147739
      7          7           0       -1.107870   -0.125234    0.430172
      8          1           0       -0.914449   -0.906768    1.017436
      9          6           0        0.045414    0.642717    0.027692
     10          1           0       -0.100959    0.944872   -1.000974
     11          6           0        0.218427    1.896006    0.895440
     12          1           0        0.366227    1.620876    1.934169
     13          1           0        1.066077    2.492298    0.574582
     14          1           0       -0.675611    2.502540    0.822746
     15          6           0        1.275865   -0.258442    0.121977
     16          8           0        1.265093   -1.277800    0.762054
     17          7           0        2.376415    0.193476   -0.508479
     18          1           0        2.292043    0.971163   -1.121220
     19          6           0        3.612275   -0.561765   -0.516556
     20          1           0        3.854974   -0.876771    0.487673
     21          1           0        3.541346   -1.442367   -1.145207
     22          1           0        4.404561    0.074157   -0.888007
 ---------------------------------------------------------------------

 The electronic state is 1-A.
 Alpha  occ. eigenvalues --  -20.53510 -20.51786 -15.59560 -15.57654 -11.35363
 Alpha  occ. eigenvalues --  -11.34388 -11.27916 -11.26508 -11.22750 -11.22610
 Alpha  occ. eigenvalues --   -1.40436  -1.38528  -1.24340  -1.23406  -1.05635
 Alpha  occ. eigenvalues --   -0.99108  -0.96315  -0.88293  -0.80464  -0.78448
 Alpha  occ. eigenvalues --   -0.73210  -0.67330  -0.65804  -0.64317  -0.63468
 Alpha  occ. eigenvalues --   -0.61975  -0.59956  -0.58889  -0.57053  -0.56482
 Alpha  occ. eigenvalues --   -0.56187  -0.54271  -0.53003  -0.52320  -0.49450
 Alpha  occ. eigenvalues --   -0.42977  -0.41400  -0.40271  -0.38427
 Alpha virt. eigenvalues --    0.18998   0.20891   0.21237   0.24250   0.26159
 Alpha virt. eigenvalues --    0.27919   0.29276   0.30598   0.31100   0.31480
 Alpha virt. eigenvalues --    0.32391   0.32864   0.33463   0.34909   0.37451

 Mulliken atomic charges:
              1
     1  H    0.210571
     2  C   -0.584140
     3  H    0.199426
     4  H    0.180134
     5  C    0.742263
     6  O   -0.613802
     7  N   -0.798823
     8  H    0.414248
     9  C   -0.058744
    10  H    0.225975
    11  C   -0.471571
    12  H    0.177110
    13  H    0.157577
    14  H    0.198390
    15  C    0.772179
    16  O   -0.629489
    17  N   -0.794898
    18  H    0.388669
    19  C   -0.272932
    20  H    0.204478
    21  H    0.181830
    22  H    0.171550
 Sum of Mulliken atomic charges =   0.00000

 Dipole moment (field-independent basis, Debye):
    X=              2.5483    Y=              0.3956    Z=              0.1318  Tot=              2.5822
 Quadrupole moment (field-independent basis, Debye-Ang):
   XX=            -55.2085   YY=            -61.8872   ZZ=            -62.6308
   XY=             10.0272   XZ=            -10.8148   YZ=              2.6000

 Normal termination of Gaussian 09 at Fri Feb 10 11:27:53 2017.
