 Gaussian 09, Revision A.02,
 Gaussian 09:  EM64L-G09RevA.02 11-Jun-2009

 -------------------------------------------
 # HF/6-31G* Opt=(ModRedundant) geom=nocrowd
 -------------------------------------------

 ------------------
 Phi Psi fixed scan
 ------------------
 Symbolic Z-matrix:
 Charge =  0 Multiplicity = 1

 SCF Done:  E(RHF) =  -492.838150627     A.U. after   15 cycles
 SCF Done:  E(RHF) =  -492.846429998     A.U. after   14 cycles
 SCF Done:  E(RHF) =  -492.848180503     A.U. after   13 cycles
 SCF Done:  E(RHF) =  -492.848957124     A.U. after   13 cycles
 SCF Done:  E(RHF) =  -492.850005230     A.U. after   13 cycles
 SCF Done:  E(RHF) =  -492.850881332     A.U. after   13 cycles
 SCF Done:  E(RHF) =  -492.851118738     A.U. after   13 cycles
 SCF Done:  E(RHF) =  -492.851377588     A.U. after   13 cycles
 SCF Done:  E(RHF) =  -492.851568894     A.U. after   12 cycles
 SCF Done:  E(RHF) =  -492.851790677     A.U. after   13 cycles
 SCF Done:  E(RHF) =  -492.852094804     A.U. after   12 cycles
 SCF Done:  E(RHF) =  -492.852414072     A.U. after   12 cycles
 SCF Done:  E(RHF) =  -492.852466156     A.U. after   12 cycles
 SCF Done:  E(RHF) =  -492.852474655     A.U. after   12 cycles
 SCF Done:  E(RHF) =  -492.852489930     A.U. after   11 cycles
 SCF Done:  E(RHF) =  -492.852490281     A.U. after    9 cycles
 SCF Done:  E(RHF) =  -492.852490368     A.U. after    8 cycles
 SCF Done:  E(RHF) =  -492.852490462     A.U. after    8 cycles
 SCF Done:  E(RHF) =  -492.852490578     A.U. after    8 cycles
 SCF Done:  E(RHF) =  -492.852490619     A.U. after    8 cycles
 Optimization completed.
    -- Stationary point found.

                         Standard orientation:
 ---------------------------------------------------------------------
 Center     Atomic      Atomic             Coordinates (Angstroms)
 Number     Number       Type             X           Y           Z
 ---------------------------------------------------------------------
      1          1           0       -3.996829   -1.359435   -0.312757
      2          6           0       -3.169014   -1.207822    0.363897
      3          1           0       -2.710303   -2.161102    0.601691
      4          1           0       -3.548262   -0.774729    1.285159
      5          6           0       -2.181795   -0.254083   -0.274285
      6          8           0       -2.472142    0.442364   -1.201278
      7          7           0       -0.930391   -0.265556    0.290280
      8          1           0       -0.894588   -0.655080    1.208675
      9          6           0        0.022161    0.803003    0.023318
     10          1           0       -0.314312    1.297716   -0.872784
     11          6           0        0.089310    1.818023    1.168364
     12          1           0        0.404612    1.343781    2.093815
     13          1           0        0.797256    2.601639    0.930530
     14          1           0       -0.886069    2.265672    1.323277
     15          6           0        1.429646    0.296486   -0.282623
     16          8           0        2.188210    0.985317   -0.906220
     17          7           0        1.806636   -0.870123    0.300200
     18          1           0        1.080559   -1.520911    0.493874
     19          6           0        3.116282   -1.424598    0.018500
     20          1           0        3.870007   -0.674674    0.204649
     21          1           0        3.285726   -2.265626    0.678309
     22          1           0        3.210392   -1.754992   -1.010840
 ---------------------------------------------------------------------

 The electronic state is 1-A.
 Alpha  occ. eigenvalues --  -20.53771 -20.52467 -15.59741 -15.58563 -11.36047
 Alpha  occ. eigenvalues --  -11.34332 -11.27737 -11.25723 -11.24302 -11.22984
 Alpha  occ. eigenvalues --   -1.40595  -1.39309  -1.25417  -1.22712  -1.05965
 Alpha  occ. eigenvalues --   -1.00072  -0.95922  -0.88334  -0.80353  -0.78628
 Alpha  occ. eigenvalues --   -0.73192  -0.68193  -0.66446  -0.63605  -0.63023
 Alpha  occ. eigenvalues --   -0.62862  -0.59456  -0.59129  -0.58756  -0.57112
 Alpha  occ. eigenvalues --   -0.55278  -0.54744  -0.52972  -0.52341  -0.50018
 Alpha  occ. eigenvalues --   -0.44001  -0.43045  -0.39458  -0.39091
 Alpha virt. eigenvalues --    0.18826   0.19485   0.19812   0.24719   0.26130
 Alpha virt. eigenvalues --    0.26751   0.29030   0.29822   0.30613   0.31460
 Alpha virt. eigenvalues --    0.31671   0.33204   0.33430   0.34252   0.37650

 Mulliken atomic charges:
              1
     1  H    0.221720
     2  C   -0.593641
     3  H    0.182021
     4  H    0.194387
     5  C    0.742024
     6  O   -0.577711
     7  N   -0.818247
     8  H    0.373206
     9  C   -0.056964
    10  H    0.265262
    11  C   -0.497653
    12  H    0.159584
    13  H    0.207836
    14  H    0.182207
    15  C    0.758177
    16  O   -0.605754
    17  N   -0.788526
    18  H    0.384003
    19  C   -0.281190
    20  H    0.205589
    21  H    0.166528
    22  H    0.177139
 Sum of Mulliken atomic charges =   0.00000

 Dipole moment (field-independent basis, Debye):
    X=             -0.9796    Y=             -3.9227    Z=              4.7006  Tot=              6.2002
 Quadrupole moment (field-independent basis, Debye-Ang):
   XX=            -65.0374   YY=            -57.4284   ZZ=            -63.9811
   XY=             -1.8665   XZ=             -3.5718   YZ=              2.6093

 Normal termination of Gaussian 09 at Fri Feb 10 12:06:16 2017.
