 Gaussian 09, Revision A.02,
 Gaussian 09:  EM64L-G09RevA.02 11-Jun-2009

 -------------------------------------------
 # HF/6-31G* Opt=(ModRedundant) geom=nocrowd
 -------------------------------------------

 ------------------
 Phi Psi fixed scan
 ------------------
 Symbolic Z-matrix:
 Charge =  0 Multiplicity = 1

 SCF Done:  E(RHF) =  -492.853242730     A.U. after   15 cycles
 SCF Done:  E(RHF) =  -492.858971048     A.U. after   13 cycles
 SCF Done:  E(RHF) =  -492.858996539     A.U. after   16 cycles
 SCF Done:  E(RHF) =  -492.859342840     A.U. after   12 cycles
 SCF Done:  E(RHF) =  -492.859382262     A.U. after   11 cycles
 SCF Done:  E(RHF) =  -492.859378529     A.U. after   12 cycles
 SCF Done:  E(RHF) =  -492.859403244     A.U. after   10 cycles
 SCF Done:  E(RHF) =  -492.859405239     A.U. after    9 cycles
 SCF Done:  E(RHF) =  -492.859406030     A.U. after    8 cycles
 SCF Done:  E(RHF) =  -492.859406960     A.U. after    9 cycles
 SCF Done:  E(RHF) =  -492.859707662     A.U. after   10 cycles
 SCF Done:  E(RHF) =  -492.859710945     A.U. after   10 cycles
 SCF Done:  E(RHF) =  -492.859712626     A.U. after    9 cycles
 SCF Done:  E(RHF) =  -492.859714904     A.U. after   10 cycles
 SCF Done:  E(RHF) =  -492.859719062     A.U. after   11 cycles
 SCF Done:  E(RHF) =  -492.859722777     A.U. after   11 cycles
 SCF Done:  E(RHF) =  -492.859723062     A.U. after    8 cycles
 SCF Done:  E(RHF) =  -492.859723122     A.U. after    8 cycles
 SCF Done:  E(RHF) =  -492.859723129     A.U. after    6 cycles
 SCF Done:  E(RHF) =  -492.859723134     A.U. after    7 cycles
 Optimization completed.
    -- Stationary point found.

                         Standard orientation:
 ---------------------------------------------------------------------
 Center     Atomic      Atomic             Coordinates (Angstroms)
 Number     Number       Type             X           Y           Z
 ---------------------------------------------------------------------
      1          1           0        3.729369   -1.767939    0.147550
      2          6           0        3.254149   -1.057930   -0.515297
      3          1           0        2.858429   -1.575352   -1.380965
      4          1           0        4.009228   -0.353496   -0.848244
      5          6           0        2.197555   -0.301539    0.260651
      6          8           0        2.371790    0.031469    1.403230
      7          7           0        1.073536   -0.002988   -0.427333
      8          1           0        0.945592   -0.340828   -1.354699
      9          6           0       -0.043383    0.702809    0.158851
     10          1           0        0.088044    0.662486    1.229921
     11          6           0       -0.103585    2.164759   -0.291753
     12          1           0       -0.206312    2.223876   -1.368998
     13          1           0       -0.947075    2.676273    0.162040
     14          1           0        0.806522    2.673072    0.003425
     15          6           0       -1.317345   -0.023006   -0.260589
     16          8           0       -1.483071   -0.356041   -1.406187
     17          7           0       -2.228576   -0.235134    0.704501
     18          1           0       -1.983176   -0.041188    1.647176
     19          6           0       -3.475357   -0.921619    0.436842
     20          1           0       -3.943814   -0.502876   -0.441942
     21          1           0       -3.320054   -1.981637    0.270858
     22          1           0       -4.133428   -0.789814    1.285127
 ---------------------------------------------------------------------

 The electronic state is 1-A.
 Alpha  occ. eigenvalues --  -20.52940 -20.51732 -15.59575 -15.58297 -11.34994
 Alpha  occ. eigenvalues --  -11.34674 -11.27865 -11.26388 -11.23014 -11.22376
 Alpha  occ. eigenvalues --   -1.39978  -1.38573  -1.24245  -1.23663  -1.05638
 Alpha  occ. eigenvalues --   -0.99183  -0.96554  -0.88091  -0.80405  -0.79038
 Alpha  occ. eigenvalues --   -0.73226  -0.67264  -0.65816  -0.64375  -0.63081
 Alpha  occ. eigenvalues --   -0.62107  -0.60152  -0.58562  -0.57552  -0.56628
 Alpha  occ. eigenvalues --   -0.56055  -0.53981  -0.52525  -0.52109  -0.49963
 Alpha  occ. eigenvalues --   -0.42974  -0.41479  -0.39921  -0.38280
 Alpha virt. eigenvalues --    0.18973   0.21236   0.21534   0.23485   0.26296
 Alpha virt. eigenvalues --    0.27256   0.28733   0.30715   0.31145   0.32162
 Alpha virt. eigenvalues --    0.32554   0.33400   0.33622   0.35375   0.37427

 Mulliken atomic charges:
              1
     1  H    0.209201
     2  C   -0.578086
     3  H    0.173353
     4  H    0.203243
     5  C    0.750166
     6  O   -0.617704
     7  N   -0.807706
     8  H    0.407785
     9  C   -0.047934
    10  H    0.225746
    11  C   -0.482113
    12  H    0.185432
    13  H    0.165551
    14  H    0.190353
    15  C    0.777994
    16  O   -0.634448
    17  N   -0.796791
    18  H    0.392071
    19  C   -0.274620
    20  H    0.203862
    21  H    0.183128
    22  H    0.171515
 Sum of Mulliken atomic charges =   0.00000

 Dipole moment (field-independent basis, Debye):
    X=             -1.6470    Y=             -0.1914    Z=              0.2693  Tot=              1.6798
 Quadrupole moment (field-independent basis, Debye-Ang):
   XX=            -56.4549   YY=            -58.3464   ZZ=            -65.3970
   XY=             -2.0633   XZ=            -15.6040   YZ=             -1.0519

 Normal termination of Gaussian 09 at Fri Feb 10 11:11:14 2017.
