 Gaussian 09, Revision A.02,
 Gaussian 09:  EM64L-G09RevA.02 11-Jun-2009

 -------------------------------------------
 # HF/6-31G* Opt=(ModRedundant) geom=nocrowd
 -------------------------------------------

 ------------------
 Phi Psi fixed scan
 ------------------
 Symbolic Z-matrix:
 Charge =  0 Multiplicity = 1

 SCF Done:  E(RHF) =  -492.849382266     A.U. after   15 cycles
 SCF Done:  E(RHF) =  -492.856140126     A.U. after   16 cycles
 SCF Done:  E(RHF) =  -492.856580388     A.U. after   13 cycles
 SCF Done:  E(RHF) =  -492.856651986     A.U. after   13 cycles
 SCF Done:  E(RHF) =  -492.856783121     A.U. after   12 cycles
 SCF Done:  E(RHF) =  -492.856835101     A.U. after   12 cycles
 SCF Done:  E(RHF) =  -492.856862914     A.U. after   12 cycles
 SCF Done:  E(RHF) =  -492.856888492     A.U. after   12 cycles
 SCF Done:  E(RHF) =  -492.856909131     A.U. after   11 cycles
 SCF Done:  E(RHF) =  -492.856946659     A.U. after   12 cycles
 SCF Done:  E(RHF) =  -492.857220104     A.U. after   12 cycles
 SCF Done:  E(RHF) =  -492.857256510     A.U. after   11 cycles
 SCF Done:  E(RHF) =  -492.857253591     A.U. after   11 cycles
 SCF Done:  E(RHF) =  -492.857269918     A.U. after   11 cycles
 SCF Done:  E(RHF) =  -492.857279878     A.U. after   11 cycles
 SCF Done:  E(RHF) =  -492.857290174     A.U. after   12 cycles
 SCF Done:  E(RHF) =  -492.857299318     A.U. after   10 cycles
 SCF Done:  E(RHF) =  -492.857302564     A.U. after   11 cycles
 SCF Done:  E(RHF) =  -492.857306980     A.U. after   11 cycles
 SCF Done:  E(RHF) =  -492.857307712     A.U. after   10 cycles
 Optimization completed.
    -- Stationary point found.

                         Standard orientation:
 ---------------------------------------------------------------------
 Center     Atomic      Atomic             Coordinates (Angstroms)
 Number     Number       Type             X           Y           Z
 ---------------------------------------------------------------------
      1          1           0       -3.700335   -1.677859    0.532752
      2          6           0       -3.113065   -0.867162    0.939134
      3          1           0       -2.666608   -1.172637    1.878368
      4          1           0       -3.774972   -0.028441    1.132254
      5          6           0       -2.078907   -0.450930   -0.084291
      6          8           0       -2.244601   -0.616081   -1.261908
      7          7           0       -0.960778    0.124696    0.427463
      8          1           0       -0.929597    0.321710    1.403394
      9          6           0        0.044007    0.769655   -0.401955
     10          1           0       -0.124828    0.414922   -1.407009
     11          6           0       -0.063810    2.289619   -0.367102
     12          1           0        0.089280    2.662768    0.637578
     13          1           0        0.686833    2.740670   -1.007291
     14          1           0       -1.043418    2.594686   -0.717362
     15          6           0        1.407882    0.293677    0.100206
     16          8           0        1.987450    0.864634    0.985404
     17          7           0        1.879691   -0.822360   -0.489142
     18          1           0        1.284818   -1.311170   -1.118077
     19          6           0        3.076735   -1.483726   -0.016383
     20          1           0        3.857884   -0.753888    0.136546
     21          1           0        2.908413   -2.006987    0.919248
     22          1           0        3.400302   -2.195343   -0.764272
 ---------------------------------------------------------------------

 The electronic state is 1-A.
 Alpha  occ. eigenvalues --  -20.52822 -20.52628 -15.59291 -15.58769 -11.35538
 Alpha  occ. eigenvalues --  -11.34510 -11.27819 -11.25901 -11.23764 -11.21864
 Alpha  occ. eigenvalues --   -1.39894  -1.39243  -1.24719  -1.23203  -1.05651
 Alpha  occ. eigenvalues --   -0.99534  -0.96425  -0.87761  -0.80185  -0.79076
 Alpha  occ. eigenvalues --   -0.73107  -0.67631  -0.65930  -0.64957  -0.62607
 Alpha  occ. eigenvalues --   -0.62159  -0.60220  -0.58885  -0.57906  -0.56559
 Alpha  occ. eigenvalues --   -0.55410  -0.53471  -0.52585  -0.51733  -0.51068
 Alpha  occ. eigenvalues --   -0.43101  -0.42398  -0.39286  -0.38771
 Alpha virt. eigenvalues --    0.18794   0.21210   0.21955   0.22679   0.26517
 Alpha virt. eigenvalues --    0.26848   0.27829   0.30154   0.31019   0.32154
 Alpha virt. eigenvalues --    0.32605   0.32940   0.33884   0.35305   0.37622

 Mulliken atomic charges:
              1
     1  H    0.214956
     2  C   -0.586376
     3  H    0.178526
     4  H    0.201572
     5  C    0.746812
     6  O   -0.607605
     7  N   -0.805787
     8  H    0.393706
     9  C   -0.067458
    10  H    0.235377
    11  C   -0.476707
    12  H    0.186909
    13  H    0.174118
    14  H    0.175649
    15  C    0.777017
    16  O   -0.618876
    17  N   -0.793497
    18  H    0.395281
    19  C   -0.275210
    20  H    0.205682
    21  H    0.174750
    22  H    0.171159
 Sum of Mulliken atomic charges =   0.00000

 Dipole moment (field-independent basis, Debye):
    X=             -0.4460    Y=             -1.4292    Z=              0.9847  Tot=              1.7920
 Quadrupole moment (field-independent basis, Debye-Ang):
   XX=            -62.1752   YY=            -58.1842   ZZ=            -63.2125
   XY=             -7.5281   XZ=            -13.3396   YZ=             -2.9585

 Normal termination of Gaussian 09 at Fri Feb 10 10:58:30 2017.
