 Gaussian 09, Revision A.02,
 Gaussian 09:  EM64L-G09RevA.02 11-Jun-2009

 -------------------------------------------
 # HF/6-31G* Opt=(ModRedundant) geom=nocrowd
 -------------------------------------------

 ------------------
 Phi Psi fixed scan
 ------------------
 Symbolic Z-matrix:
 Charge =  0 Multiplicity = 1

 SCF Done:  E(RHF) =  -492.834934559     A.U. after   15 cycles
 SCF Done:  E(RHF) =  -492.846097595     A.U. after   14 cycles
 SCF Done:  E(RHF) =  -492.849109836     A.U. after   13 cycles
 SCF Done:  E(RHF) =  -492.849478845     A.U. after   13 cycles
 SCF Done:  E(RHF) =  -492.849599813     A.U. after   13 cycles
 SCF Done:  E(RHF) =  -492.849879331     A.U. after   12 cycles
 SCF Done:  E(RHF) =  -492.850241229     A.U. after   14 cycles
 SCF Done:  E(RHF) =  -492.850632648     A.U. after   12 cycles
 SCF Done:  E(RHF) =  -492.850749873     A.U. after   11 cycles
 SCF Done:  E(RHF) =  -492.850768962     A.U. after   12 cycles
 SCF Done:  E(RHF) =  -492.851042341     A.U. after   11 cycles
 SCF Done:  E(RHF) =  -492.851094995     A.U. after   16 cycles
 SCF Done:  E(RHF) =  -492.851162829     A.U. after   12 cycles
 SCF Done:  E(RHF) =  -492.851193491     A.U. after   11 cycles
 SCF Done:  E(RHF) =  -492.851209697     A.U. after   11 cycles
 SCF Done:  E(RHF) =  -492.851222105     A.U. after   11 cycles
 SCF Done:  E(RHF) =  -492.851223965     A.U. after   10 cycles
 SCF Done:  E(RHF) =  -492.851224535     A.U. after   10 cycles
 SCF Done:  E(RHF) =  -492.851224661     A.U. after    7 cycles
 SCF Done:  E(RHF) =  -492.851224691     A.U. after    6 cycles
 Optimization completed.
    -- Stationary point found.

                         Standard orientation:
 ---------------------------------------------------------------------
 Center     Atomic      Atomic             Coordinates (Angstroms)
 Number     Number       Type             X           Y           Z
 ---------------------------------------------------------------------
      1          1           0       -4.201675   -0.920650    0.420172
      2          6           0       -3.169122   -1.169977    0.615625
      3          1           0       -2.950707   -2.134176    0.166295
      4          1           0       -3.006505   -1.249591    1.684664
      5          6           0       -2.280296   -0.117357   -0.008755
      6          8           0       -2.668144    0.635437   -0.857046
      7          7           0       -1.004488   -0.079314    0.474139
      8          1           0       -0.707141   -0.887280    0.974687
      9          6           0        0.028690    0.634352   -0.262931
     10          1           0       -0.294534    0.707482   -1.293022
     11          6           0        0.209572    2.047858    0.285816
     12          1           0        0.504242    2.037502    1.330668
     13          1           0        0.942625    2.608422   -0.287841
     14          1           0       -0.735263    2.570121    0.211843
     15          6           0        1.271611   -0.263298   -0.294963
     16          8           0        1.196060   -1.371672   -0.755810
     17          7           0        2.404950    0.207544    0.256818
     18          1           0        2.444159    1.145132    0.576350
     19          6           0        3.629616   -0.565193    0.222217
     20          1           0        3.470097   -1.539994    0.661558
     21          1           0        3.982960   -0.702881   -0.792738
     22          1           0        4.384743   -0.040120    0.791464
 ---------------------------------------------------------------------

 The electronic state is 1-A.
 Alpha  occ. eigenvalues --  -20.52714 -20.52484 -15.59549 -15.58309 -11.35098
 Alpha  occ. eigenvalues --  -11.34667 -11.27872 -11.26468 -11.23026 -11.22752
 Alpha  occ. eigenvalues --   -1.39992  -1.39065  -1.24243  -1.23508  -1.05644
 Alpha  occ. eigenvalues --   -0.99325  -0.96094  -0.88910  -0.79945  -0.78734
 Alpha  occ. eigenvalues --   -0.73228  -0.67269  -0.66056  -0.64924  -0.62915
 Alpha  occ. eigenvalues --   -0.62109  -0.59323  -0.58821  -0.57157  -0.56200
 Alpha  occ. eigenvalues --   -0.56047  -0.54536  -0.53941  -0.52424  -0.49460
 Alpha  occ. eigenvalues --   -0.42522  -0.41532  -0.40020  -0.39186
 Alpha virt. eigenvalues --    0.18842   0.20493   0.21944   0.23458   0.25806
 Alpha virt. eigenvalues --    0.28065   0.28271   0.29997   0.30638   0.31580
 Alpha virt. eigenvalues --    0.32299   0.33041   0.33574   0.34656   0.37560

 Mulliken atomic charges:
              1
     1  H    0.214036
     2  C   -0.591535
     3  H    0.203067
     4  H    0.181929
     5  C    0.742420
     6  O   -0.599898
     7  N   -0.783127
     8  H    0.390565
     9  C   -0.019574
    10  H    0.242481
    11  C   -0.510508
    12  H    0.161748
    13  H    0.158834
    14  H    0.215859
    15  C    0.723862
    16  O   -0.613780
    17  N   -0.801347
    18  H    0.401847
    19  C   -0.270631
    20  H    0.197468
    21  H    0.187327
    22  H    0.168956
 Sum of Mulliken atomic charges =   0.00000

 Dipole moment (field-independent basis, Debye):
    X=              2.9689    Y=              0.8292    Z=              3.4872  Tot=              4.6543
 Quadrupole moment (field-independent basis, Debye-Ang):
   XX=            -56.0075   YY=            -61.5944   ZZ=            -62.5176
   XY=             10.4953   XZ=             -3.2263   YZ=             -2.2512

 Normal termination of Gaussian 09 at Fri Feb 10 11:47:17 2017.
