 Gaussian 09, Revision A.02,
 Gaussian 09:  EM64L-G09RevA.02 11-Jun-2009

 -------------------------------------------
 # HF/6-31G* Opt=(ModRedundant) geom=nocrowd
 -------------------------------------------

 ------------------
 Phi Psi fixed scan
 ------------------
 Symbolic Z-matrix:
 Charge =  0 Multiplicity = 1

 SCF Done:  E(RHF) =  -492.848743849     A.U. after   15 cycles
 SCF Done:  E(RHF) =  -492.855767982     A.U. after   13 cycles
 SCF Done:  E(RHF) =  -492.857073754     A.U. after   13 cycles
 SCF Done:  E(RHF) =  -492.857711739     A.U. after   16 cycles
 SCF Done:  E(RHF) =  -492.858172168     A.U. after   16 cycles
 SCF Done:  E(RHF) =  -492.858363460     A.U. after   13 cycles
 SCF Done:  E(RHF) =  -492.858503826     A.U. after   12 cycles
 SCF Done:  E(RHF) =  -492.858558634     A.U. after   11 cycles
 SCF Done:  E(RHF) =  -492.858569448     A.U. after   10 cycles
 SCF Done:  E(RHF) =  -492.858597145     A.U. after   11 cycles
 SCF Done:  E(RHF) =  -492.858912785     A.U. after   12 cycles
 SCF Done:  E(RHF) =  -492.858943037     A.U. after   11 cycles
 SCF Done:  E(RHF) =  -492.858861256     A.U. after   13 cycles
 SCF Done:  E(RHF) =  -492.858972974     A.U. after   12 cycles
 SCF Done:  E(RHF) =  -492.858988578     A.U. after   11 cycles
 SCF Done:  E(RHF) =  -492.858995349     A.U. after   10 cycles
 SCF Done:  E(RHF) =  -492.859001554     A.U. after   11 cycles
 SCF Done:  E(RHF) =  -492.859010390     A.U. after   16 cycles
 SCF Done:  E(RHF) =  -492.859015780     A.U. after   11 cycles
 SCF Done:  E(RHF) =  -492.859016478     A.U. after    9 cycles
 Optimization completed.
    -- Stationary point found.

                         Standard orientation:
 ---------------------------------------------------------------------
 Center     Atomic      Atomic             Coordinates (Angstroms)
 Number     Number       Type             X           Y           Z
 ---------------------------------------------------------------------
      1          1           0       -4.278120   -0.798646   -0.126167
      2          6           0       -3.292120   -1.124976    0.170968
      3          1           0       -3.062096   -2.051984   -0.345824
      4          1           0       -3.274147   -1.319113    1.237167
      5          6           0       -2.282631   -0.070486   -0.226415
      6          8           0       -2.511107    0.751910   -1.071660
      7          7           0       -1.103615   -0.122464    0.445718
      8          1           0       -0.886027   -0.956308    0.947210
      9          6           0        0.045410    0.623910   -0.010399
     10          1           0       -0.120049    0.897537   -1.045688
     11          6           0        0.232069    1.903824    0.813866
     12          1           0        0.425767    1.664402    1.853821
     13          1           0        1.049087    2.515034    0.445732
     14          1           0       -0.677261    2.488453    0.758470
     15          6           0        1.267400   -0.295775    0.052935
     16          8           0        1.192742   -1.422637    0.468973
     17          7           0        2.433135    0.251788   -0.342713
     18          1           0        2.418004    1.135013   -0.797097
     19          6           0        3.652598   -0.528023   -0.400673
     20          1           0        3.790806   -1.058139    0.529965
     21          1           0        3.631715   -1.251368   -1.208349
     22          1           0        4.486240    0.144814   -0.550470
 ---------------------------------------------------------------------

 The electronic state is 1-A.
 Alpha  occ. eigenvalues --  -20.53640 -20.51965 -15.59535 -15.57482 -11.35487
 Alpha  occ. eigenvalues --  -11.34344 -11.27952 -11.26505 -11.22701 -11.22679
 Alpha  occ. eigenvalues --   -1.40573  -1.38635  -1.24345  -1.23334  -1.05590
 Alpha  occ. eigenvalues --   -0.99100  -0.96174  -0.88455  -0.80404  -0.78201
 Alpha  occ. eigenvalues --   -0.73219  -0.67321  -0.65795  -0.64634  -0.63409
 Alpha  occ. eigenvalues --   -0.61922  -0.59743  -0.58987  -0.56903  -0.56439
 Alpha  occ. eigenvalues --   -0.56135  -0.54335  -0.53276  -0.52348  -0.49339
 Alpha  occ. eigenvalues --   -0.42917  -0.41481  -0.40329  -0.38691
 Alpha virt. eigenvalues --    0.19047   0.20599   0.21300   0.24427   0.26091
 Alpha virt. eigenvalues --    0.28455   0.29035   0.30402   0.31201   0.31622
 Alpha virt. eigenvalues --    0.32416   0.32820   0.33490   0.34587   0.37752

 Mulliken atomic charges:
              1
     1  H    0.211087
     2  C   -0.586988
     3  H    0.198635
     4  H    0.183506
     5  C    0.736515
     6  O   -0.609677
     7  N   -0.790603
     8  H    0.413651
     9  C   -0.066221
    10  H    0.231260
    11  C   -0.468232
    12  H    0.174788
    13  H    0.149189
    14  H    0.201513
    15  C    0.771246
    16  O   -0.628564
    17  N   -0.794174
    18  H    0.389068
    19  C   -0.273486
    20  H    0.205203
    21  H    0.180760
    22  H    0.171524
 Sum of Mulliken atomic charges =   0.00000

 Dipole moment (field-independent basis, Debye):
    X=              2.7913    Y=              0.5767    Z=              0.5500  Tot=              2.9028
 Quadrupole moment (field-independent basis, Debye-Ang):
   XX=            -54.7051   YY=            -62.5525   ZZ=            -62.2532
   XY=             10.7465   XZ=             -9.2404   YZ=              1.8164

 Normal termination of Gaussian 09 at Fri Feb 10 11:30:31 2017.
