 Gaussian 09, Revision A.02,
 Gaussian 09:  EM64L-G09RevA.02 11-Jun-2009

 -------------------------------------------
 # HF/6-31G* Opt=(ModRedundant) geom=nocrowd
 -------------------------------------------

 ------------------
 Phi Psi fixed scan
 ------------------
 Symbolic Z-matrix:
 Charge =  0 Multiplicity = 1

 SCF Done:  E(RHF) =  -492.838715520     A.U. after   15 cycles
 SCF Done:  E(RHF) =  -492.848549582     A.U. after   13 cycles
 SCF Done:  E(RHF) =  -492.851759836     A.U. after   13 cycles
 SCF Done:  E(RHF) =  -492.852802039     A.U. after   13 cycles
 SCF Done:  E(RHF) =  -492.853570577     A.U. after   16 cycles
 SCF Done:  E(RHF) =  -492.854278113     A.U. after   13 cycles
 SCF Done:  E(RHF) =  -492.854611104     A.U. after   12 cycles
 SCF Done:  E(RHF) =  -492.854625385     A.U. after   12 cycles
 SCF Done:  E(RHF) =  -492.854789252     A.U. after   12 cycles
 SCF Done:  E(RHF) =  -492.854801280     A.U. after   10 cycles
 SCF Done:  E(RHF) =  -492.855233985     A.U. after   16 cycles
 SCF Done:  E(RHF) =  -492.855192860     A.U. after   11 cycles
 SCF Done:  E(RHF) =  -492.855203176     A.U. after   10 cycles
 SCF Done:  E(RHF) =  -492.855239403     A.U. after   11 cycles
 SCF Done:  E(RHF) =  -492.855244349     A.U. after    9 cycles
 SCF Done:  E(RHF) =  -492.855259020     A.U. after   16 cycles
 SCF Done:  E(RHF) =  -492.855268308     A.U. after   11 cycles
 SCF Done:  E(RHF) =  -492.855270029     A.U. after   10 cycles
 SCF Done:  E(RHF) =  -492.855270117     A.U. after    9 cycles
 SCF Done:  E(RHF) =  -492.855270134     A.U. after    6 cycles
 Optimization completed.
    -- Stationary point found.

                         Standard orientation:
 ---------------------------------------------------------------------
 Center     Atomic      Atomic             Coordinates (Angstroms)
 Number     Number       Type             X           Y           Z
 ---------------------------------------------------------------------
      1          1           0       -4.257970   -0.864490    0.087238
      2          6           0       -3.254247   -1.133858    0.381404
      3          1           0       -2.999441   -2.087903   -0.070581
      4          1           0       -3.203861   -1.247064    1.458429
      5          6           0       -2.293118   -0.074469   -0.110033
      6          8           0       -2.592657    0.732463   -0.945571
      7          7           0       -1.063099   -0.096431    0.479723
      8          1           0       -0.807396   -0.958492    0.910319
      9          6           0        0.040918    0.614706   -0.136137
     10          1           0       -0.197633    0.764094   -1.183939
     11          6           0        0.227960    1.988091    0.511440
     12          1           0        0.545502    1.899230    1.544814
     13          1           0        0.944269    2.602117   -0.027071
     14          1           0       -0.720038    2.508763    0.487292
     15          6           0        1.261814   -0.312188   -0.109119
     16          8           0        1.125098   -1.508300   -0.139330
     17          7           0        2.473585    0.264861   -0.031893
     18          1           0        2.550922    1.252864   -0.050471
     19          6           0        3.685494   -0.526805   -0.089780
     20          1           0        3.665968   -1.296557    0.668802
     21          1           0        3.803525   -1.002168   -1.056240
     22          1           0        4.530306    0.124423    0.089154
 ---------------------------------------------------------------------

 The electronic state is 1-A.
 Alpha  occ. eigenvalues --  -20.53164 -20.52336 -15.59585 -15.57628 -11.35391
 Alpha  occ. eigenvalues --  -11.34413 -11.27959 -11.26505 -11.22801 -11.22760
 Alpha  occ. eigenvalues --   -1.40318  -1.38901  -1.24290  -1.23341  -1.05569
 Alpha  occ. eigenvalues --   -0.99166  -0.96101  -0.88807  -0.80273  -0.78099
 Alpha  occ. eigenvalues --   -0.73238  -0.67226  -0.65616  -0.65361  -0.62982
 Alpha  occ. eigenvalues --   -0.61953  -0.59418  -0.59051  -0.56907  -0.56300
 Alpha  occ. eigenvalues --   -0.55963  -0.54300  -0.53846  -0.52479  -0.49262
 Alpha  occ. eigenvalues --   -0.42495  -0.41692  -0.39946  -0.39373
 Alpha virt. eigenvalues --    0.19381   0.20270   0.21561   0.24343   0.25878
 Alpha virt. eigenvalues --    0.28396   0.28795   0.29671   0.31306   0.31643
 Alpha virt. eigenvalues --    0.32089   0.33268   0.33816   0.34730   0.37946

 Mulliken atomic charges:
              1
     1  H    0.212128
     2  C   -0.590513
     3  H    0.200517
     4  H    0.185668
     5  C    0.732671
     6  O   -0.602353
     7  N   -0.777970
     8  H    0.402700
     9  C   -0.047599
    10  H    0.239553
    11  C   -0.493830
    12  H    0.173156
    13  H    0.145455
    14  H    0.212561
    15  C    0.756414
    16  O   -0.626942
    17  N   -0.805104
    18  H    0.398530
    19  C   -0.270259
    20  H    0.199349
    21  H    0.186234
    22  H    0.169635
 Sum of Mulliken atomic charges =   0.00000

 Dipole moment (field-independent basis, Debye):
    X=              3.0801    Y=              0.9007    Z=              1.8880  Tot=              3.7233
 Quadrupole moment (field-independent basis, Debye-Ang):
   XX=            -54.2104   YY=            -62.6359   ZZ=            -62.2105
   XY=             11.2097   XZ=             -5.9691   YZ=             -0.0563

 Normal termination of Gaussian 09 at Fri Feb 10 11:37:50 2017.
