 Gaussian 09, Revision A.02,
 Gaussian 09:  EM64L-G09RevA.02 11-Jun-2009

 -------------------------------------------
 # HF/6-31G* Opt=(ModRedundant) geom=nocrowd
 -------------------------------------------

 ------------------
 Phi Psi fixed scan
 ------------------
 Symbolic Z-matrix:
 Charge =  0 Multiplicity = 1

 SCF Done:  E(RHF) =  -492.846394793     A.U. after   15 cycles
 SCF Done:  E(RHF) =  -492.853811167     A.U. after   14 cycles
 SCF Done:  E(RHF) =  -492.855626171     A.U. after   13 cycles
 SCF Done:  E(RHF) =  -492.856364296     A.U. after   13 cycles
 SCF Done:  E(RHF) =  -492.856501597     A.U. after   13 cycles
 SCF Done:  E(RHF) =  -492.856760286     A.U. after   12 cycles
 SCF Done:  E(RHF) =  -492.856805412     A.U. after   12 cycles
 SCF Done:  E(RHF) =  -492.856840162     A.U. after   11 cycles
 SCF Done:  E(RHF) =  -492.856873234     A.U. after   11 cycles
 SCF Done:  E(RHF) =  -492.856917702     A.U. after   11 cycles
 SCF Done:  E(RHF) =  -492.857202410     A.U. after   12 cycles
 SCF Done:  E(RHF) =  -492.857258732     A.U. after   12 cycles
 SCF Done:  E(RHF) =  -492.857258034     A.U. after   11 cycles
 SCF Done:  E(RHF) =  -492.857288623     A.U. after   12 cycles
 SCF Done:  E(RHF) =  -492.857296572     A.U. after   10 cycles
 SCF Done:  E(RHF) =  -492.857317649     A.U. after   12 cycles
 SCF Done:  E(RHF) =  -492.857321806     A.U. after   11 cycles
 SCF Done:  E(RHF) =  -492.857323037     A.U. after   10 cycles
 SCF Done:  E(RHF) =  -492.857323177     A.U. after    8 cycles
 SCF Done:  E(RHF) =  -492.857323208     A.U. after    8 cycles
 Optimization completed.
    -- Stationary point found.

                         Standard orientation:
 ---------------------------------------------------------------------
 Center     Atomic      Atomic             Coordinates (Angstroms)
 Number     Number       Type             X           Y           Z
 ---------------------------------------------------------------------
      1          1           0        3.843150   -1.545772    0.028018
      2          6           0        3.131229   -1.062999   -0.625259
      3          1           0        2.673411   -1.798787   -1.276896
      4          1           0        3.662569   -0.345701   -1.243810
      5          6           0        2.109454   -0.330511    0.217724
      6          8           0        2.332024    0.001115    1.346290
      7          7           0        0.919461   -0.082336   -0.407320
      8          1           0        0.897119   -0.218959   -1.394748
      9          6           0       -0.055833    0.848713    0.136146
     10          1           0        0.190335    0.960496    1.183046
     11          6           0        0.015775    2.216884   -0.541313
     12          1           0       -0.183855    2.134968   -1.606303
     13          1           0       -0.716449    2.886539   -0.114321
     14          1           0        1.005347    2.639259   -0.407948
     15          6           0       -1.484216    0.298652    0.099211
     16          8           0       -2.420424    1.033915    0.264712
     17          7           0       -1.622170   -1.024515   -0.114956
     18          1           0       -0.804012   -1.585946   -0.081105
     19          6           0       -2.915845   -1.664544   -0.010154
     20          1           0       -3.642262   -1.113403   -0.588835
     21          1           0       -2.839715   -2.669683   -0.403924
     22          1           0       -3.262865   -1.712458    1.016613
 ---------------------------------------------------------------------

 The electronic state is 1-A.
 Alpha  occ. eigenvalues --  -20.53630 -20.52056 -15.59776 -15.58421 -11.36095
 Alpha  occ. eigenvalues --  -11.34309 -11.27898 -11.25740 -11.24351 -11.22090
 Alpha  occ. eigenvalues --   -1.40515  -1.39012  -1.25502  -1.22636  -1.05752
 Alpha  occ. eigenvalues --   -0.99886  -0.96260  -0.87879  -0.80529  -0.78738
 Alpha  occ. eigenvalues --   -0.73487  -0.68196  -0.66415  -0.64059  -0.62809
 Alpha  occ. eigenvalues --   -0.62395  -0.59803  -0.59322  -0.58459  -0.56307
 Alpha  occ. eigenvalues --   -0.55326  -0.54243  -0.52651  -0.52436  -0.49970
 Alpha  occ. eigenvalues --   -0.43467  -0.43010  -0.39485  -0.38657
 Alpha virt. eigenvalues --    0.19089   0.19361   0.21299   0.24449   0.26407
 Alpha virt. eigenvalues --    0.27342   0.28254   0.29589   0.30269   0.31794
 Alpha virt. eigenvalues --    0.32324   0.33380   0.33466   0.34632   0.37411

 Mulliken atomic charges:
              1
     1  H    0.219593
     2  C   -0.590425
     3  H    0.177062
     4  H    0.200693
     5  C    0.741730
     6  O   -0.587029
     7  N   -0.828451
     8  H    0.382147
     9  C   -0.062075
    10  H    0.261578
    11  C   -0.482145
    12  H    0.154560
    13  H    0.213981
    14  H    0.175071
    15  C    0.765588
    16  O   -0.620643
    17  N   -0.795084
    18  H    0.398405
    19  C   -0.273228
    20  H    0.203500
    21  H    0.166228
    22  H    0.178941
 Sum of Mulliken atomic charges =   0.00000

 Dipole moment (field-independent basis, Debye):
    X=              1.6477    Y=             -3.1306    Z=             -3.7272  Tot=              5.1389
 Quadrupole moment (field-independent basis, Debye-Ang):
   XX=            -67.3285   YY=            -57.1670   ZZ=            -62.4792
   XY=              5.3700   XZ=             -7.1873   YZ=             -0.2907

 Normal termination of Gaussian 09 at Fri Feb 10 10:41:17 2017.
