 Gaussian 09, Revision A.02,
 Gaussian 09:  EM64L-G09RevA.02 11-Jun-2009

 -------------------------------------------
 # HF/6-31G* Opt=(ModRedundant) geom=nocrowd
 -------------------------------------------

 ------------------
 Phi Psi fixed scan
 ------------------
 Symbolic Z-matrix:
 Charge =  0 Multiplicity = 1

 SCF Done:  E(RHF) =  -492.848232859     A.U. after   15 cycles
 SCF Done:  E(RHF) =  -492.855273573     A.U. after   13 cycles
 SCF Done:  E(RHF) =  -492.856143360     A.U. after   13 cycles
 SCF Done:  E(RHF) =  -492.856474548     A.U. after   13 cycles
 SCF Done:  E(RHF) =  -492.856789617     A.U. after   13 cycles
 SCF Done:  E(RHF) =  -492.856907490     A.U. after   12 cycles
 SCF Done:  E(RHF) =  -492.856888369     A.U. after   12 cycles
 SCF Done:  E(RHF) =  -492.856952806     A.U. after   12 cycles
 SCF Done:  E(RHF) =  -492.856979053     A.U. after   11 cycles
 SCF Done:  E(RHF) =  -492.857020830     A.U. after   11 cycles
 SCF Done:  E(RHF) =  -492.857180222     A.U. after   12 cycles
 SCF Done:  E(RHF) =  -492.857200905     A.U. after   11 cycles
 SCF Done:  E(RHF) =  -492.857257356     A.U. after   11 cycles
 SCF Done:  E(RHF) =  -492.857309440     A.U. after   12 cycles
 SCF Done:  E(RHF) =  -492.857319956     A.U. after   12 cycles
 SCF Done:  E(RHF) =  -492.857348692     A.U. after   11 cycles
 SCF Done:  E(RHF) =  -492.857362907     A.U. after   11 cycles
 SCF Done:  E(RHF) =  -492.857364422     A.U. after    9 cycles
 SCF Done:  E(RHF) =  -492.857365387     A.U. after   10 cycles
 SCF Done:  E(RHF) =  -492.857365427     A.U. after    8 cycles
 Optimization completed.
    -- Stationary point found.

                         Standard orientation:
 ---------------------------------------------------------------------
 Center     Atomic      Atomic             Coordinates (Angstroms)
 Number     Number       Type             X           Y           Z
 ---------------------------------------------------------------------
      1          1           0        3.805368   -1.582125   -0.097284
      2          6           0        3.123160   -1.010880   -0.709741
      3          1           0        2.667861   -1.656652   -1.452179
      4          1           0        3.688100   -0.242246   -1.228653
      5          6           0        2.095888   -0.350562    0.184620
      6          8           0        2.302793   -0.136820    1.345112
      7          7           0        0.923517   -0.021008   -0.430460
      8          1           0        0.896660   -0.089016   -1.424357
      9          6           0       -0.062401    0.848347    0.189996
     10          1           0        0.156912    0.835415    1.249338
     11          6           0        0.031902    2.282882   -0.323680
     12          1           0       -0.149054    2.326442   -1.393494
     13          1           0       -0.702886    2.908602    0.161925
     14          1           0        1.022301    2.675795   -0.123103
     15          6           0       -1.484583    0.297353    0.042764
     16          8           0       -2.434524    1.032998    0.020882
     17          7           0       -1.599590   -1.043174   -0.015930
     18          1           0       -0.780546   -1.591405    0.101971
     19          6           0       -2.894102   -1.688411    0.010995
     20          1           0       -3.544423   -1.240868   -0.726734
     21          1           0       -2.764526   -2.736967   -0.222600
     22          1           0       -3.368593   -1.599508    0.982218
 ---------------------------------------------------------------------

 The electronic state is 1-A.
 Alpha  occ. eigenvalues --  -20.53497 -20.52194 -15.59748 -15.58370 -11.36034
 Alpha  occ. eigenvalues --  -11.34318 -11.27918 -11.25776 -11.24295 -11.21841
 Alpha  occ. eigenvalues --   -1.40409  -1.39074  -1.25429  -1.22633  -1.05708
 Alpha  occ. eigenvalues --   -0.99805  -0.96315  -0.87754  -0.80527  -0.78795
 Alpha  occ. eigenvalues --   -0.73462  -0.68127  -0.66330  -0.64367  -0.62762
 Alpha  occ. eigenvalues --   -0.62246  -0.59944  -0.59307  -0.58344  -0.56058
 Alpha  occ. eigenvalues --   -0.55367  -0.53905  -0.52603  -0.52381  -0.50246
 Alpha  occ. eigenvalues --   -0.43341  -0.42921  -0.39636  -0.38417
 Alpha virt. eigenvalues --    0.19134   0.19296   0.21715   0.24114   0.26491
 Alpha virt. eigenvalues --    0.27240   0.27885   0.29599   0.30314   0.31882
 Alpha virt. eigenvalues --    0.32423   0.33297   0.33646   0.34520   0.37500

 Mulliken atomic charges:
              1
     1  H    0.218545
     2  C   -0.589591
     3  H    0.176917
     4  H    0.201793
     5  C    0.741615
     6  O   -0.591410
     7  N   -0.823249
     8  H    0.383803
     9  C   -0.071239
    10  H    0.257921
    11  C   -0.472627
    12  H    0.157007
    13  H    0.207724
    14  H    0.172972
    15  C    0.765038
    16  O   -0.619315
    17  N   -0.791171
    18  H    0.398745
    19  C   -0.270188
    20  H    0.200192
    21  H    0.166352
    22  H    0.180166
 Sum of Mulliken atomic charges =   0.00000

 Dipole moment (field-independent basis, Debye):
    X=              1.6379    Y=             -2.8613    Z=             -3.2719  Tot=              4.6449
 Quadrupole moment (field-independent basis, Debye-Ang):
   XX=            -67.4558   YY=            -57.2882   ZZ=            -62.0883
   XY=              6.1969   XZ=             -8.6381   YZ=              0.6106

 Normal termination of Gaussian 09 at Fri Feb 10 10:44:14 2017.
