 Gaussian 09, Revision A.02,
 Gaussian 09:  EM64L-G09RevA.02 11-Jun-2009

 -------------------------------------------
 # HF/6-31G* Opt=(ModRedundant) geom=nocrowd
 -------------------------------------------

 ------------------
 Phi Psi fixed scan
 ------------------
 Symbolic Z-matrix:
 Charge =  0 Multiplicity = 1

 SCF Done:  E(RHF) =  -492.848344576     A.U. after   15 cycles
 SCF Done:  E(RHF) =  -492.855286267     A.U. after   13 cycles
 SCF Done:  E(RHF) =  -492.855903804     A.U. after   13 cycles
 SCF Done:  E(RHF) =  -492.856190268     A.U. after   13 cycles
 SCF Done:  E(RHF) =  -492.856417686     A.U. after   13 cycles
 SCF Done:  E(RHF) =  -492.856527979     A.U. after   13 cycles
 SCF Done:  E(RHF) =  -492.856481652     A.U. after   12 cycles
 SCF Done:  E(RHF) =  -492.856570962     A.U. after   12 cycles
 SCF Done:  E(RHF) =  -492.856594059     A.U. after   11 cycles
 SCF Done:  E(RHF) =  -492.856621052     A.U. after   12 cycles
 SCF Done:  E(RHF) =  -492.856835799     A.U. after   11 cycles
 SCF Done:  E(RHF) =  -492.856877883     A.U. after   12 cycles
 SCF Done:  E(RHF) =  -492.856889133     A.U. after   11 cycles
 SCF Done:  E(RHF) =  -492.856892047     A.U. after   11 cycles
 SCF Done:  E(RHF) =  -492.856894319     A.U. after   11 cycles
 SCF Done:  E(RHF) =  -492.856895348     A.U. after   10 cycles
 SCF Done:  E(RHF) =  -492.856895893     A.U. after   10 cycles
 SCF Done:  E(RHF) =  -492.856896193     A.U. after   10 cycles
 SCF Done:  E(RHF) =  -492.856896224     A.U. after    8 cycles
 SCF Done:  E(RHF) =  -492.856896228     A.U. after    7 cycles
 Optimization completed.
    -- Stationary point found.

                         Standard orientation:
 ---------------------------------------------------------------------
 Center     Atomic      Atomic             Coordinates (Angstroms)
 Number     Number       Type             X           Y           Z
 ---------------------------------------------------------------------
      1          1           0        3.787902   -1.590945   -0.234675
      2          6           0        3.119862   -0.952827   -0.794484
      3          1           0        2.667308   -1.515107   -1.603485
      4          1           0        3.699591   -0.142565   -1.226402
      5          6           0        2.088213   -0.373608    0.149589
      6          8           0        2.282877   -0.279218    1.328486
      7          7           0        0.927664    0.028124   -0.441407
      8          1           0        0.903356    0.044837   -1.437432
      9          6           0       -0.061705    0.839694    0.249724
     10          1           0        0.144991    0.722037    1.304814
     11          6           0        0.041577    2.314314   -0.125523
     12          1           0       -0.135942    2.460647   -1.185793
     13          1           0       -0.692526    2.897123    0.413220
     14          1           0        1.032529    2.681069    0.117816
     15          6           0       -1.475760    0.296908    0.010690
     16          8           0       -2.403134    1.025434   -0.219055
     17          7           0       -1.612484   -1.037118    0.126771
     18          1           0       -0.805159   -1.588146    0.299180
     19          6           0       -2.903050   -1.678475    0.003362
     20          1           0       -3.327516   -1.514754   -0.979440
     21          1           0       -2.776094   -2.741423    0.158733
     22          1           0       -3.597467   -1.295582    0.740313
 ---------------------------------------------------------------------

 The electronic state is 1-A.
 Alpha  occ. eigenvalues --  -20.53416 -20.52346 -15.59720 -15.58293 -11.35981
 Alpha  occ. eigenvalues --  -11.34273 -11.27883 -11.25810 -11.24238 -11.21726
 Alpha  occ. eigenvalues --   -1.40336  -1.39130  -1.25304  -1.22643  -1.05678
 Alpha  occ. eigenvalues --   -0.99755  -0.96332  -0.87660  -0.80481  -0.78824
 Alpha  occ. eigenvalues --   -0.73353  -0.68053  -0.66277  -0.64613  -0.62718
 Alpha  occ. eigenvalues --   -0.62101  -0.60079  -0.59270  -0.58244  -0.55978
 Alpha  occ. eigenvalues --   -0.55368  -0.53478  -0.52706  -0.52287  -0.50561
 Alpha  occ. eigenvalues --   -0.43312  -0.42865  -0.39604  -0.38316
 Alpha virt. eigenvalues --    0.19098   0.19374   0.21879   0.23788   0.26403
 Alpha virt. eigenvalues --    0.27053   0.27438   0.29672   0.30513   0.32085
 Alpha virt. eigenvalues --    0.32449   0.33236   0.33838   0.34490   0.37649

 Mulliken atomic charges:
              1
     1  H    0.217879
     2  C   -0.589322
     3  H    0.177709
     4  H    0.201913
     5  C    0.741013
     6  O   -0.594759
     7  N   -0.815113
     8  H    0.384748
     9  C   -0.079026
    10  H    0.253256
    11  C   -0.465715
    12  H    0.162210
    13  H    0.199070
    14  H    0.171108
    15  C    0.764428
    16  O   -0.616296
    17  N   -0.789245
    18  H    0.399778
    19  C   -0.265959
    20  H    0.184906
    21  H    0.166928
    22  H    0.190489
 Sum of Mulliken atomic charges =   0.00000

 Dipole moment (field-independent basis, Debye):
    X=              1.5718    Y=             -2.5472    Z=             -2.8493  Tot=              4.1325
 Quadrupole moment (field-independent basis, Debye-Ang):
   XX=            -67.0806   YY=            -57.4129   ZZ=            -61.9617
   XY=              6.9481   XZ=            -10.0284   YZ=              1.5377

 Normal termination of Gaussian 09 at Fri Feb 10 10:49:03 2017.
