 Gaussian 09, Revision A.02,
 Gaussian 09:  EM64L-G09RevA.02 11-Jun-2009

 -------------------------------------------
 # HF/6-31G* Opt=(ModRedundant) geom=nocrowd
 -------------------------------------------

 ------------------
 Phi Psi fixed scan
 ------------------
 Symbolic Z-matrix:
 Charge =  0 Multiplicity = 1

 SCF Done:  E(RHF) =  -492.848347161     A.U. after   15 cycles
 SCF Done:  E(RHF) =  -492.855341846     A.U. after   14 cycles
 SCF Done:  E(RHF) =  -492.855853977     A.U. after   13 cycles
 SCF Done:  E(RHF) =  -492.856033345     A.U. after   13 cycles
 SCF Done:  E(RHF) =  -492.856214766     A.U. after   13 cycles
 SCF Done:  E(RHF) =  -492.856316500     A.U. after   13 cycles
 SCF Done:  E(RHF) =  -492.856320801     A.U. after   12 cycles
 SCF Done:  E(RHF) =  -492.856364830     A.U. after   12 cycles
 SCF Done:  E(RHF) =  -492.856390368     A.U. after   11 cycles
 SCF Done:  E(RHF) =  -492.856430205     A.U. after   12 cycles
 SCF Done:  E(RHF) =  -492.856677966     A.U. after   12 cycles
 SCF Done:  E(RHF) =  -492.856696053     A.U. after   11 cycles
 SCF Done:  E(RHF) =  -492.856715769     A.U. after   11 cycles
 SCF Done:  E(RHF) =  -492.856732795     A.U. after   11 cycles
 SCF Done:  E(RHF) =  -492.856752168     A.U. after   12 cycles
 SCF Done:  E(RHF) =  -492.856761709     A.U. after    9 cycles
 SCF Done:  E(RHF) =  -492.856769365     A.U. after   11 cycles
 SCF Done:  E(RHF) =  -492.856770289     A.U. after   10 cycles
 SCF Done:  E(RHF) =  -492.856770492     A.U. after    9 cycles
 SCF Done:  E(RHF) =  -492.856770506     A.U. after    7 cycles
 Optimization completed.
    -- Stationary point found.

                         Standard orientation:
 ---------------------------------------------------------------------
 Center     Atomic      Atomic             Coordinates (Angstroms)
 Number     Number       Type             X           Y           Z
 ---------------------------------------------------------------------
      1          1           0        3.731510   -1.627022   -0.480783
      2          6           0        3.105355   -0.866562   -0.924194
      3          1           0        2.656413   -1.246110   -1.834955
      4          1           0        3.728244   -0.014883   -1.180547
      5          6           0        2.068840   -0.432271    0.089254
      6          8           0        2.238702   -0.556772    1.270557
      7          7           0        0.936286    0.104856   -0.438514
      8          1           0        0.919307    0.285470   -1.418280
      9          6           0       -0.051486    0.803896    0.369897
     10          1           0        0.135431    0.505965    1.390766
     11          6           0        0.066586    2.317673    0.244671
     12          1           0       -0.098110    2.636257   -0.777242
     13          1           0       -0.672161    2.810874    0.865396
     14          1           0        1.053941    2.633536    0.562611
     15          6           0       -1.440056    0.309200   -0.047311
     16          8           0       -2.175913    0.967987   -0.730973
     17          7           0       -1.756959   -0.922884    0.400703
     18          1           0       -1.047732   -1.455516    0.850344
     19          6           0       -2.968156   -1.595998   -0.014365
     20          1           0       -3.802891   -0.914109    0.052670
     21          1           0       -2.903243   -1.958671   -1.035338
     22          1           0       -3.144804   -2.434932    0.645655
 ---------------------------------------------------------------------

 The electronic state is 1-A.
 Alpha  occ. eigenvalues --  -20.53157 -20.52652 -15.59523 -15.58439 -11.35784
 Alpha  occ. eigenvalues --  -11.34413 -11.27828 -11.25778 -11.24002 -11.21800
 Alpha  occ. eigenvalues --   -1.40115  -1.39292  -1.24978  -1.22912  -1.05679
 Alpha  occ. eigenvalues --   -0.99659  -0.96349  -0.87660  -0.80300  -0.78835
 Alpha  occ. eigenvalues --   -0.73121  -0.67840  -0.66066  -0.64982  -0.62679
 Alpha  occ. eigenvalues --   -0.62010  -0.60245  -0.59087  -0.58030  -0.56298
 Alpha  occ. eigenvalues --   -0.55237  -0.53277  -0.52812  -0.51963  -0.51099
 Alpha  occ. eigenvalues --   -0.43247  -0.42674  -0.39412  -0.38594
 Alpha virt. eigenvalues --    0.18793   0.20466   0.21921   0.23193   0.26355
 Alpha virt. eigenvalues --    0.26846   0.27497   0.29947   0.31039   0.32046
 Alpha virt. eigenvalues --    0.32622   0.32905   0.33845   0.34841   0.37561

 Mulliken atomic charges:
              1
     1  H    0.216395
     2  C   -0.588021
     3  H    0.179483
     4  H    0.201376
     5  C    0.743433
     6  O   -0.603783
     7  N   -0.803224
     8  H    0.389426
     9  C   -0.080149
    10  H    0.241345
    11  C   -0.468691
    12  H    0.179702
    13  H    0.180733
    14  H    0.172166
    15  C    0.771242
    16  O   -0.612153
    17  N   -0.789505
    18  H    0.395904
    19  C   -0.274068
    20  H    0.205547
    21  H    0.171920
    22  H    0.170922
 Sum of Mulliken atomic charges =   0.00000

 Dipole moment (field-independent basis, Debye):
    X=              1.0471    Y=             -1.7301    Z=             -1.6760  Tot=              2.6265
 Quadrupole moment (field-independent basis, Debye-Ang):
   XX=            -64.2517   YY=            -58.0266   ZZ=            -62.5862
   XY=              7.7841   XZ=            -12.2456   YZ=              2.8084

 Normal termination of Gaussian 09 at Fri Feb 10 10:55:32 2017.
