 Gaussian 09, Revision A.02,
 Gaussian 09:  EM64L-G09RevA.02 11-Jun-2009

 -------------------------------------------
 # HF/6-31G* Opt=(ModRedundant) geom=nocrowd
 -------------------------------------------

 ------------------
 Phi Psi fixed scan
 ------------------
 Symbolic Z-matrix:
 Charge =  0 Multiplicity = 1

 SCF Done:  E(RHF) =  -492.848093891     A.U. after   15 cycles
 SCF Done:  E(RHF) =  -492.855100370     A.U. after   13 cycles
 SCF Done:  E(RHF) =  -492.855657315     A.U. after   13 cycles
 SCF Done:  E(RHF) =  -492.855890069     A.U. after   13 cycles
 SCF Done:  E(RHF) =  -492.856085075     A.U. after   13 cycles
 SCF Done:  E(RHF) =  -492.856190518     A.U. after   13 cycles
 SCF Done:  E(RHF) =  -492.856192748     A.U. after   12 cycles
 SCF Done:  E(RHF) =  -492.856240634     A.U. after   12 cycles
 SCF Done:  E(RHF) =  -492.856262923     A.U. after   11 cycles
 SCF Done:  E(RHF) =  -492.856284690     A.U. after   11 cycles
 SCF Done:  E(RHF) =  -492.856524375     A.U. after   11 cycles
 SCF Done:  E(RHF) =  -492.856589309     A.U. after   12 cycles
 SCF Done:  E(RHF) =  -492.856589986     A.U. after   11 cycles
 SCF Done:  E(RHF) =  -492.856592441     A.U. after   11 cycles
 SCF Done:  E(RHF) =  -492.856588397     A.U. after   11 cycles
 SCF Done:  E(RHF) =  -492.856592153     A.U. after    9 cycles
 SCF Done:  E(RHF) =  -492.856595963     A.U. after   11 cycles
 SCF Done:  E(RHF) =  -492.856596064     A.U. after    8 cycles
 SCF Done:  E(RHF) =  -492.856596111     A.U. after    8 cycles
 SCF Done:  E(RHF) =  -492.856596115     A.U. after    6 cycles
 Optimization completed.
    -- Stationary point found.

                         Standard orientation:
 ---------------------------------------------------------------------
 Center     Atomic      Atomic             Coordinates (Angstroms)
 Number     Number       Type             X           Y           Z
 ---------------------------------------------------------------------
      1          1           0        3.765629   -1.597559   -0.371019
      2          6           0        3.111444   -0.898592   -0.871363
      3          1           0        2.660619   -1.372378   -1.736001
      4          1           0        3.705340   -0.057184   -1.215544
      5          6           0        2.076587   -0.402244    0.115188
      6          8           0        2.258905   -0.428289    1.300117
      7          7           0        0.927937    0.070093   -0.443403
      8          1           0        0.909754    0.179013   -1.433779
      9          6           0       -0.058201    0.826957    0.313354
     10          1           0        0.141531    0.614675    1.354013
     11          6           0        0.053692    2.326393    0.065162
     12          1           0       -0.119642    2.562968   -0.978306
     13          1           0       -0.680881    2.865970    0.648773
     14          1           0        1.044041    2.667323    0.345900
     15          6           0       -1.463284    0.304528   -0.011222
     16          8           0       -2.320052    1.011965   -0.467080
     17          7           0       -1.665204   -0.996116    0.280640
     18          1           0       -0.882728   -1.546179    0.550177
     19          6           0       -2.915910   -1.658501   -0.016903
     20          1           0       -3.742134   -1.049679    0.320297
     21          1           0       -3.036904   -1.839683   -1.080017
     22          1           0       -2.940546   -2.605776    0.505260
 ---------------------------------------------------------------------

 The electronic state is 1-A.
 Alpha  occ. eigenvalues --  -20.53343 -20.52566 -15.59664 -15.58283 -11.35924
 Alpha  occ. eigenvalues --  -11.34344 -11.27849 -11.25760 -11.24159 -11.21740
 Alpha  occ. eigenvalues --   -1.40269  -1.39248  -1.25172  -1.22729  -1.05679
 Alpha  occ. eigenvalues --   -0.99726  -0.96324  -0.87617  -0.80405  -0.78750
 Alpha  occ. eigenvalues --   -0.73216  -0.67976  -0.66211  -0.64848  -0.62719
 Alpha  occ. eigenvalues --   -0.61985  -0.60201  -0.59214  -0.58150  -0.56052
 Alpha  occ. eigenvalues --   -0.55233  -0.53128  -0.52990  -0.52178  -0.50909
 Alpha  occ. eigenvalues --   -0.43344  -0.42816  -0.39529  -0.38408
 Alpha virt. eigenvalues --    0.18895   0.19770   0.21904   0.23631   0.26301
 Alpha virt. eigenvalues --    0.26940   0.27391   0.29786   0.30906   0.32025
 Alpha virt. eigenvalues --    0.32537   0.33057   0.33810   0.34447   0.37501

 Mulliken atomic charges:
              1
     1  H    0.217334
     2  C   -0.588963
     3  H    0.178944
     4  H    0.201600
     5  C    0.740988
     6  O   -0.598735
     7  N   -0.807084
     8  H    0.386376
     9  C   -0.083803
    10  H    0.247990
    11  C   -0.463964
    12  H    0.170285
    13  H    0.189607
    14  H    0.170602
    15  C    0.765938
    16  O   -0.612005
    17  N   -0.786649
    18  H    0.397176
    19  C   -0.271318
    20  H    0.203319
    21  H    0.172470
    22  H    0.169893
 Sum of Mulliken atomic charges =   0.00000

 Dipole moment (field-independent basis, Debye):
    X=              1.3974    Y=             -2.1212    Z=             -2.3523  Tot=              3.4621
 Quadrupole moment (field-independent basis, Debye-Ang):
   XX=            -65.9142   YY=            -57.7316   ZZ=            -62.2082
   XY=              7.4689   XZ=            -11.1779   YZ=              2.3301

 Normal termination of Gaussian 09 at Fri Feb 10 10:52:50 2017.
