 Gaussian 09, Revision A.02,
 Gaussian 09:  EM64L-G09RevA.02 11-Jun-2009

 -------------------------------------------
 # HF/6-31G* Opt=(ModRedundant) geom=nocrowd
 -------------------------------------------

 ------------------
 Phi Psi fixed scan
 ------------------
 Symbolic Z-matrix:
 Charge =  0 Multiplicity = 1

 SCF Done:  E(RHF) =  -492.839850746     A.U. after   15 cycles
 SCF Done:  E(RHF) =  -492.847350178     A.U. after   17 cycles
 SCF Done:  E(RHF) =  -492.847910588     A.U. after   13 cycles
 SCF Done:  E(RHF) =  -492.848008714     A.U. after   12 cycles
 SCF Done:  E(RHF) =  -492.848164897     A.U. after   11 cycles
 SCF Done:  E(RHF) =  -492.848196444     A.U. after   11 cycles
 SCF Done:  E(RHF) =  -492.848265029     A.U. after   12 cycles
 SCF Done:  E(RHF) =  -492.848319169     A.U. after   12 cycles
 SCF Done:  E(RHF) =  -492.848366581     A.U. after   12 cycles
 SCF Done:  E(RHF) =  -492.848415225     A.U. after   12 cycles
 SCF Done:  E(RHF) =  -492.849921009     A.U. after   12 cycles
 SCF Done:  E(RHF) =  -492.849930190     A.U. after   11 cycles
 SCF Done:  E(RHF) =  -492.849926556     A.U. after   12 cycles
 SCF Done:  E(RHF) =  -492.849967927     A.U. after   11 cycles
 SCF Done:  E(RHF) =  -492.850005916     A.U. after   12 cycles
 SCF Done:  E(RHF) =  -492.850018301     A.U. after   12 cycles
 SCF Done:  E(RHF) =  -492.850014095     A.U. after   11 cycles
 SCF Done:  E(RHF) =  -492.850018832     A.U. after   11 cycles
 SCF Done:  E(RHF) =  -492.850021081     A.U. after   10 cycles
 SCF Done:  E(RHF) =  -492.850021252     A.U. after    9 cycles
 Optimization completed.
    -- Stationary point found.

                         Standard orientation:
 ---------------------------------------------------------------------
 Center     Atomic      Atomic             Coordinates (Angstroms)
 Number     Number       Type             X           Y           Z
 ---------------------------------------------------------------------
      1          1           0        4.021170   -1.342391   -0.038364
      2          6           0        2.960240   -1.540204   -0.081857
      3          1           0        2.702538   -2.222991    0.722453
      4          1           0        2.715160   -2.016948   -1.024358
      5          6           0        2.209999   -0.239298    0.107807
      6          8           0        2.708562    0.719793    0.623964
      7          7           0        0.927599   -0.240401   -0.357581
      8          1           0        0.538037   -1.130181   -0.573293
      9          6           0       -0.000468    0.818994    0.023796
     10          1           0        0.380173    1.291271    0.914921
     11          6           0       -0.136205    1.877731   -1.074337
     12          1           0       -0.492026    1.446153   -2.005256
     13          1           0       -0.825165    2.657902   -0.768425
     14          1           0        0.832434    2.324968   -1.258848
     15          6           0       -1.360922    0.246634    0.412035
     16          8           0       -1.935487    0.615367    1.394929
     17          7           0       -1.868458   -0.712927   -0.414619
     18          1           0       -1.534141   -0.725011   -1.352748
     19          6           0       -3.216747   -1.207124   -0.206262
     20          1           0       -3.326767   -1.521422    0.820341
     21          1           0       -3.966844   -0.451490   -0.414696
     22          1           0       -3.378529   -2.058230   -0.854567
 ---------------------------------------------------------------------

 The electronic state is 1-A.
 Alpha  occ. eigenvalues --  -20.53626 -20.52870 -15.59657 -15.59025 -11.35313
 Alpha  occ. eigenvalues --  -11.35268 -11.27829 -11.26500 -11.23695 -11.22721
 Alpha  occ. eigenvalues --   -1.40494  -1.39619  -1.25358  -1.23063  -1.05901
 Alpha  occ. eigenvalues --   -0.99652  -0.96441  -0.88483  -0.79868  -0.79220
 Alpha  occ. eigenvalues --   -0.73757  -0.67718  -0.66372  -0.63858  -0.63784
 Alpha  occ. eigenvalues --   -0.62508  -0.59879  -0.59576  -0.57768  -0.57103
 Alpha  occ. eigenvalues --   -0.56152  -0.54644  -0.52998  -0.52310  -0.49768
 Alpha  occ. eigenvalues --   -0.44004  -0.42151  -0.40597  -0.38920
 Alpha virt. eigenvalues --    0.18446   0.19512   0.21088   0.23198   0.25814
 Alpha virt. eigenvalues --    0.27488   0.28946   0.29761   0.30302   0.31186
 Alpha virt. eigenvalues --    0.32431   0.32563   0.34081   0.35531   0.36648

 Mulliken atomic charges:
              1
     1  H    0.217719
     2  C   -0.590356
     3  H    0.198583
     4  H    0.178219
     5  C    0.742757
     6  O   -0.592074
     7  N   -0.813476
     8  H    0.388003
     9  C   -0.054029
    10  H    0.258084
    11  C   -0.482555
    12  H    0.146517
    13  H    0.184287
    14  H    0.204309
    15  C    0.743475
    16  O   -0.589494
    17  N   -0.796097
    18  H    0.378818
    19  C   -0.279572
    20  H    0.208812
    21  H    0.178185
    22  H    0.169887
 Sum of Mulliken atomic charges =   0.00000

 Dipole moment (field-independent basis, Debye):
    X=             -1.3895    Y=             -3.8382    Z=             -4.3314  Tot=              5.9517
 Quadrupole moment (field-independent basis, Debye-Ang):
   XX=            -65.3613   YY=            -57.6978   ZZ=            -63.6071
   XY=             -3.1178   XZ=              3.6109   YZ=             -2.1521

 Normal termination of Gaussian 09 at Fri Feb 10 12:03:14 2017.
