 Gaussian 09, Revision A.02,
 Gaussian 09:  EM64L-G09RevA.02 11-Jun-2009

 -------------------------------------------
 # HF/6-31G* Opt=(ModRedundant) geom=nocrowd
 -------------------------------------------

 ------------------
 Phi Psi fixed scan
 ------------------
 Symbolic Z-matrix:
 Charge =  0 Multiplicity = 1

 SCF Done:  E(RHF) =  -492.850909838     A.U. after   15 cycles
 SCF Done:  E(RHF) =  -492.857263309     A.U. after   13 cycles
 SCF Done:  E(RHF) =  -492.857546207     A.U. after   13 cycles
 SCF Done:  E(RHF) =  -492.857519485     A.U. after   12 cycles
 SCF Done:  E(RHF) =  -492.857644414     A.U. after   11 cycles
 SCF Done:  E(RHF) =  -492.857653943     A.U. after   11 cycles
 SCF Done:  E(RHF) =  -492.857680142     A.U. after   12 cycles
 SCF Done:  E(RHF) =  -492.857689586     A.U. after   11 cycles
 SCF Done:  E(RHF) =  -492.857699355     A.U. after   11 cycles
 SCF Done:  E(RHF) =  -492.857711726     A.U. after   11 cycles
 SCF Done:  E(RHF) =  -492.858021969     A.U. after   10 cycles
 SCF Done:  E(RHF) =  -492.858030291     A.U. after   11 cycles
 SCF Done:  E(RHF) =  -492.858041385     A.U. after   11 cycles
 SCF Done:  E(RHF) =  -492.858051340     A.U. after   11 cycles
 SCF Done:  E(RHF) =  -492.858065074     A.U. after   11 cycles
 SCF Done:  E(RHF) =  -492.858068887     A.U. after   11 cycles
 SCF Done:  E(RHF) =  -492.858071292     A.U. after   10 cycles
 SCF Done:  E(RHF) =  -492.858073647     A.U. after   11 cycles
 SCF Done:  E(RHF) =  -492.858073874     A.U. after   10 cycles
 SCF Done:  E(RHF) =  -492.858073882     A.U. after    7 cycles
 Optimization completed.
    -- Stationary point found.

                         Standard orientation:
 ---------------------------------------------------------------------
 Center     Atomic      Atomic             Coordinates (Angstroms)
 Number     Number       Type             X           Y           Z
 ---------------------------------------------------------------------
      1          1           0       -3.690806   -1.727632    0.502346
      2          6           0       -3.146439   -0.885502    0.905230
      3          1           0       -2.710313   -1.154388    1.860192
      4          1           0       -3.847788   -0.072501    1.065140
      5          6           0       -2.110703   -0.444719   -0.106449
      6          8           0       -2.277914   -0.582605   -1.288178
      7          7           0       -0.999078    0.126198    0.417212
      8          1           0       -0.938685    0.269078    1.400731
      9          6           0        0.040096    0.729299   -0.396683
     10          1           0       -0.110422    0.361602   -1.399884
     11          6           0       -0.030310    2.253572   -0.391996
     12          1           0        0.102607    2.637759    0.611518
     13          1           0        0.747961    2.675259   -1.020382
     14          1           0       -0.992010    2.576347   -0.773894
     15          6           0        1.373808    0.241469    0.164847
     16          8           0        1.793168    0.663747    1.211010
     17          7           0        2.010155   -0.699373   -0.556079
     18          1           0        1.548985   -1.087548   -1.345876
     19          6           0        3.220792   -1.333290   -0.078605
     20          1           0        3.911861   -0.581536    0.273483
     21          1           0        3.020111   -2.022426    0.734548
     22          1           0        3.675459   -1.875894   -0.896575
 ---------------------------------------------------------------------

 The electronic state is 1-A.
 Alpha  occ. eigenvalues --  -20.52619 -20.52392 -15.59154 -15.58969 -11.35219
 Alpha  occ. eigenvalues --  -11.34649 -11.27824 -11.26094 -11.23480 -11.21976
 Alpha  occ. eigenvalues --   -1.39754  -1.39060  -1.24434  -1.23510  -1.05615
 Alpha  occ. eigenvalues --   -0.99381  -0.96522  -0.87877  -0.80135  -0.79286
 Alpha  occ. eigenvalues --   -0.73149  -0.67414  -0.65847  -0.64785  -0.62617
 Alpha  occ. eigenvalues --   -0.62287  -0.60178  -0.58644  -0.57826  -0.56684
 Alpha  occ. eigenvalues --   -0.55674  -0.53630  -0.52438  -0.51761  -0.50735
 Alpha  occ. eigenvalues --   -0.42995  -0.42036  -0.39445  -0.38615
 Alpha virt. eigenvalues --    0.18858   0.21493   0.21930   0.22631   0.26426
 Alpha virt. eigenvalues --    0.27087   0.28264   0.30447   0.30935   0.32244
 Alpha virt. eigenvalues --    0.32461   0.33182   0.33856   0.35494   0.37708

 Mulliken atomic charges:
              1
     1  H    0.213055
     2  C   -0.583754
     3  H    0.176551
     4  H    0.202105
     5  C    0.749240
     6  O   -0.611473
     7  N   -0.807788
     8  H    0.398471
     9  C   -0.055194
    10  H    0.230828
    11  C   -0.482630
    12  H    0.189635
    13  H    0.169802
    14  H    0.180404
    15  C    0.780244
    16  O   -0.627958
    17  N   -0.795858
    18  H    0.394710
    19  C   -0.275337
    20  H    0.204913
    21  H    0.178807
    22  H    0.171228
 Sum of Mulliken atomic charges =   0.00000

 Dipole moment (field-independent basis, Debye):
    X=              0.3216    Y=             -1.1142    Z=              0.3827  Tot=              1.2212
 Quadrupole moment (field-independent basis, Debye-Ang):
   XX=            -59.9351   YY=            -58.1573   ZZ=            -64.0764
   XY=             -6.3753   XZ=            -14.4829   YZ=             -2.6546

 Normal termination of Gaussian 09 at Fri Feb 10 11:01:42 2017.
