 Gaussian 09, Revision A.02,
 Gaussian 09:  EM64L-G09RevA.02 11-Jun-2009

 -------------------------------------------
 # HF/6-31G* Opt=(ModRedundant) geom=nocrowd
 -------------------------------------------

 ------------------
 Phi Psi fixed scan
 ------------------
 Symbolic Z-matrix:
 Charge =  0 Multiplicity = 1

 SCF Done:  E(RHF) =  -492.840304448     A.U. after   15 cycles
 SCF Done:  E(RHF) =  -492.848058892     A.U. after   16 cycles
 SCF Done:  E(RHF) =  -492.848779900     A.U. after   13 cycles
 SCF Done:  E(RHF) =  -492.848743826     A.U. after   13 cycles
 SCF Done:  E(RHF) =  -492.849098482     A.U. after   12 cycles
 SCF Done:  E(RHF) =  -492.849328179     A.U. after   13 cycles
 SCF Done:  E(RHF) =  -492.849285387     A.U. after   14 cycles
 SCF Done:  E(RHF) =  -492.849616894     A.U. after   14 cycles
 SCF Done:  E(RHF) =  -492.849810684     A.U. after   13 cycles
 SCF Done:  E(RHF) =  -492.849845381     A.U. after   13 cycles
 SCF Done:  E(RHF) =  -492.850347601     A.U. after   12 cycles
 SCF Done:  E(RHF) =  -492.850398675     A.U. after   12 cycles
 SCF Done:  E(RHF) =  -492.850400543     A.U. after   12 cycles
 SCF Done:  E(RHF) =  -492.850457155     A.U. after   12 cycles
 SCF Done:  E(RHF) =  -492.850460199     A.U. after   10 cycles
 SCF Done:  E(RHF) =  -492.850461059     A.U. after    8 cycles
 SCF Done:  E(RHF) =  -492.850462137     A.U. after   10 cycles
 SCF Done:  E(RHF) =  -492.850464248     A.U. after   10 cycles
 SCF Done:  E(RHF) =  -492.850465210     A.U. after   10 cycles
 SCF Done:  E(RHF) =  -492.850465242     A.U. after    7 cycles
 Optimization completed.
    -- Stationary point found.

                         Standard orientation:
 ---------------------------------------------------------------------
 Center     Atomic      Atomic             Coordinates (Angstroms)
 Number     Number       Type             X           Y           Z
 ---------------------------------------------------------------------
      1          1           0        4.037851   -1.289944   -0.239756
      2          6           0        2.980994   -1.512737   -0.221388
      3          1           0        2.794759   -2.233704    0.568856
      4          1           0        2.684859   -1.957220   -1.164982
      5          6           0        2.217209   -0.241081    0.079910
      6          8           0        2.715207    0.683315    0.658016
      7          7           0        0.926038   -0.228325   -0.347919
      8          1           0        0.547382   -1.073840   -0.709934
      9          6           0       -0.004233    0.812873    0.068122
     10          1           0        0.384407    1.252820    0.971720
     11          6           0       -0.153102    1.907747   -0.990827
     12          1           0       -0.477811    1.509561   -1.947590
     13          1           0       -0.867318    2.659524   -0.670023
     14          1           0        0.806005    2.387725   -1.140111
     15          6           0       -1.336951    0.178620    0.462882
     16          8           0       -1.777093    0.272176    1.572203
     17          7           0       -1.968726   -0.527334   -0.515265
     18          1           0       -1.717524   -0.336363   -1.458623
     19          6           0       -3.290857   -1.077043   -0.286253
     20          1           0       -3.290229   -1.642036    0.633517
     21          1           0       -4.047292   -0.302926   -0.211244
     22          1           0       -3.539539   -1.738189   -1.105973
 ---------------------------------------------------------------------

 The electronic state is 1-A.
 Alpha  occ. eigenvalues --  -20.53448 -20.52544 -15.59517 -15.59052 -11.35146
 Alpha  occ. eigenvalues --  -11.35142 -11.27851 -11.26463 -11.23566 -11.22974
 Alpha  occ. eigenvalues --   -1.40305  -1.39354  -1.25151  -1.23117  -1.05931
 Alpha  occ. eigenvalues --   -0.99600  -0.96352  -0.88786  -0.79751  -0.79589
 Alpha  occ. eigenvalues --   -0.73517  -0.67535  -0.66304  -0.64205  -0.63543
 Alpha  occ. eigenvalues --   -0.62393  -0.59600  -0.59335  -0.57913  -0.57095
 Alpha  occ. eigenvalues --   -0.56169  -0.54720  -0.53055  -0.52255  -0.50050
 Alpha  occ. eigenvalues --   -0.43841  -0.41996  -0.40187  -0.38718
 Alpha virt. eigenvalues --    0.18402   0.19640   0.21576   0.22984   0.25675
 Alpha virt. eigenvalues --    0.27583   0.28659   0.29982   0.30266   0.31186
 Alpha virt. eigenvalues --    0.32368   0.32594   0.34480   0.35488   0.36555

 Mulliken atomic charges:
              1
     1  H    0.216227
     2  C   -0.587310
     3  H    0.201982
     4  H    0.173777
     5  C    0.748433
     6  O   -0.597379
     7  N   -0.815079
     8  H    0.388578
     9  C   -0.049348
    10  H    0.261315
    11  C   -0.486618
    12  H    0.143164
    13  H    0.179466
    14  H    0.205819
    15  C    0.741460
    16  O   -0.590082
    17  N   -0.794376
    18  H    0.382706
    19  C   -0.278151
    20  H    0.207712
    21  H    0.178615
    22  H    0.169090
 Sum of Mulliken atomic charges =   0.00000

 Dipole moment (field-independent basis, Debye):
    X=             -1.7630    Y=             -2.9276    Z=             -4.9893  Tot=              6.0475
 Quadrupole moment (field-independent basis, Debye-Ang):
   XX=            -63.8683   YY=            -57.1803   ZZ=            -64.6385
   XY=             -4.8168   XZ=              3.3428   YZ=             -1.2832

 Normal termination of Gaussian 09 at Fri Feb 10 11:58:38 2017.
