 Gaussian 09, Revision A.02,
 Gaussian 09:  EM64L-G09RevA.02 11-Jun-2009

 -------------------------------------------
 # HF/6-31G* Opt=(ModRedundant) geom=nocrowd
 -------------------------------------------

 ------------------
 Phi Psi fixed scan
 ------------------
 Symbolic Z-matrix:
 Charge =  0 Multiplicity = 1

 SCF Done:  E(RHF) =  -492.835691915     A.U. after   15 cycles
 SCF Done:  E(RHF) =  -492.846041636     A.U. after   14 cycles
 SCF Done:  E(RHF) =  -492.848479062     A.U. after   13 cycles
 SCF Done:  E(RHF) =  -492.848802054     A.U. after   12 cycles
 SCF Done:  E(RHF) =  -492.848804640     A.U. after   13 cycles
 SCF Done:  E(RHF) =  -492.848952286     A.U. after   10 cycles
 SCF Done:  E(RHF) =  -492.849012187     A.U. after   12 cycles
 SCF Done:  E(RHF) =  -492.849072266     A.U. after   12 cycles
 SCF Done:  E(RHF) =  -492.849119886     A.U. after   12 cycles
 SCF Done:  E(RHF) =  -492.849157618     A.U. after   12 cycles
 SCF Done:  E(RHF) =  -492.849634581     A.U. after   12 cycles
 SCF Done:  E(RHF) =  -492.849625399     A.U. after   13 cycles
 SCF Done:  E(RHF) =  -492.849703955     A.U. after   12 cycles
 SCF Done:  E(RHF) =  -492.849716447     A.U. after   10 cycles
 SCF Done:  E(RHF) =  -492.849720122     A.U. after   10 cycles
 SCF Done:  E(RHF) =  -492.849720709     A.U. after    9 cycles
 SCF Done:  E(RHF) =  -492.849721758     A.U. after   10 cycles
 SCF Done:  E(RHF) =  -492.849723336     A.U. after   10 cycles
 SCF Done:  E(RHF) =  -492.849723977     A.U. after   10 cycles
 SCF Done:  E(RHF) =  -492.849723996     A.U. after    7 cycles
 Optimization completed.
    -- Stationary point found.

                         Standard orientation:
 ---------------------------------------------------------------------
 Center     Atomic      Atomic             Coordinates (Angstroms)
 Number     Number       Type             X           Y           Z
 ---------------------------------------------------------------------
      1          1           0        4.118167   -0.973287   -0.660300
      2          6           0        3.076517   -1.255032   -0.711637
      3          1           0        2.950121   -2.204174   -0.200208
      4          1           0        2.784028   -1.384827   -1.747673
      5          6           0        2.248919   -0.203562   -0.004590
      6          8           0        2.703221    0.497212    0.855914
      7          7           0        0.953704   -0.123113   -0.404838
      8          1           0        0.628433   -0.753168   -1.102248
      9          6           0       -0.017081    0.712678    0.281951
     10          1           0        0.357639    0.866699    1.280961
     11          6           0       -0.180945    2.070889   -0.400264
     12          1           0       -0.434688    1.973012   -1.452030
     13          1           0       -0.943414    2.669290    0.089556
     14          1           0        0.758475    2.606245   -0.342406
     15          6           0       -1.299365   -0.108169    0.457402
     16          8           0       -1.443408   -0.829831    1.403713
     17          7           0       -2.214171   -0.029521   -0.538151
     18          1           0       -2.144240    0.710786   -1.195443
     19          6           0       -3.480872   -0.725796   -0.437610
     20          1           0       -3.308316   -1.764334   -0.196775
     21          1           0       -4.116708   -0.299090    0.330478
     22          1           0       -3.987764   -0.663806   -1.391519
 ---------------------------------------------------------------------

 The electronic state is 1-A.
 Alpha  occ. eigenvalues --  -20.52790 -20.52236 -15.59356 -15.58958 -11.34934
 Alpha  occ. eigenvalues --  -11.34868 -11.27879 -11.26346 -11.23325 -11.23121
 Alpha  occ. eigenvalues --   -1.39887  -1.39029  -1.24608  -1.23345  -1.05852
 Alpha  occ. eigenvalues --   -0.99484  -0.96114  -0.89105  -0.79824  -0.79599
 Alpha  occ. eigenvalues --   -0.73219  -0.67257  -0.66081  -0.64771  -0.63014
 Alpha  occ. eigenvalues --   -0.62249  -0.59382  -0.58778  -0.57771  -0.56816
 Alpha  occ. eigenvalues --   -0.56064  -0.54837  -0.53283  -0.52073  -0.50135
 Alpha  occ. eigenvalues --   -0.43180  -0.41738  -0.39710  -0.38587
 Alpha virt. eigenvalues --    0.18560   0.20135   0.21738   0.23118   0.25679
 Alpha virt. eigenvalues --    0.27745   0.28219   0.29987   0.30494   0.31316
 Alpha virt. eigenvalues --    0.32700   0.33257   0.33646   0.34669   0.37464

 Mulliken atomic charges:
              1
     1  H    0.214291
     2  C   -0.584848
     3  H    0.206074
     4  H    0.170768
     5  C    0.754423
     6  O   -0.602507
     7  N   -0.808807
     8  H    0.386918
     9  C   -0.024945
    10  H    0.258286
    11  C   -0.503560
    12  H    0.146145
    13  H    0.171926
    14  H    0.209637
    15  C    0.727618
    16  O   -0.596080
    17  N   -0.796417
    18  H    0.392889
    19  C   -0.274973
    20  H    0.203824
    21  H    0.181410
    22  H    0.167927
 Sum of Mulliken atomic charges =   0.00000

 Dipole moment (field-independent basis, Debye):
    X=             -2.4283    Y=              0.1549    Z=             -5.3969  Tot=              5.9201
 Quadrupole moment (field-independent basis, Debye-Ang):
   XX=            -59.8145   YY=            -58.7258   ZZ=            -64.2271
   XY=             -8.1688   XZ=             -0.6038   YZ=              2.5975

 Normal termination of Gaussian 09 at Fri Feb 10 11:53:37 2017.
