 Gaussian 09, Revision A.02,
 Gaussian 09:  EM64L-G09RevA.02 11-Jun-2009

 -------------------------------------------
 # HF/6-31G* Opt=(ModRedundant) geom=nocrowd
 -------------------------------------------

 ------------------
 Phi Psi fixed scan
 ------------------
 Symbolic Z-matrix:
 Charge =  0 Multiplicity = 1

 SCF Done:  E(RHF) =  -492.834457848     A.U. after   15 cycles
 SCF Done:  E(RHF) =  -492.845606845     A.U. after   17 cycles
 SCF Done:  E(RHF) =  -492.848486751     A.U. after   13 cycles
 SCF Done:  E(RHF) =  -492.848774941     A.U. after   13 cycles
 SCF Done:  E(RHF) =  -492.848866962     A.U. after   13 cycles
 SCF Done:  E(RHF) =  -492.849003823     A.U. after   11 cycles
 SCF Done:  E(RHF) =  -492.849123108     A.U. after   13 cycles
 SCF Done:  E(RHF) =  -492.849237960     A.U. after   13 cycles
 SCF Done:  E(RHF) =  -492.849307302     A.U. after   12 cycles
 SCF Done:  E(RHF) =  -492.849384552     A.U. after   12 cycles
 SCF Done:  E(RHF) =  -492.849682677     A.U. after   13 cycles
 SCF Done:  E(RHF) =  -492.849683044     A.U. after   11 cycles
 SCF Done:  E(RHF) =  -492.849808475     A.U. after   12 cycles
 SCF Done:  E(RHF) =  -492.849825211     A.U. after   10 cycles
 SCF Done:  E(RHF) =  -492.849850333     A.U. after   11 cycles
 SCF Done:  E(RHF) =  -492.849856222     A.U. after   11 cycles
 SCF Done:  E(RHF) =  -492.849862679     A.U. after   11 cycles
 SCF Done:  E(RHF) =  -492.849871197     A.U. after   11 cycles
 SCF Done:  E(RHF) =  -492.849874887     A.U. after   11 cycles
 SCF Done:  E(RHF) =  -492.849874998     A.U. after    8 cycles
 Optimization completed.
    -- Stationary point found.

                         Standard orientation:
 ---------------------------------------------------------------------
 Center     Atomic      Atomic             Coordinates (Angstroms)
 Number     Number       Type             X           Y           Z
 ---------------------------------------------------------------------
      1          1           0        4.165051   -0.918571   -0.595893
      2          6           0        3.125524   -1.185477   -0.717934
      3          1           0        2.960304   -2.156824   -0.261831
      4          1           0        2.888492   -1.260544   -1.773376
      5          6           0        2.267856   -0.157346   -0.013281
      6          8           0        2.692414    0.544726    0.861086
      7          7           0        0.979298   -0.087682   -0.443447
      8          1           0        0.664224   -0.790938   -1.072663
      9          6           0       -0.022939    0.659642    0.300541
     10          1           0        0.330255    0.737343    1.317924
     11          6           0       -0.196088    2.068254   -0.264841
     12          1           0       -0.462212    2.051876   -1.317674
     13          1           0       -0.949645    2.626502    0.283444
     14          1           0        0.744278    2.596518   -0.173348
     15          6           0       -1.284329   -0.209317    0.381437
     16          8           0       -1.301233   -1.184387    1.081696
     17          7           0       -2.324326    0.126161   -0.410412
     18          1           0       -2.316660    0.999709   -0.879949
     19          6           0       -3.568833   -0.613331   -0.358153
     20          1           0       -3.378110   -1.668001   -0.494975
     21          1           0       -4.075041   -0.479421    0.591131
     22          1           0       -4.212333   -0.264260   -1.154645
 ---------------------------------------------------------------------

 The electronic state is 1-A.
 Alpha  occ. eigenvalues --  -20.52658 -20.52306 -15.59433 -15.58704 -11.34942
 Alpha  occ. eigenvalues --  -11.34796 -11.27883 -11.26398 -11.23179 -11.22897
 Alpha  occ. eigenvalues --   -1.39879  -1.39009  -1.24360  -1.23476  -1.05744
 Alpha  occ. eigenvalues --   -0.99403  -0.96084  -0.89017  -0.79778  -0.79357
 Alpha  occ. eigenvalues --   -0.73237  -0.67239  -0.66076  -0.64815  -0.62927
 Alpha  occ. eigenvalues --   -0.62200  -0.59330  -0.58737  -0.57427  -0.56511
 Alpha  occ. eigenvalues --   -0.56043  -0.54753  -0.53653  -0.52219  -0.49741
 Alpha  occ. eigenvalues --   -0.42785  -0.41586  -0.39800  -0.38836
 Alpha virt. eigenvalues --    0.18555   0.20452   0.21950   0.23144   0.25741
 Alpha virt. eigenvalues --    0.27810   0.28213   0.30198   0.30398   0.31462
 Alpha virt. eigenvalues --    0.32562   0.33141   0.33438   0.34693   0.37609

 Mulliken atomic charges:
              1
     1  H    0.214433
     2  C   -0.588656
     3  H    0.204866
     4  H    0.175808
     5  C    0.751440
     6  O   -0.602518
     7  N   -0.797334
     8  H    0.387958
     9  C   -0.015518
    10  H    0.249965
    11  C   -0.509100
    12  H    0.153582
    13  H    0.165620
    14  H    0.213256
    15  C    0.717998
    16  O   -0.603136
    17  N   -0.797623
    18  H    0.398455
    19  C   -0.272581
    20  H    0.200416
    21  H    0.184240
    22  H    0.168429
 Sum of Mulliken atomic charges =   0.00000

 Dipole moment (field-independent basis, Debye):
    X=             -2.7523    Y=              0.7083    Z=             -4.5194  Tot=              5.3387
 Quadrupole moment (field-independent basis, Debye-Ang):
   XX=            -57.8205   YY=            -60.4236   ZZ=            -63.1160
   XY=             -9.5292   XZ=             -2.1634   YZ=              2.9703

 Normal termination of Gaussian 09 at Fri Feb 10 11:50:39 2017.
