 Gaussian 09, Revision A.02,
 Gaussian 09:  EM64L-G09RevA.02 11-Jun-2009

 -------------------------------------------
 # HF/6-31G* Opt=(ModRedundant) geom=nocrowd
 -------------------------------------------

 ------------------
 Phi Psi fixed scan
 ------------------
 Symbolic Z-matrix:
 Charge =  0 Multiplicity = 1

 SCF Done:  E(RHF) =  -492.852375703     A.U. after   15 cycles
 SCF Done:  E(RHF) =  -492.858318832     A.U. after   13 cycles
 SCF Done:  E(RHF) =  -492.858388545     A.U. after   13 cycles
 SCF Done:  E(RHF) =  -492.858523092     A.U. after   12 cycles
 SCF Done:  E(RHF) =  -492.858582603     A.U. after   10 cycles
 SCF Done:  E(RHF) =  -492.858578452     A.U. after   10 cycles
 SCF Done:  E(RHF) =  -492.858589376     A.U. after   10 cycles
 SCF Done:  E(RHF) =  -492.858594595     A.U. after   10 cycles
 SCF Done:  E(RHF) =  -492.858603961     A.U. after   11 cycles
 SCF Done:  E(RHF) =  -492.858609908     A.U. after   11 cycles
 SCF Done:  E(RHF) =  -492.858923285     A.U. after   12 cycles
 SCF Done:  E(RHF) =  -492.858928138     A.U. after   10 cycles
 SCF Done:  E(RHF) =  -492.858930217     A.U. after   10 cycles
 SCF Done:  E(RHF) =  -492.858933633     A.U. after   10 cycles
 SCF Done:  E(RHF) =  -492.858936153     A.U. after   10 cycles
 SCF Done:  E(RHF) =  -492.858938862     A.U. after   11 cycles
 SCF Done:  E(RHF) =  -492.858941609     A.U. after   10 cycles
 SCF Done:  E(RHF) =  -492.858942304     A.U. after   10 cycles
 SCF Done:  E(RHF) =  -492.858942326     A.U. after    7 cycles
 SCF Done:  E(RHF) =  -492.858942332     A.U. after    7 cycles
 Optimization completed.
    -- Stationary point found.

                         Standard orientation:
 ---------------------------------------------------------------------
 Center     Atomic      Atomic             Coordinates (Angstroms)
 Number     Number       Type             X           Y           Z
 ---------------------------------------------------------------------
      1          1           0       -3.704087   -1.770490    0.328259
      2          6           0       -3.199759   -0.935330    0.793784
      3          1           0       -2.784184   -1.243813    1.745732
      4          1           0       -3.933608   -0.156387    0.974252
      5          6           0       -2.153951   -0.403985   -0.162604
      6          8           0       -2.323167   -0.411099   -1.352856
      7          7           0       -1.039693    0.096702    0.418011
      8          1           0       -0.946055    0.088595    1.408899
      9          6           0        0.040710    0.702229   -0.332685
     10          1           0       -0.096420    0.405010   -1.361148
     11          6           0        0.030598    2.227432   -0.234736
     12          1           0        0.142429    2.541162    0.795951
     13          1           0        0.844529    2.656057   -0.811771
     14          1           0       -0.905148    2.611692   -0.623430
     15          6           0        1.343471    0.142407    0.230288
     16          8           0        1.623810    0.301641    1.390715
     17          7           0        2.128601   -0.529250   -0.629376
     18          1           0        1.786027   -0.720999   -1.541706
     19          6           0        3.360304   -1.159058   -0.201656
     20          1           0        3.944372   -0.463029    0.382642
     21          1           0        3.170669   -2.039330    0.402306
     22          1           0        3.925738   -1.447136   -1.077639
 ---------------------------------------------------------------------

 The electronic state is 1-A.
 Alpha  occ. eigenvalues --  -20.52721 -20.52004 -15.59439 -15.58625 -11.34917
 Alpha  occ. eigenvalues --  -11.34813 -11.27840 -11.26267 -11.23222 -11.22165
 Alpha  occ. eigenvalues --   -1.39806  -1.38793  -1.24248  -1.23693  -1.05613
 Alpha  occ. eigenvalues --   -0.99261  -0.96575  -0.87986  -0.80254  -0.79239
 Alpha  occ. eigenvalues --   -0.73198  -0.67283  -0.65826  -0.64567  -0.62831
 Alpha  occ. eigenvalues --   -0.62216  -0.60160  -0.58515  -0.57737  -0.56677
 Alpha  occ. eigenvalues --   -0.55905  -0.53805  -0.52396  -0.51954  -0.50325
 Alpha  occ. eigenvalues --   -0.42964  -0.41711  -0.39692  -0.38399
 Alpha virt. eigenvalues --    0.18930   0.21360   0.21738   0.23088   0.26334
 Alpha virt. eigenvalues --    0.27204   0.28580   0.30782   0.30904   0.32303
 Alpha virt. eigenvalues --    0.32308   0.33432   0.33717   0.35468   0.37632

 Mulliken atomic charges:
              1
     1  H    0.211030
     2  C   -0.580719
     3  H    0.174591
     4  H    0.202734
     5  C    0.750366
     6  O   -0.615211
     7  N   -0.807953
     8  H    0.403178
     9  C   -0.049045
    10  H    0.227891
    11  C   -0.484240
    12  H    0.188552
    13  H    0.167274
    14  H    0.185483
    15  C    0.780371
    16  O   -0.633652
    17  N   -0.796511
    18  H    0.393680
    19  C   -0.275217
    20  H    0.204163
    21  H    0.181845
    22  H    0.171391
 Sum of Mulliken atomic charges =   0.00000

 Dipole moment (field-independent basis, Debye):
    X=              1.0453    Y=             -0.7056    Z=             -0.0558  Tot=              1.2624
 Quadrupole moment (field-independent basis, Debye-Ang):
   XX=            -57.9494   YY=            -57.9264   ZZ=            -65.1182
   XY=             -3.6594   XZ=            -15.5194   YZ=             -1.5525

 Normal termination of Gaussian 09 at Fri Feb 10 11:06:27 2017.
