 Gaussian 09, Revision A.02,
 Gaussian 09:  EM64L-G09RevA.02 11-Jun-2009

 -------------------------------------------
 # HF/6-31G* Opt=(ModRedundant) geom=nocrowd
 -------------------------------------------

 ------------------
 Phi Psi fixed scan
 ------------------
 Symbolic Z-matrix:
 Charge =  0 Multiplicity = 1

 SCF Done:  E(RHF) =  -492.835928087     A.U. after   15 cycles
 SCF Done:  E(RHF) =  -492.846915512     A.U. after   16 cycles
 SCF Done:  E(RHF) =  -492.850204472     A.U. after   13 cycles
 SCF Done:  E(RHF) =  -492.850856685     A.U. after   13 cycles
 SCF Done:  E(RHF) =  -492.851137126     A.U. after   13 cycles
 SCF Done:  E(RHF) =  -492.851750565     A.U. after   13 cycles
 SCF Done:  E(RHF) =  -492.852294593     A.U. after   14 cycles
 SCF Done:  E(RHF) =  -492.852587450     A.U. after   12 cycles
 SCF Done:  E(RHF) =  -492.852729922     A.U. after   13 cycles
 SCF Done:  E(RHF) =  -492.852763941     A.U. after   12 cycles
 SCF Done:  E(RHF) =  -492.853025344     A.U. after   11 cycles
 SCF Done:  E(RHF) =  -492.853070505     A.U. after   11 cycles
 SCF Done:  E(RHF) =  -492.853124092     A.U. after   11 cycles
 SCF Done:  E(RHF) =  -492.853158573     A.U. after   11 cycles
 SCF Done:  E(RHF) =  -492.853199531     A.U. after   11 cycles
 SCF Done:  E(RHF) =  -492.853213767     A.U. after   11 cycles
 SCF Done:  E(RHF) =  -492.853216352     A.U. after   10 cycles
 SCF Done:  E(RHF) =  -492.853216958     A.U. after    9 cycles
 SCF Done:  E(RHF) =  -492.853217065     A.U. after    8 cycles
 SCF Done:  E(RHF) =  -492.853217080     A.U. after    7 cycles
 Optimization completed.
    -- Stationary point found.

                         Standard orientation:
 ---------------------------------------------------------------------
 Center     Atomic      Atomic             Coordinates (Angstroms)
 Number     Number       Type             X           Y           Z
 ---------------------------------------------------------------------
      1          1           0       -4.234716   -0.894655    0.251242
      2          6           0       -3.215724   -1.149187    0.502986
      3          1           0       -2.972812   -2.109005    0.056757
      4          1           0       -3.114395   -1.241357    1.578500
      5          6           0       -2.289506   -0.090897   -0.053411
      6          8           0       -2.633457    0.693028   -0.892798
      7          7           0       -1.033889   -0.084816    0.483293
      8          1           0       -0.758975   -0.932290    0.929650
      9          6           0        0.035451    0.620796   -0.204010
     10          1           0       -0.247757    0.722437   -1.245343
     11          6           0        0.221576    2.021146    0.378035
     12          1           0        0.538468    1.983253    1.415293
     13          1           0        0.938040    2.604339   -0.194113
     14          1           0       -0.726530    2.540299    0.332705
     15          6           0        1.264474   -0.295885   -0.203289
     16          8           0        1.141228   -1.468199   -0.448144
     17          7           0        2.453349    0.246833    0.110349
     18          1           0        2.521998    1.220015    0.284725
     19          6           0        3.668447   -0.540940    0.072735
     20          1           0        3.578427   -1.404439    0.717369
     21          1           0        3.883458   -0.885912   -0.931222
     22          1           0        4.488105    0.074368    0.418200
 ---------------------------------------------------------------------

 The electronic state is 1-A.
 Alpha  occ. eigenvalues --  -20.52881 -20.52458 -15.59601 -15.57935 -11.35247
 Alpha  occ. eigenvalues --  -11.34527 -11.27909 -11.26501 -11.22875 -11.22764
 Alpha  occ. eigenvalues --   -1.40128  -1.39010  -1.24254  -1.23430  -1.05598
 Alpha  occ. eigenvalues --   -0.99241  -0.96100  -0.88872  -0.80126  -0.78332
 Alpha  occ. eigenvalues --   -0.73228  -0.67240  -0.65891  -0.65133  -0.62911
 Alpha  occ. eigenvalues --   -0.62018  -0.59313  -0.58972  -0.57022  -0.56147
 Alpha  occ. eigenvalues --   -0.56013  -0.54304  -0.54056  -0.52511  -0.49327
 Alpha  occ. eigenvalues --   -0.42380  -0.41659  -0.39924  -0.39427
 Alpha virt. eigenvalues --    0.19235   0.20308   0.21813   0.23967   0.25840
 Alpha virt. eigenvalues --    0.28212   0.28576   0.29719   0.30948   0.31674
 Alpha virt. eigenvalues --    0.32126   0.33153   0.33784   0.34639   0.37587

 Mulliken atomic charges:
              1
     1  H    0.213043
     2  C   -0.591508
     3  H    0.201920
     4  H    0.184545
     5  C    0.736240
     6  O   -0.600303
     7  N   -0.777531
     8  H    0.395581
     9  C   -0.031636
    10  H    0.240236
    11  C   -0.506353
    12  H    0.168149
    13  H    0.152266
    14  H    0.215722
    15  C    0.740322
    16  O   -0.621754
    17  N   -0.805591
    18  H    0.401945
    19  C   -0.269744
    20  H    0.196540
    21  H    0.188750
    22  H    0.169161
 Sum of Mulliken atomic charges =   0.00000

 Dipole moment (field-independent basis, Debye):
    X=              3.0744    Y=              0.9103    Z=              2.6730  Tot=              4.1744
 Quadrupole moment (field-independent basis, Debye-Ang):
   XX=            -54.8056   YY=            -62.3042   ZZ=            -62.2470
   XY=             10.9752   XZ=             -4.4635   YZ=             -1.1579

 Normal termination of Gaussian 09 at Fri Feb 10 11:41:50 2017.
