 Gaussian 09, Revision A.02,
 Gaussian 09:  EM64L-G09RevA.02 11-Jun-2009

 -------------------------------------------
 # HF/6-31G* Opt=(ModRedundant) geom=nocrowd
 -------------------------------------------

 ------------------
 Phi Psi fixed scan
 ------------------
 Symbolic Z-matrix:
 Charge =  0 Multiplicity = 1

 SCF Done:  E(RHF) =  -492.838475804     A.U. after   15 cycles
 SCF Done:  E(RHF) =  -492.847546624     A.U. after   14 cycles
 SCF Done:  E(RHF) =  -492.850560344     A.U. after   13 cycles
 SCF Done:  E(RHF) =  -492.852193689     A.U. after   13 cycles
 SCF Done:  E(RHF) =  -492.853008728     A.U. after   14 cycles
 SCF Done:  E(RHF) =  -492.853879586     A.U. after   13 cycles
 SCF Done:  E(RHF) =  -492.853850762     A.U. after   12 cycles
 SCF Done:  E(RHF) =  -492.854072933     A.U. after   12 cycles
 SCF Done:  E(RHF) =  -492.854152581     A.U. after   11 cycles
 SCF Done:  E(RHF) =  -492.854325196     A.U. after   12 cycles
 SCF Done:  E(RHF) =  -492.854654446     A.U. after   12 cycles
 SCF Done:  E(RHF) =  -492.854807540     A.U. after   12 cycles
 SCF Done:  E(RHF) =  -492.854837296     A.U. after   11 cycles
 SCF Done:  E(RHF) =  -492.854832217     A.U. after   11 cycles
 SCF Done:  E(RHF) =  -492.854852663     A.U. after   11 cycles
 SCF Done:  E(RHF) =  -492.854853244     A.U. after    9 cycles
 SCF Done:  E(RHF) =  -492.854853667     A.U. after    9 cycles
 SCF Done:  E(RHF) =  -492.854854068     A.U. after    9 cycles
 SCF Done:  E(RHF) =  -492.854854518     A.U. after    9 cycles
 SCF Done:  E(RHF) =  -492.854854623     A.U. after    8 cycles
 Optimization completed.
    -- Stationary point found.

                         Standard orientation:
 ---------------------------------------------------------------------
 Center     Atomic      Atomic             Coordinates (Angstroms)
 Number     Number       Type             X           Y           Z
 ---------------------------------------------------------------------
      1          1           0        3.947969   -1.423493    0.226218
      2          6           0        3.156337   -1.157818   -0.458624
      3          1           0        2.696335   -2.056534   -0.854112
      4          1           0        3.586955   -0.604213   -1.288098
      5          6           0        2.155196   -0.282122    0.263951
      6          8           0        2.421440    0.290241    1.279467
      7          7           0        0.923057   -0.207872   -0.333824
      8          1           0        0.896807   -0.499469   -1.287991
      9          6           0       -0.033473    0.825160    0.034541
     10          1           0        0.277753    1.201147    0.996402
     11          6           0       -0.053113    1.978319   -0.972757
     12          1           0       -0.336559    1.627345   -1.961760
     13          1           0       -0.765378    2.730757   -0.662921
     14          1           0        0.930604    2.429849   -1.036271
     15          6           0       -1.453876    0.297019    0.228918
     16          8           0       -2.291170    1.012590    0.706869
     17          7           0       -1.727610   -0.938977   -0.249356
     18          1           0       -0.956574   -1.558148   -0.347984
     19          6           0       -3.033647   -1.528062   -0.033559
     20          1           0       -3.797263   -0.835510   -0.353929
     21          1           0       -3.108164   -2.432723   -0.622980
     22          1           0       -3.207319   -1.768691    1.010179
 ---------------------------------------------------------------------

 The electronic state is 1-A.
 Alpha  occ. eigenvalues --  -20.53783 -20.52220 -15.59763 -15.58508 -11.36101
 Alpha  occ. eigenvalues --  -11.34306 -11.27789 -11.25709 -11.24352 -11.22736
 Alpha  occ. eigenvalues --   -1.40617  -1.39147  -1.25487  -1.22675  -1.05894
 Alpha  occ. eigenvalues --   -1.00034  -0.96051  -0.88175  -0.80425  -0.78617
 Alpha  occ. eigenvalues --   -0.73333  -0.68231  -0.66479  -0.63651  -0.62877
 Alpha  occ. eigenvalues --   -0.62808  -0.59525  -0.59240  -0.58664  -0.56896
 Alpha  occ. eigenvalues --   -0.55219  -0.54691  -0.52952  -0.52409  -0.49809
 Alpha  occ. eigenvalues --   -0.43855  -0.43084  -0.39348  -0.39068
 Alpha virt. eigenvalues --    0.18834   0.19566   0.20241   0.24815   0.26156
 Alpha virt. eigenvalues --    0.27072   0.28788   0.29746   0.30496   0.31666
 Alpha virt. eigenvalues --    0.31801   0.33186   0.33522   0.34522   0.37525

 Mulliken atomic charges:
              1
     1  H    0.221237
     2  C   -0.592638
     3  H    0.179911
     4  H    0.196679
     5  C    0.741501
     6  O   -0.579722
     7  N   -0.824351
     8  H    0.377282
     9  C   -0.052989
    10  H    0.263702
    11  C   -0.495145
    12  H    0.156873
    13  H    0.213310
    14  H    0.179600
    15  C    0.759351
    16  O   -0.613354
    17  N   -0.793001
    18  H    0.391595
    19  C   -0.279378
    20  H    0.205329
    21  H    0.166475
    22  H    0.177734
 Sum of Mulliken atomic charges =   0.00000

 Dipole moment (field-independent basis, Debye):
    X=              1.3068    Y=             -3.6425    Z=             -4.4368  Tot=              5.8873
 Quadrupole moment (field-independent basis, Debye-Ang):
   XX=            -66.0193   YY=            -57.2186   ZZ=            -63.5195
   XY=              3.2244   XZ=             -4.6792   YZ=             -2.0347

 Normal termination of Gaussian 09 at Fri Feb 10 12:09:28 2017.
