 Gaussian 09, Revision A.02,
 Gaussian 09:  EM64L-G09RevA.02 11-Jun-2009

 -------------------------------------------
 # HF/6-31G* Opt=(ModRedundant) geom=nocrowd
 -------------------------------------------

 ------------------
 Phi Psi fixed scan
 ------------------
 Symbolic Z-matrix:
 Charge =  0 Multiplicity = 1

 SCF Done:  E(RHF) =  -492.843881325     A.U. after   15 cycles
 SCF Done:  E(RHF) =  -492.851993001     A.U. after   13 cycles
 SCF Done:  E(RHF) =  -492.854290890     A.U. after   13 cycles
 SCF Done:  E(RHF) =  -492.855314902     A.U. after   13 cycles
 SCF Done:  E(RHF) =  -492.856193497     A.U. after   14 cycles
 SCF Done:  E(RHF) =  -492.856365207     A.U. after   13 cycles
 SCF Done:  E(RHF) =  -492.856649574     A.U. after   13 cycles
 SCF Done:  E(RHF) =  -492.856713410     A.U. after   12 cycles
 SCF Done:  E(RHF) =  -492.856763518     A.U. after   11 cycles
 SCF Done:  E(RHF) =  -492.856776856     A.U. after   10 cycles
 SCF Done:  E(RHF) =  -492.857159690     A.U. after   12 cycles
 SCF Done:  E(RHF) =  -492.857153583     A.U. after   11 cycles
 SCF Done:  E(RHF) =  -492.857190939     A.U. after   11 cycles
 SCF Done:  E(RHF) =  -492.857221022     A.U. after   11 cycles
 SCF Done:  E(RHF) =  -492.857241462     A.U. after   11 cycles
 SCF Done:  E(RHF) =  -492.857248052     A.U. after   11 cycles
 SCF Done:  E(RHF) =  -492.857254173     A.U. after   10 cycles
 SCF Done:  E(RHF) =  -492.857259671     A.U. after   10 cycles
 SCF Done:  E(RHF) =  -492.857260306     A.U. after    9 cycles
 SCF Done:  E(RHF) =  -492.857260404     A.U. after    8 cycles
 Optimization completed.
    -- Stationary point found.

                         Standard orientation:
 ---------------------------------------------------------------------
 Center     Atomic      Atomic             Coordinates (Angstroms)
 Number     Number       Type             X           Y           Z
 ---------------------------------------------------------------------
      1          1           0        4.271410   -0.832150    0.049474
      2          6           0        3.280125   -1.125345   -0.263669
      3          1           0        3.027794   -2.069506    0.209966
      4          1           0        3.261046   -1.271550   -1.337622
      5          6           0        2.290588   -0.067280    0.171601
      6          8           0        2.550142    0.753600    1.008104
      7          7           0        1.087735   -0.110024   -0.465030
      8          1           0        0.849844   -0.967586   -0.914955
      9          6           0       -0.044190    0.615909    0.069087
     10          1           0        0.152611    0.828503    1.114432
     11          6           0       -0.231055    1.945306   -0.669494
     12          1           0       -0.496326    1.780195   -1.707909
     13          1           0       -0.991053    2.572023   -0.213772
     14          1           0        0.703076    2.490357   -0.634402
     15          6           0       -1.263098   -0.311940    0.021495
     16          8           0       -1.144081   -1.494029   -0.172999
     17          7           0       -2.467147    0.269265    0.180037
     18          1           0       -2.513832    1.225998    0.438790
     19          6           0       -3.678640   -0.521736    0.255298
     20          1           0       -3.727774   -1.198734   -0.584902
     21          1           0       -3.723049   -1.104488    1.168490
     22          1           0       -4.528741    0.146201    0.220603
 ---------------------------------------------------------------------

 The electronic state is 1-A.
 Alpha  occ. eigenvalues --  -20.53498 -20.52163 -15.59548 -15.57463 -11.35499
 Alpha  occ. eigenvalues --  -11.34351 -11.27980 -11.26496 -11.22761 -11.22702
 Alpha  occ. eigenvalues --   -1.40523  -1.38770  -1.24324  -1.23308  -1.05557
 Alpha  occ. eigenvalues --   -0.99113  -0.96106  -0.88651  -0.80350  -0.78064
 Alpha  occ. eigenvalues --   -0.73235  -0.67267  -0.65683  -0.65086  -0.63201
 Alpha  occ. eigenvalues --   -0.61914  -0.59565  -0.59046  -0.56838  -0.56409
 Alpha  occ. eigenvalues --   -0.56013  -0.54343  -0.53562  -0.52392  -0.49271
 Alpha  occ. eigenvalues --   -0.42756  -0.41594  -0.40201  -0.39036
 Alpha virt. eigenvalues --    0.19205   0.20401   0.21364   0.24482   0.25975
 Alpha virt. eigenvalues --    0.28621   0.28866   0.29996   0.31349   0.31657
 Alpha virt. eigenvalues --    0.32239   0.33171   0.33644   0.34624   0.38345

 Mulliken atomic charges:
              1
     1  H    0.211504
     2  C   -0.588994
     3  H    0.199124
     4  H    0.185427
     5  C    0.732721
     6  O   -0.605619
     7  N   -0.782855
     8  H    0.409655
     9  C   -0.063264
    10  H    0.236849
    11  C   -0.475158
    12  H    0.174748
    13  H    0.142592
    14  H    0.206514
    15  C    0.767195
    16  O   -0.628530
    17  N   -0.798793
    18  H    0.392885
    19  C   -0.272616
    20  H    0.203793
    21  H    0.182034
    22  H    0.170787
 Sum of Mulliken atomic charges =   0.00000

 Dipole moment (field-independent basis, Debye):
    X=             -2.9739    Y=              0.7618    Z=             -1.1238  Tot=              3.2692
 Quadrupole moment (field-independent basis, Debye-Ang):
   XX=            -54.2829   YY=            -62.7341   ZZ=            -62.1961
   XY=            -11.0967   XZ=             -7.7144   YZ=             -0.9040

 Normal termination of Gaussian 09 at Fri Feb 10 11:33:37 2017.
