 Gaussian 09, Revision A.02,
 Gaussian 09:  EM64L-G09RevA.02 11-Jun-2009

 -------------------------------------------
 # HF/6-31G* Opt=(ModRedundant) geom=nocrowd
 -------------------------------------------

 ------------------
 Phi Psi fixed scan
 ------------------
 Symbolic Z-matrix:
 Charge =  0 Multiplicity = 1

 SCF Done:  E(RHF) =  -492.838488966     A.U. after   15 cycles
 SCF Done:  E(RHF) =  -492.847366902     A.U. after   14 cycles
 SCF Done:  E(RHF) =  -492.848861769     A.U. after   13 cycles
 SCF Done:  E(RHF) =  -492.849115137     A.U. after   13 cycles
 SCF Done:  E(RHF) =  -492.849161378     A.U. after   12 cycles
 SCF Done:  E(RHF) =  -492.849285796     A.U. after   12 cycles
 SCF Done:  E(RHF) =  -492.849352627     A.U. after   13 cycles
 SCF Done:  E(RHF) =  -492.849431747     A.U. after   12 cycles
 SCF Done:  E(RHF) =  -492.849527141     A.U. after   11 cycles
 SCF Done:  E(RHF) =  -492.849565146     A.U. after   12 cycles
 SCF Done:  E(RHF) =  -492.849637922     A.U. after   11 cycles
 SCF Done:  E(RHF) =  -492.849869482     A.U. after   13 cycles
 SCF Done:  E(RHF) =  -492.850077138     A.U. after   12 cycles
 SCF Done:  E(RHF) =  -492.850110362     A.U. after   11 cycles
 SCF Done:  E(RHF) =  -492.850127489     A.U. after   11 cycles
 SCF Done:  E(RHF) =  -492.850129464     A.U. after   12 cycles
 SCF Done:  E(RHF) =  -492.850156384     A.U. after   12 cycles
 SCF Done:  E(RHF) =  -492.850157743     A.U. after   10 cycles
 SCF Done:  E(RHF) =  -492.850157825     A.U. after    8 cycles
 Optimization completed.
    -- Stationary point found.

                         Standard orientation:
 ---------------------------------------------------------------------
 Center     Atomic      Atomic             Coordinates (Angstroms)
 Number     Number       Type             X           Y           Z
 ---------------------------------------------------------------------
      1          1           0        4.069556   -1.158149   -0.490378
      2          6           0        3.020276   -1.415115   -0.485103
      3          1           0        2.875540   -2.258016    0.183554
      4          1           0        2.712486   -1.713530   -1.481058
      5          6           0        2.229455   -0.234048    0.035227
      6          8           0        2.711664    0.588616    0.762032
      7          7           0        0.933663   -0.183942   -0.369330
      8          1           0        0.581261   -0.921647   -0.935663
      9          6           0       -0.010014    0.780217    0.174884
     10          1           0        0.376904    1.095206    1.129873
     11          6           0       -0.164682    2.005933   -0.726884
     12          1           0       -0.442817    1.738037   -1.742129
     13          1           0       -0.910438    2.689371   -0.332473
     14          1           0        0.783184    2.527267   -0.776316
     15          6           0       -1.316273    0.048171    0.489619
     16          8           0       -1.605346   -0.265030    1.609015
     17          7           0       -2.090068   -0.276739   -0.578373
     18          1           0       -1.936383    0.202859   -1.434649
     19          6           0       -3.381451   -0.907436   -0.390299
     20          1           0       -3.274257   -1.765753    0.255853
     21          1           0       -4.102372   -0.231479    0.057089
     22          1           0       -3.752242   -1.234415   -1.352832
 ---------------------------------------------------------------------

 The electronic state is 1-A.
 Alpha  occ. eigenvalues --  -20.53122 -20.52343 -15.59397 -15.59049 -11.35044
 Alpha  occ. eigenvalues --  -11.34968 -11.27866 -11.26387 -11.23448 -11.23131
 Alpha  occ. eigenvalues --   -1.40070  -1.39164  -1.24884  -1.23218  -1.05912
 Alpha  occ. eigenvalues --   -0.99548  -0.96222  -0.89018  -0.79830  -0.79626
 Alpha  occ. eigenvalues --   -0.73315  -0.67369  -0.66192  -0.64568  -0.63242
 Alpha  occ. eigenvalues --   -0.62305  -0.59487  -0.58973  -0.57931  -0.57003
 Alpha  occ. eigenvalues --   -0.56125  -0.54792  -0.53105  -0.52126  -0.50239
 Alpha  occ. eigenvalues --   -0.43562  -0.41867  -0.39884  -0.38586
 Alpha virt. eigenvalues --    0.18470   0.19866   0.21721   0.22991   0.25647
 Alpha virt. eigenvalues --    0.27650   0.28390   0.30039   0.30336   0.31183
 Alpha virt. eigenvalues --    0.32507   0.32936   0.34596   0.34766   0.36936

 Mulliken atomic charges:
              1
     1  H    0.215030
     2  C   -0.585061
     3  H    0.204629
     4  H    0.171051
     5  C    0.752198
     6  O   -0.600473
     7  N   -0.813250
     8  H    0.387506
     9  C   -0.038318
    10  H    0.261790
    11  C   -0.494343
    12  H    0.142524
    13  H    0.175826
    14  H    0.207360
    15  C    0.735996
    16  O   -0.592163
    17  N   -0.795044
    18  H    0.387516
    19  C   -0.276648
    20  H    0.205881
    21  H    0.179764
    22  H    0.168229
 Sum of Mulliken atomic charges =   0.00000

 Dipole moment (field-independent basis, Debye):
    X=             -2.1066    Y=             -1.3981    Z=             -5.5374  Tot=              6.0873
 Quadrupole moment (field-independent basis, Debye-Ang):
   XX=            -61.9144   YY=            -57.2461   ZZ=            -65.1235
   XY=             -6.6728   XZ=              1.7680   YZ=              0.7063

 Normal termination of Gaussian 09 at Fri Feb 10 11:55:51 2017.
