 Gaussian 09, Revision A.02,
 Gaussian 09:  EM64L-G09RevA.02 11-Jun-2009

 -------------------------------------------
 # HF/6-31G* Opt=(ModRedundant) geom=nocrowd
 -------------------------------------------

 ------------------
 Phi Psi fixed scan
 ------------------
 Symbolic Z-matrix:
 Charge =  0 Multiplicity = 1

 SCF Done:  E(RHF) =  -492.842297450     A.U. after   15 cycles
 SCF Done:  E(RHF) =  -492.850639480     A.U. after   14 cycles
 SCF Done:  E(RHF) =  -492.853683191     A.U. after   13 cycles
 SCF Done:  E(RHF) =  -492.855059846     A.U. after   16 cycles
 SCF Done:  E(RHF) =  -492.855447021     A.U. after   14 cycles
 SCF Done:  E(RHF) =  -492.855647350     A.U. after   13 cycles
 SCF Done:  E(RHF) =  -492.855863499     A.U. after   13 cycles
 SCF Done:  E(RHF) =  -492.855893307     A.U. after   11 cycles
 SCF Done:  E(RHF) =  -492.855975933     A.U. after   11 cycles
 SCF Done:  E(RHF) =  -492.856080956     A.U. after   12 cycles
 SCF Done:  E(RHF) =  -492.856283944     A.U. after   12 cycles
 SCF Done:  E(RHF) =  -492.856434799     A.U. after   12 cycles
 SCF Done:  E(RHF) =  -492.856471573     A.U. after   11 cycles
 SCF Done:  E(RHF) =  -492.856474883     A.U. after   11 cycles
 SCF Done:  E(RHF) =  -492.856480974     A.U. after   10 cycles
 SCF Done:  E(RHF) =  -492.856494721     A.U. after   11 cycles
 SCF Done:  E(RHF) =  -492.856495964     A.U. after   10 cycles
 SCF Done:  E(RHF) =  -492.856496101     A.U. after    8 cycles
 Optimization completed.
    -- Stationary point found.

                         Standard orientation:
 ---------------------------------------------------------------------
 Center     Atomic      Atomic             Coordinates (Angstroms)
 Number     Number       Type             X           Y           Z
 ---------------------------------------------------------------------
      1          1           0        3.892831   -1.490971    0.134265
      2          6           0        3.142836   -1.110784   -0.543561
      3          1           0        2.682809   -1.932896   -1.080369
      4          1           0        3.628151   -0.462463   -1.267327
      5          6           0        2.129921   -0.308452    0.244712
      6          8           0        2.372771    0.141315    1.326393
      7          7           0        0.919236   -0.145807   -0.374181
      8          1           0        0.897529   -0.354176   -1.349569
      9          6           0       -0.045264    0.840548    0.086370
     10          1           0        0.233749    1.084680    1.100736
     11          6           0       -0.013620    2.115027   -0.759731
     12          1           0       -0.251251    1.899115   -1.798258
     13          1           0       -0.737034    2.827076   -0.389032
     14          1           0        0.974590    2.559127   -0.718570
     15          6           0       -1.473334    0.298234    0.164422
     16          8           0       -2.369587    1.027441    0.494085
     17          7           0       -1.666904   -0.989240   -0.191023
     18          1           0       -0.865690   -1.575442   -0.223487
     19          6           0       -2.965254   -1.609425   -0.029308
     20          1           0       -3.723051   -0.981120   -0.472799
     21          1           0       -2.959141   -2.566073   -0.535364
     22          1           0       -3.216999   -1.762465    1.014957
 ---------------------------------------------------------------------

 The electronic state is 1-A.
 Alpha  occ. eigenvalues --  -20.53730 -20.52060 -15.59777 -15.58467 -11.36117
 Alpha  occ. eigenvalues --  -11.34300 -11.27848 -11.25718 -11.24369 -11.22412
 Alpha  occ. eigenvalues --   -1.40586  -1.39033  -1.25515  -1.22655  -1.05814
 Alpha  occ. eigenvalues --   -0.99965  -0.96172  -0.88022  -0.80488  -0.78672
 Alpha  occ. eigenvalues --   -0.73441  -0.68230  -0.66464  -0.63809  -0.62854
 Alpha  occ. eigenvalues --   -0.62585  -0.59654  -0.59299  -0.58565  -0.56611
 Alpha  occ. eigenvalues --   -0.55260  -0.54510  -0.52804  -0.52440  -0.49803
 Alpha  occ. eigenvalues --   -0.43657  -0.43067  -0.39365  -0.38895
 Alpha virt. eigenvalues --    0.18962   0.19484   0.20771   0.24699   0.26263
 Alpha virt. eigenvalues --    0.27280   0.28545   0.29660   0.30347   0.31741
 Alpha virt. eigenvalues --    0.32104   0.33267   0.33494   0.34699   0.37395

 Mulliken atomic charges:
              1
     1  H    0.220511
     2  C   -0.591504
     3  H    0.178100
     4  H    0.198919
     5  C    0.741511
     6  O   -0.583036
     7  N   -0.828159
     8  H    0.380085
     9  C   -0.055463
    10  H    0.263064
    11  C   -0.489878
    12  H    0.154740
    13  H    0.215686
    14  H    0.177202
    15  C    0.763314
    16  O   -0.618637
    17  N   -0.795833
    18  H    0.396286
    19  C   -0.276452
    20  H    0.204911
    21  H    0.166335
    22  H    0.178300
 Sum of Mulliken atomic charges =   0.00000

 Dipole moment (field-independent basis, Debye):
    X=              1.5329    Y=             -3.3817    Z=             -4.1177  Tot=              5.5444
 Quadrupole moment (field-independent basis, Debye-Ang):
   XX=            -66.8073   YY=            -57.1332   ZZ=            -62.9914
   XY=              4.4005   XZ=             -5.8604   YZ=             -1.2046

 Normal termination of Gaussian 09 at Fri Feb 10 10:38:39 2017.
