 Gaussian 09, Revision A.02,
 Gaussian 09:  EM64L-G09RevA.02 11-Jun-2009

 -------------------
 #SP MP2/aug-cc-pVDZ
 -------------------

 ------------------
 Phi Psi fixed scan
 ------------------
 Symbolic Z-matrix:
 Charge =  0 Multiplicity = 1

                         Standard orientation:
 ---------------------------------------------------------------------
 Center     Atomic      Atomic             Coordinates (Angstroms)
 Number     Number       Type             X           Y           Z
 ---------------------------------------------------------------------
      1          1           0       -6.995304   -1.703397   -0.086797
      2          6           0       -6.477304   -0.758597    0.104603
      3          1           0       -6.988503   -0.270997    0.940703
      4          1           0       -6.556703   -0.122797   -0.782397
      5          6           0       -5.043204   -1.059298    0.514603
      6          8           0       -4.775704   -1.771998    1.478203
      7          7           0       -4.078603   -0.490498   -0.262197
      8          1           0       -4.298103    0.176102   -0.993397
      9          6           0       -2.669904   -0.615699    0.053803
     10          1           0       -2.559603   -0.559199    1.144903
     11          6           0       -2.085104   -1.959999   -0.423397
     12          1           0       -2.175204   -2.051199   -1.510797
     13          1           0       -1.027904   -2.057700   -0.153697
     14          1           0       -2.643004   -2.771399    0.050403
     15          6           0       -1.954503    0.577201   -0.602797
     16          8           0       -2.505703    1.273201   -1.450297
     17          7           0       -0.649103    0.747000   -0.229197
     18          1           0       -0.373803    0.282500    0.628703
     19          6           0        0.101798    1.973300   -0.550097
     20          1           0        0.169998    2.030000   -1.644097
     21          6           0       -0.563402    3.251500   -0.026997
     22          1           0       -0.669902    3.212700    1.062603
     23          1           0        0.061799    4.112900   -0.271097
     24          1           0       -1.548202    3.371101   -0.481397
     25          6           0        1.537498    1.858999    0.003703
     26          8           0        2.173798    2.845999    0.355103
     27          7           0        2.043197    0.594999    0.065903
     28          1           0        1.582897   -0.182001   -0.400497
     29          6           0        3.426397    0.344298    0.430903
     30          1           0        4.052697    1.130298   -0.011597
     31          6           0        3.625197    0.362798    1.958103
     32          1           0        3.024397   -0.420401    2.431903
     33          1           0        4.675397    0.205098    2.228203
     34          1           0        3.313697    1.336199    2.345103
     35          6           0        3.797796   -1.020802   -0.177497
     36          8           0        2.936496   -1.776401   -0.622997
     37          7           0        5.122896   -1.317102   -0.162597
     38          1           0        5.766296   -0.626503    0.197503
     39          6           0        5.660096   -2.572103   -0.663697
     40          1           0        4.820095   -3.170002   -1.018397
     41          1           0        6.353096   -2.398203   -1.494597
     42          1           0        6.183895   -3.119903    0.127903
 ---------------------------------------------------------------------

 SCF Done:  E(RHF) =  -984.694183462     A.U. after   15 cycles
 E2 =    -0.3193571464D+01 EUMP2 =    -0.98788775492611D+03

 The electronic state is 1-A.
 Alpha  occ. eigenvalues --  -20.55324 -20.55303 -20.54337 -20.52383 -15.61544
 Alpha  occ. eigenvalues --  -15.61038 -15.60077 -15.58902 -11.38109 -11.37663
 Alpha  occ. eigenvalues --  -11.37223 -11.35815 -11.30562 -11.30094 -11.29581
 Alpha  occ. eigenvalues --  -11.28325 -11.24794 -11.24218 -11.23490 -11.22443
 Alpha  occ. eigenvalues --   -1.40925  -1.40632  -1.39570  -1.37752  -1.26259
 Alpha  occ. eigenvalues --   -1.25379  -1.23964  -1.23523  -1.07424  -1.05322
 Alpha  occ. eigenvalues --   -1.02656  -0.98512  -0.97198  -0.92265  -0.89903
 Alpha  occ. eigenvalues --   -0.86875  -0.81514  -0.80630  -0.79017  -0.78465
 Alpha  occ. eigenvalues --   -0.76074  -0.71666  -0.68965  -0.68332  -0.67657
 Alpha  occ. eigenvalues --   -0.65961  -0.65539  -0.64724  -0.63725  -0.62624
 Alpha  occ. eigenvalues --   -0.61905  -0.61312  -0.60557  -0.60341  -0.58613
 Alpha  occ. eigenvalues --   -0.58359  -0.56909  -0.56522  -0.56258  -0.56063
 Alpha  occ. eigenvalues --   -0.55181  -0.54685  -0.54292  -0.53175  -0.52606
 Alpha  occ. eigenvalues --   -0.52293  -0.51628  -0.50689  -0.49141  -0.44656
 Alpha  occ. eigenvalues --   -0.44425  -0.43276  -0.42027  -0.41764  -0.41463
 Alpha  occ. eigenvalues --   -0.40062  -0.38858
 Alpha virt. eigenvalues --    0.02316   0.03565   0.03743   0.03954   0.04362
 Alpha virt. eigenvalues --    0.04787   0.05073   0.05938   0.06151   0.06217
 Alpha virt. eigenvalues --    0.06501   0.06555   0.07013   0.07789   0.08008

 Mulliken atomic charges:
              1
     1  H    0.046552
     2  C    0.370368
     3  H    0.046256
     4  H   -0.163005
     5  C    0.522255
     6  O   -0.867820
     7  N   -0.163633
     8  H   -0.090083
     9  C    0.023428
    10  H   -0.180692
    11  C    0.887469
    12  H   -0.057190
    13  H   -0.098240
    14  H   -0.085894
    15  C    0.511935
    16  O   -0.879871
    17  N   -0.106979
    18  H    0.005133
    19  C   -0.255999
    20  H   -0.182699
    21  C    0.837165
    22  H   -0.068717
    23  H   -0.066577
    24  H   -0.016530
    25  C    0.756831
    26  O   -0.845160
    27  N   -0.101046
    28  H   -0.041048
    29  C   -0.271569
    30  H   -0.200719
    31  C    0.888871
    32  H   -0.054421
    33  H   -0.124617
    34  H   -0.051019
    35  C    1.143448
    36  O   -0.879129
    37  N   -0.451855
    38  H   -0.123115
    39  C    0.725003
    40  H   -0.145221
    41  H   -0.091973
    42  H   -0.099894
 Sum of Mulliken atomic charges =   0.00000

 Dipole moment (field-independent basis, Debye):
    X=              4.8407    Y=             -0.7237    Z=             -0.3306  Tot=              4.9056
 Quadrupole moment (field-independent basis, Debye-Ang):
   XX=            -89.6519   YY=           -138.9437   ZZ=           -127.8181
   XY=            -16.3106   XZ=              9.9663   YZ=              4.8691

 Normal termination of Gaussian 09 at Tue Jan 17 07:11:17 2017.
