 Gaussian 09, Revision A.02,
 Gaussian 09:  EM64L-G09RevA.02 11-Jun-2009

 -------------------
 #SP MP2/aug-cc-pVDZ
 -------------------

 ------------------
 Phi Psi fixed scan
 ------------------
 Symbolic Z-matrix:
 Charge =  0 Multiplicity = 1

                         Standard orientation:
 ---------------------------------------------------------------------
 Center     Atomic      Atomic             Coordinates (Angstroms)
 Number     Number       Type             X           Y           Z
 ---------------------------------------------------------------------
      1          1           0        7.830896   -0.398991   -0.366500
      2          6           0        7.007396   -0.897192    0.154700
      3          1           0        7.373596   -1.178392    1.147000
      4          1           0        6.734096   -1.802792   -0.395600
      5          6           0        5.859895    0.089808    0.317100
      6          8           0        5.997695    1.155608    0.912000
      7          7           0        4.679096   -0.286493   -0.246800
      8          1           0        4.543096   -1.202393   -0.659300
      9          6           0        3.472595    0.506207   -0.113100
     10          1           0        3.424495    0.891907    0.913700
     11          6           0        3.455795    1.705207   -1.081300
     12          1           0        3.487395    1.359107   -2.119700
     13          1           0        2.556194    2.314606   -0.943600
     14          1           0        4.332994    2.326207   -0.884200
     15          6           0        2.287396   -0.442794   -0.364000
     16          8           0        2.449596   -1.557194   -0.863100
     17          7           0        1.068495    0.062106   -0.051400
     18          1           0        0.993695    0.907006    0.507800
     19          6           0       -0.156504   -0.726395   -0.083400
     20          1           0       -0.319704   -1.083495   -1.106800
     21          6           0       -0.122904   -1.935395    0.873400
     22          1           0        0.005896   -1.594695    1.906100
     23          1           0       -1.057903   -2.502795    0.807000
     24          1           0        0.706897   -2.590695    0.602800
     25          6           0       -1.282905    0.230305    0.336400
     26          8           0       -1.067605    1.163405    1.111900
     27          7           0       -2.499405   -0.029296   -0.192000
     28          1           0       -2.669904   -0.835196   -0.786300
     29          6           0       -3.695505    0.690204    0.210100
     30          1           0       -3.651705    0.854204    1.294100
     31          6           0       -3.805405    2.057204   -0.492000
     32          1           0       -3.867705    1.926004   -1.577100
     33          1           0       -4.692006    2.607303   -0.157300
     34          1           0       -2.919806    2.651304   -0.254000
     35          6           0       -4.888204   -0.220797   -0.134000
     36          8           0       -4.757004   -1.182197   -0.888400
     37          7           0       -6.068605    0.136603    0.433700
     38          1           0       -6.080905    0.928903    1.060600
     39          6           0       -7.313704   -0.573798    0.188200
     40          1           0       -7.093704   -1.395198   -0.494300
     41          1           0       -7.722904   -0.980398    1.119700
     42          1           0       -8.059205    0.085702   -0.270400
 ---------------------------------------------------------------------

 SCF Done:  E(RHF) =  -984.701398898     A.U. after   14 cycles
 E2 =    -0.3191809678D+01 EUMP2 =    -0.98789320857578D+03

 The electronic state is 1-A.
 Alpha  occ. eigenvalues --  -20.55454 -20.54863 -20.54286 -20.51882 -15.61719
 Alpha  occ. eigenvalues --  -15.60650 -15.59831 -15.58361 -11.38266 -11.37588
 Alpha  occ. eigenvalues --  -11.36847 -11.35333 -11.30877 -11.30083 -11.28903
 Alpha  occ. eigenvalues --  -11.28461 -11.24879 -11.23846 -11.23662 -11.23004
 Alpha  occ. eigenvalues --   -1.41105  -1.40232  -1.39425  -1.37214  -1.25572
 Alpha  occ. eigenvalues --   -1.25423  -1.24601  -1.23000  -1.07805  -1.05273
 Alpha  occ. eigenvalues --   -1.02443  -0.98092  -0.97343  -0.92268  -0.90230
 Alpha  occ. eigenvalues --   -0.87092  -0.82095  -0.80036  -0.79280  -0.77942
 Alpha  occ. eigenvalues --   -0.75927  -0.71612  -0.69204  -0.67983  -0.66982
 Alpha  occ. eigenvalues --   -0.65745  -0.65526  -0.64594  -0.64062  -0.62160
 Alpha  occ. eigenvalues --   -0.61870  -0.61315  -0.60574  -0.59833  -0.59559
 Alpha  occ. eigenvalues --   -0.57936  -0.57218  -0.56479  -0.56033  -0.55572
 Alpha  occ. eigenvalues --   -0.55417  -0.54538  -0.54167  -0.53660  -0.53101
 Alpha  occ. eigenvalues --   -0.51985  -0.51742  -0.50893  -0.48720  -0.44814
 Alpha  occ. eigenvalues --   -0.44229  -0.43262  -0.41983  -0.41514  -0.40789
 Alpha  occ. eigenvalues --   -0.40008  -0.38205
 Alpha virt. eigenvalues --    0.02223   0.03651   0.03794   0.03834   0.04363
 Alpha virt. eigenvalues --    0.04828   0.05139   0.05829   0.06047   0.06159
 Alpha virt. eigenvalues --    0.06613   0.06698   0.07175   0.07450   0.07522

 Mulliken atomic charges:
              1
     1  H    0.044490
     2  C    0.368691
     3  H    0.043511
     4  H   -0.166021
     5  C    0.509287
     6  O   -0.871939
     7  N   -0.139695
     8  H   -0.085724
     9  C   -0.124902
    10  H   -0.134678
    11  C    0.862232
    12  H   -0.042403
    13  H   -0.062223
    14  H   -0.082534
    15  C    0.664488
    16  O   -0.900193
    17  N   -0.082607
    18  H   -0.082227
    19  C   -0.213897
    20  H   -0.317354
    21  C    0.908738
    22  H   -0.001104
    23  H   -0.076444
    24  H   -0.041620
    25  C    0.840971
    26  O   -0.923858
    27  N   -0.164801
    28  H   -0.091677
    29  C   -0.253032
    30  H   -0.156096
    31  C    0.865599
    32  H   -0.036235
    33  H   -0.094880
    34  H   -0.056353
    35  C    1.185282
    36  O   -0.893987
    37  N   -0.461228
    38  H   -0.120259
    39  C    0.712895
    40  H   -0.143870
    41  H   -0.088537
    42  H   -0.095805
 Sum of Mulliken atomic charges =   0.00000

 Dipole moment (field-independent basis, Debye):
    X=             -6.7076    Y=             -0.0946    Z=              0.1090  Tot=              6.7092
 Quadrupole moment (field-independent basis, Debye-Ang):
   XX=           -100.6426   YY=           -128.0713   ZZ=           -126.2767
   XY=            -22.9728   XZ=            -17.4484   YZ=             -8.6606

 Normal termination of Gaussian 09 at Tue Jan 17 00:21:23 2017.
