 Gaussian 09, Revision A.02,
 Gaussian 09:  EM64L-G09RevA.02 11-Jun-2009

 -------------------
 #SP MP2/aug-cc-pVDZ
 -------------------

 ------------------
 Phi Psi fixed scan
 ------------------
 Symbolic Z-matrix:
 Charge =  0 Multiplicity = 1

                         Standard orientation:
 ---------------------------------------------------------------------
 Center     Atomic      Atomic             Coordinates (Angstroms)
 Number     Number       Type             X           Y           Z
 ---------------------------------------------------------------------
      1          1           0       -6.875993    1.563812   -0.347407
      2          6           0       -6.101094    1.138210   -0.992507
      3          1           0       -6.143793    1.671110   -1.947507
      4          1           0       -6.321496    0.080111   -1.163607
      5          6           0       -4.741493    1.384608   -0.354707
      6          8           0       -4.339791    2.515007   -0.091807
      7          7           0       -4.005596    0.268706   -0.091907
      8          1           0       -4.309097   -0.658493   -0.365807
      9          6           0       -2.665495    0.341104    0.454793
     10          1           0       -2.127394    1.154103   -0.049007
     11          6           0       -2.677695    0.629504    1.970093
     12          1           0       -3.185796   -0.176095    2.510293
     13          1           0       -1.662695    0.733002    2.372093
     14          1           0       -3.210193    1.568005    2.141093
     15          6           0       -1.983998   -1.004398    0.144993
     16          8           0       -2.637400   -1.988096   -0.191307
     17          7           0       -0.626298   -1.002600    0.285593
     18          1           0       -0.225896   -0.196401    0.749093
     19          6           0        0.207700   -2.213302    0.253193
     20          1           0       -0.051302   -2.871801    1.090193
     21          6           0        0.060698   -2.999101   -1.063207
     22          1           0        0.318499   -2.365202   -1.918807
     23          1           0        0.742197   -3.854903   -1.040907
     24          1           0       -0.963802   -3.351199   -1.181407
     25          6           0        1.690600   -1.858604    0.441193
     26          8           0        2.463599   -2.656306    0.961393
     27          7           0        2.079603   -0.637005   -0.015307
     28          1           0        1.462004   -0.035904   -0.551407
     29          6           0        3.457004   -0.182708    0.053393
     30          1           0        3.838503   -0.413509    1.054993
     31          6           0        4.356802   -0.872610   -0.990707
     32          1           0        4.004803   -0.651309   -2.003607
     33          1           0        5.395303   -0.533812   -0.903907
     34          1           0        4.328000   -1.952409   -0.827407
     35          6           0        3.418706    1.338992   -0.168407
     36          8           0        2.459107    1.873694   -0.720107
     37          7           0        4.519008    2.014190    0.253193
     38          1           0        5.249507    1.497989    0.722893
     39          6           0        4.687010    3.447390    0.071193
     40          1           0        3.802611    3.817292   -0.448407
     41          1           0        4.775811    3.958090    1.036593
     42          1           0        5.576611    3.665588   -0.530307
 ---------------------------------------------------------------------

 SCF Done:  E(RHF) =  -984.693132866     A.U. after   15 cycles
 E2 =    -0.3193304625D+01 EUMP2 =    -0.98788643749031D+03

 The electronic state is 1-A.
 Alpha  occ. eigenvalues --  -20.55267 -20.55157 -20.54149 -20.52289 -15.61609
 Alpha  occ. eigenvalues --  -15.61175 -15.60391 -15.58873 -11.38072 -11.37754
 Alpha  occ. eigenvalues --  -11.37206 -11.35750 -11.30659 -11.30081 -11.29570
 Alpha  occ. eigenvalues --  -11.28311 -11.24597 -11.24169 -11.23858 -11.23241
 Alpha  occ. eigenvalues --   -1.40857  -1.40556  -1.39423  -1.37663  -1.26383
 Alpha  occ. eigenvalues --   -1.25383  -1.24126  -1.23488  -1.07718  -1.05304
 Alpha  occ. eigenvalues --   -1.02914  -0.98551  -0.97214  -0.92152  -0.90217
 Alpha  occ. eigenvalues --   -0.87358  -0.81739  -0.80509  -0.79208  -0.78241
 Alpha  occ. eigenvalues --   -0.76098  -0.72304  -0.69202  -0.68034  -0.67124
 Alpha  occ. eigenvalues --   -0.66337  -0.65497  -0.64887  -0.63740  -0.63027
 Alpha  occ. eigenvalues --   -0.62258  -0.61005  -0.60637  -0.59731  -0.59010
 Alpha  occ. eigenvalues --   -0.58059  -0.57416  -0.56565  -0.56450  -0.55944
 Alpha  occ. eigenvalues --   -0.55195  -0.54812  -0.54052  -0.53553  -0.53034
 Alpha  occ. eigenvalues --   -0.52582  -0.51782  -0.50671  -0.49273  -0.44779
 Alpha  occ. eigenvalues --   -0.44636  -0.42526  -0.41949  -0.41662  -0.41443
 Alpha  occ. eigenvalues --   -0.40044  -0.38839
 Alpha virt. eigenvalues --    0.02284   0.03526   0.03748   0.04020   0.04409
 Alpha virt. eigenvalues --    0.04796   0.05146   0.05821   0.06081   0.06440
 Alpha virt. eigenvalues --    0.06590   0.06748   0.06854   0.07582   0.08014

 Mulliken atomic charges:
              1
     1  H    0.044600
     2  C    0.348225
     3  H    0.045257
     4  H   -0.167176
     5  C    0.469745
     6  O   -0.870980
     7  N   -0.149136
     8  H   -0.090946
     9  C    0.012773
    10  H   -0.150567
    11  C    0.841768
    12  H   -0.051920
    13  H   -0.090612
    14  H   -0.094241
    15  C    0.737145
    16  O   -0.894056
    17  N    0.026210
    18  H   -0.072274
    19  C   -0.134727
    20  H   -0.239238
    21  C    0.779685
    22  H   -0.056685
    23  H   -0.037603
    24  H   -0.040591
    25  C    0.809028
    26  O   -0.894989
    27  N   -0.185165
    28  H   -0.040239
    29  C   -0.439437
    30  H   -0.263338
    31  C    0.904286
    32  H   -0.025773
    33  H   -0.127364
    34  H   -0.037614
    35  C    1.232466
    36  O   -0.900762
    37  N   -0.458303
    38  H   -0.125491
    39  C    0.719886
    40  H   -0.143017
    41  H   -0.089247
    42  H   -0.099583
 Sum of Mulliken atomic charges =   0.00000

 Dipole moment (field-independent basis, Debye):
    X=              4.2239    Y=              0.7931    Z=              0.3665  Tot=              4.3133
 Quadrupole moment (field-independent basis, Debye-Ang):
   XX=            -93.9747   YY=           -143.3317   ZZ=           -120.3155
   XY=             22.6873   XZ=              2.6032   YZ=              7.5897

 Normal termination of Gaussian 09 at Tue Jan 17 09:00:23 2017.
