 Gaussian 09, Revision A.02,
 Gaussian 09:  EM64L-G09RevA.02 11-Jun-2009

 -------------------
 #SP MP2/aug-cc-pVDZ
 -------------------

 ------------------
 Phi Psi fixed scan
 ------------------
 Symbolic Z-matrix:
 Charge =  0 Multiplicity = 1

                         Standard orientation:
 ---------------------------------------------------------------------
 Center     Atomic      Atomic             Coordinates (Angstroms)
 Number     Number       Type             X           Y           Z
 ---------------------------------------------------------------------
      1          1           0        6.848411   -1.939688    1.578408
      2          6           0        6.749610   -1.281589    0.709408
      3          1           0        6.615111   -1.892589   -0.188392
      4          1           0        7.683708   -0.718286    0.620108
      5          6           0        5.608607   -0.305391    0.960608
      6          8           0        5.601605    0.453009    1.926808
      7          7           0        4.606307   -0.328094    0.039508
      8          1           0        4.575109   -1.009494   -0.710292
      9          6           0        3.414305    0.486003    0.173108
     10          1           0        3.112205    0.487202    1.227608
     11          6           0        3.658502    1.943504   -0.265592
     12          1           0        3.949002    1.982105   -1.320792
     13          1           0        2.763700    2.560802   -0.126992
     14          1           0        4.464601    2.361606    0.342408
     15          6           0        2.320107   -0.183599   -0.679892
     16          8           0        2.603009   -1.034799   -1.524692
     17          7           0        1.063406    0.254897   -0.429992
     18          1           0        0.918104    1.056797    0.175608
     19          6           0       -0.135593   -0.145906   -1.161092
     20          1           0       -0.069994    0.216895   -2.198992
     21          6           0       -0.331889   -1.668506   -1.187092
     22          1           0       -0.511088   -2.059306   -0.179992
     23          1           0       -1.175389   -1.942408   -1.830792
     24          1           0        0.564412   -2.138604   -1.592392
     25          6           0       -1.285695    0.635292   -0.482892
     26          8           0       -1.068098    1.730092    0.042608
     27          7           0       -2.506494    0.060389   -0.485892
     28          1           0       -2.672691   -0.876512   -0.836492
     29          6           0       -3.659495    0.691686    0.131908
     30          1           0       -3.343596    1.117887    1.092108
     31          6           0       -4.239798    1.819384   -0.742792
     32          1           0       -4.577997    1.421084   -1.704792
     33          1           0       -5.089199    2.306182   -0.250792
     34          1           0       -3.465600    2.570586   -0.917792
     35          6           0       -4.691692   -0.426017    0.364008
     36          8           0       -4.603990   -1.503317   -0.221192
     37          7           0       -5.694293   -0.114719    1.224908
     38          1           0       -5.670995    0.783981    1.686008
     39          6           0       -6.786791   -1.024722    1.531008
     40          1           0       -6.636089   -1.928422    0.939908
     41          1           0       -6.792290   -1.288522    2.594608
     42          1           0       -7.753192   -0.579324    1.269508
 ---------------------------------------------------------------------

 SCF Done:  E(RHF) =  -984.697303464     A.U. after   15 cycles
 E2 =    -0.3193125880D+01 EUMP2 =    -0.98789042934359D+03

 The electronic state is 1-A.
 Alpha  occ. eigenvalues --  -20.55417 -20.54776 -20.54146 -20.51828 -15.61698
 Alpha  occ. eigenvalues --  -15.60671 -15.59842 -15.58300 -11.38231 -11.37747
 Alpha  occ. eigenvalues --  -11.36836 -11.35283 -11.30837 -11.30464 -11.28785
 Alpha  occ. eigenvalues --  -11.28432 -11.24878 -11.23811 -11.23574 -11.23006
 Alpha  occ. eigenvalues --   -1.41095  -1.40216  -1.39319  -1.37154  -1.25564
 Alpha  occ. eigenvalues --   -1.25437  -1.24584  -1.22933  -1.07898  -1.05203
 Alpha  occ. eigenvalues --   -1.02359  -0.98047  -0.97323  -0.92250  -0.90419
 Alpha  occ. eigenvalues --   -0.87357  -0.82116  -0.80220  -0.78828  -0.77715
 Alpha  occ. eigenvalues --   -0.75877  -0.71961  -0.68834  -0.68146  -0.67150
 Alpha  occ. eigenvalues --   -0.66101  -0.65582  -0.64776  -0.64311  -0.62454
 Alpha  occ. eigenvalues --   -0.61794  -0.60703  -0.60623  -0.59605  -0.58756
 Alpha  occ. eigenvalues --   -0.57536  -0.57053  -0.56506  -0.56215  -0.55936
 Alpha  occ. eigenvalues --   -0.55249  -0.54897  -0.54183  -0.53700  -0.53161
 Alpha  occ. eigenvalues --   -0.52144  -0.51841  -0.50754  -0.48722  -0.44854
 Alpha  occ. eigenvalues --   -0.44241  -0.42836  -0.41934  -0.41460  -0.40663
 Alpha  occ. eigenvalues --   -0.40038  -0.38191
 Alpha virt. eigenvalues --    0.02251   0.03628   0.03784   0.03865   0.04315
 Alpha virt. eigenvalues --    0.04788   0.05201   0.05684   0.06044   0.06166
 Alpha virt. eigenvalues --    0.06630   0.06745   0.06986   0.07302   0.07768

 Mulliken atomic charges:
              1
     1  H    0.043752
     2  C    0.362289
     3  H   -0.167803
     4  H    0.043807
     5  C    0.472427
     6  O   -0.871514
     7  N   -0.131243
     8  H   -0.085685
     9  C   -0.080652
    10  H   -0.163870
    11  C    0.858391
    12  H   -0.041161
    13  H   -0.075280
    14  H   -0.086917
    15  C    0.649584
    16  O   -0.904093
    17  N   -0.237246
    18  H   -0.080623
    19  C    0.076370
    20  H   -0.080918
    21  C    0.703666
    22  H   -0.014414
    23  H    0.038586
    24  H   -0.153696
    25  C    0.825655
    26  O   -0.945346
    27  N   -0.249133
    28  H   -0.078512
    29  C   -0.320638
    30  H   -0.174009
    31  C    0.889030
    32  H   -0.044976
    33  H   -0.107177
    34  H   -0.053191
    35  C    1.296785
    36  O   -0.900701
    37  N   -0.481030
    38  H   -0.121028
    39  C    0.713334
    40  H   -0.143513
    41  H   -0.081534
    42  H   -0.097769
 Sum of Mulliken atomic charges =   0.00000

 Dipole moment (field-independent basis, Debye):
    X=             -6.2625    Y=              0.2026    Z=             -0.1284  Tot=              6.2671
 Quadrupole moment (field-independent basis, Debye-Ang):
   XX=           -101.8199   YY=           -127.1581   ZZ=           -126.8577
   XY=            -16.8103   XZ=            -23.4626   YZ=             -5.8821

 Normal termination of Gaussian 09 at Tue Jan 17 03:40:44 2017.
