 Gaussian 09, Revision A.02,
 Gaussian 09:  EM64L-G09RevA.02 11-Jun-2009

 -------------------
 #SP MP2/aug-cc-pVDZ
 -------------------

 ------------------
 Phi Psi fixed scan
 ------------------
 Symbolic Z-matrix:
 Charge =  0 Multiplicity = 1

                         Standard orientation:
 ---------------------------------------------------------------------
 Center     Atomic      Atomic             Coordinates (Angstroms)
 Number     Number       Type             X           Y           Z
 ---------------------------------------------------------------------
      1          1           0        7.178996   -1.440897    1.514801
      2          6           0        6.939395   -1.041398    0.524301
      3          1           0        6.715397   -1.872298   -0.151799
      4          1           0        7.828895   -0.517096    0.161301
      5          6           0        5.800694   -0.040399    0.661901
      6          8           0        5.886693    0.946601    1.388201
      7          7           0        4.690495   -0.310600   -0.078099
      8          1           0        4.587796   -1.167601   -0.609699
      9          6           0        3.493294    0.503298   -0.000299
     10          1           0        3.326593    0.774498    1.049901
     11          6           0        3.620992    1.800998   -0.821999
     12          1           0        3.777392    1.569698   -1.880999
     13          1           0        2.723191    2.421897   -0.729499
     14          1           0        4.477191    2.369099   -0.450099
     15          6           0        2.328395   -0.370804   -0.499899
     16          8           0        2.531896   -1.423403   -1.108599
     17          7           0        1.095594    0.126295   -0.251499
     18          1           0        0.967793    0.992495    0.264301
     19          6           0       -0.150305   -0.533807   -0.606099
     20          1           0       -0.215305   -0.633207   -1.698599
     21          6           0       -0.277703   -1.933107    0.028201
     22          1           0       -0.284303   -1.858307    1.120801
     23          1           0       -1.198703   -2.432408   -0.290699
     24          1           0        0.570897   -2.544606   -0.281799
     25          6           0       -1.272706    0.410292   -0.123799
     26          8           0       -1.018408    1.472992    0.447501
     27          7           0       -2.534806   -0.011810   -0.354499
     28          1           0       -2.741605   -0.914810   -0.769099
     29          6           0       -3.701007    0.722689    0.102601
     30          1           0       -3.498307    1.094989    1.114501
     31          6           0       -4.025708    1.921388   -0.809399
     32          1           0       -4.248008    1.579888   -1.825499
     33          1           0       -4.889109    2.482787   -0.435299
     34          1           0       -3.163609    2.592289   -0.837999
     35          6           0       -4.861305   -0.288813    0.137801
     36          8           0       -4.786104   -1.362313   -0.456299
     37          7           0       -5.952806    0.109886    0.839701
     38          1           0       -5.917107    0.997386    1.321201
     39          6           0       -7.161705   -0.691416    0.948401
     40          1           0       -7.001704   -1.605615    0.376101
     41          1           0       -7.366205   -0.952816    1.992701
     42          1           0       -8.026106   -0.156317    0.539501
 ---------------------------------------------------------------------

 SCF Done:  E(RHF) =  -984.700368403     A.U. after   14 cycles
 E2 =    -0.3192305827D+01 EUMP2 =    -0.98789267423009D+03

 The electronic state is 1-A.
 Alpha  occ. eigenvalues --  -20.55475 -20.55121 -20.53979 -20.51769 -15.61752
 Alpha  occ. eigenvalues --  -15.60570 -15.59572 -15.58231 -11.38287 -11.37824
 Alpha  occ. eigenvalues --  -11.36677 -11.35225 -11.30916 -11.30324 -11.28718
 Alpha  occ. eigenvalues --  -11.28481 -11.24913 -11.23765 -11.23725 -11.22897
 Alpha  occ. eigenvalues --   -1.41182  -1.40355  -1.39215  -1.37090  -1.25610
 Alpha  occ. eigenvalues --   -1.25485  -1.24497  -1.22867  -1.07894  -1.05190
 Alpha  occ. eigenvalues --   -1.02310  -0.97990  -0.97369  -0.92235  -0.90352
 Alpha  occ. eigenvalues --   -0.87187  -0.82214  -0.80212  -0.78935  -0.77777
 Alpha  occ. eigenvalues --   -0.75957  -0.71702  -0.69103  -0.68025  -0.66931
 Alpha  occ. eigenvalues --   -0.65911  -0.65733  -0.64639  -0.64272  -0.62265
 Alpha  occ. eigenvalues --   -0.61731  -0.61039  -0.60644  -0.59625  -0.59207
 Alpha  occ. eigenvalues --   -0.57675  -0.57209  -0.56565  -0.56010  -0.55864
 Alpha  occ. eigenvalues --   -0.55335  -0.54799  -0.54175  -0.53606  -0.53007
 Alpha  occ. eigenvalues --   -0.52051  -0.51725  -0.50754  -0.48623  -0.44873
 Alpha  occ. eigenvalues --   -0.44261  -0.42940  -0.42105  -0.41406  -0.40950
 Alpha  occ. eigenvalues --   -0.39730  -0.38050
 Alpha virt. eigenvalues --    0.02207   0.03629   0.03798   0.03817   0.04353
 Alpha virt. eigenvalues --    0.04800   0.05170   0.05747   0.05975   0.06175
 Alpha virt. eigenvalues --    0.06636   0.06717   0.07234   0.07336   0.07645

 Mulliken atomic charges:
              1
     1  H    0.043335
     2  C    0.372055
     3  H   -0.165131
     4  H    0.043556
     5  C    0.483304
     6  O   -0.871245
     7  N   -0.133960
     8  H   -0.090506
     9  C   -0.064822
    10  H   -0.138969
    11  C    0.854741
    12  H   -0.042600
    13  H   -0.064167
    14  H   -0.086966
    15  C    0.660279
    16  O   -0.912696
    17  N   -0.138532
    18  H   -0.098972
    19  C    0.039522
    20  H   -0.200698
    21  C    0.775084
    22  H   -0.012612
    23  H   -0.115215
    24  H   -0.065769
    25  C    0.738910
    26  O   -0.905914
    27  N   -0.168918
    28  H   -0.091628
    29  C   -0.290604
    30  H   -0.175277
    31  C    0.882297
    32  H   -0.041072
    33  H   -0.099414
    34  H   -0.055049
    35  C    1.240027
    36  O   -0.901103
    37  N   -0.467538
    38  H   -0.120831
    39  C    0.713678
    40  H   -0.144100
    41  H   -0.084315
    42  H   -0.098164
 Sum of Mulliken atomic charges =   0.00000

 Dipole moment (field-independent basis, Debye):
    X=             -6.7360    Y=              0.0852    Z=              0.0023  Tot=              6.7365
 Quadrupole moment (field-independent basis, Debye-Ang):
   XX=           -102.4613   YY=           -128.3962   ZZ=           -125.0526
   XY=            -22.2286   XZ=            -20.0169   YZ=             -7.8500

 Normal termination of Gaussian 09 at Tue Jan 17 01:59:08 2017.
