 Gaussian 09, Revision A.02,
 Gaussian 09:  EM64L-G09RevA.02 11-Jun-2009

 -------------------
 #SP MP2/aug-cc-pVDZ
 -------------------

 ------------------
 Phi Psi fixed scan
 ------------------
 Symbolic Z-matrix:
 Charge =  0 Multiplicity = 1

                         Standard orientation:
 ---------------------------------------------------------------------
 Center     Atomic      Atomic             Coordinates (Angstroms)
 Number     Number       Type             X           Y           Z
 ---------------------------------------------------------------------
      1          1           0       -6.853996   -0.452614    1.324501
      2          6           0       -6.438395   -0.749713    0.356601
      3          1           0       -6.596697    0.058287   -0.364099
      4          1           0       -6.988894   -1.635514    0.024501
      5          6           0       -4.975395   -1.123210    0.544701
      6          8           0       -4.622293   -2.008710    1.318701
      7          7           0       -4.086796   -0.416009   -0.208999
      8          1           0       -4.368097    0.384291   -0.763399
      9          6           0       -2.655496   -0.601306   -0.076299
     10          1           0       -2.428895   -0.748705    0.988501
     11          6           0       -2.153793   -1.836305   -0.850999
     12          1           0       -2.355493   -1.723905   -1.921299
     13          1           0       -1.077693   -1.986903   -0.714099
     14          1           0       -2.680192   -2.718506   -0.478899
     15          6           0       -1.985898    0.691596   -0.571299
     16          8           0       -2.614500    1.554894   -1.174499
     17          7           0       -0.629898    0.759198   -0.362699
     18          1           0       -0.309797    0.168799    0.398401
     19          6           0        0.089499    2.039300   -0.473299
     20          1           0       -0.015101    2.377899   -1.509399
     21          6           0       -0.464003    3.131498    0.458901
     22          1           0       -0.397602    2.813899    1.506401
     23          1           0        0.128195    4.040900    0.337701
     24          1           0       -1.507303    3.337896    0.213701
     25          6           0        1.595300    1.874202   -0.198999
     26          8           0        2.327598    2.857504   -0.177099
     27          7           0        2.040602    0.616803    0.097001
     28          1           0        1.541904   -0.200998   -0.245799
     29          6           0        3.460603    0.363606    0.288301
     30          1           0        4.029401    1.010907   -0.392999
     31          6           0        3.895702    0.674007    1.731501
     32          1           0        3.363103    0.033206    2.441501
     33          1           0        4.972602    0.526009    1.870101
     34          1           0        3.666200    1.719306    1.952601
     35          6           0        3.693005   -1.110294   -0.096499
     36          8           0        2.752007   -1.853395   -0.371999
     37          7           0        4.989606   -1.510591   -0.103199
     38          1           0        5.704405   -0.830190    0.112101
     39          6           0        5.399109   -2.866190   -0.434699
     40          1           0        4.495510   -3.441692   -0.636699
     41          1           0        6.038209   -2.876889   -1.324899
     42          1           0        5.941710   -3.326789    0.398501
 ---------------------------------------------------------------------

 SCF Done:  E(RHF) =  -984.691875303     A.U. after   15 cycles
 E2 =    -0.3194204716D+01 EUMP2 =    -0.98788608001864D+03

 The electronic state is 1-A.
 Alpha  occ. eigenvalues --  -20.55528 -20.55461 -20.54223 -20.52396 -15.61600
 Alpha  occ. eigenvalues --  -15.60957 -15.60162 -15.58911 -11.38212 -11.37731
 Alpha  occ. eigenvalues --  -11.37237 -11.35822 -11.30512 -11.29959 -11.29603
 Alpha  occ. eigenvalues --  -11.28362 -11.24847 -11.24231 -11.23402 -11.22965
 Alpha  occ. eigenvalues --   -1.41040  -1.40791  -1.39539  -1.37770  -1.26258
 Alpha  occ. eigenvalues --   -1.25459  -1.23957  -1.23529  -1.07372  -1.05302
 Alpha  occ. eigenvalues --   -1.02725  -0.98512  -0.97214  -0.92143  -0.89954
 Alpha  occ. eigenvalues --   -0.87103  -0.81658  -0.80699  -0.78881  -0.78222
 Alpha  occ. eigenvalues --   -0.76176  -0.71649  -0.69061  -0.68237  -0.67499
 Alpha  occ. eigenvalues --   -0.66078  -0.65805  -0.64263  -0.63624  -0.62969
 Alpha  occ. eigenvalues --   -0.62006  -0.61224  -0.60473  -0.60264  -0.58478
 Alpha  occ. eigenvalues --   -0.58084  -0.56958  -0.56852  -0.56424  -0.55968
 Alpha  occ. eigenvalues --   -0.55535  -0.54761  -0.54284  -0.53335  -0.52848
 Alpha  occ. eigenvalues --   -0.52304  -0.51613  -0.50345  -0.49119  -0.44748
 Alpha  occ. eigenvalues --   -0.44574  -0.43610  -0.42045  -0.41971  -0.41347
 Alpha  occ. eigenvalues --   -0.40270  -0.38875
 Alpha virt. eigenvalues --    0.02311   0.03576   0.03772   0.03969   0.04426
 Alpha virt. eigenvalues --    0.04798   0.05174   0.05840   0.06205   0.06259
 Alpha virt. eigenvalues --    0.06430   0.06719   0.07179   0.07789   0.07901

 Mulliken atomic charges:
              1
     1  H    0.044284
     2  C    0.371875
     3  H   -0.163388
     4  H    0.047189
     5  C    0.515737
     6  O   -0.869248
     7  N   -0.179249
     8  H   -0.088912
     9  C    0.026910
    10  H   -0.165769
    11  C    0.901612
    12  H   -0.045268
    13  H   -0.141304
    14  H   -0.083033
    15  C    0.581300
    16  O   -0.892743
    17  N    0.003975
    18  H    0.002782
    19  C   -0.384556
    20  H   -0.174140
    21  C    0.767687
    22  H   -0.045607
    23  H   -0.050150
    24  H   -0.031827
    25  C    0.873896
    26  O   -0.898120
    27  N   -0.167240
    28  H    0.000153
    29  C   -0.273198
    30  H   -0.180826
    31  C    0.875361
    32  H   -0.047809
    33  H   -0.130878
    34  H   -0.054086
    35  C    1.132051
    36  O   -0.869691
    37  N   -0.468382
    38  H   -0.118424
    39  C    0.717882
    40  H   -0.145089
    41  H   -0.093641
    42  H   -0.100116
 Sum of Mulliken atomic charges =   0.00000

 Dipole moment (field-independent basis, Debye):
    X=              4.6247    Y=             -0.7218    Z=              0.1199  Tot=              4.6822
 Quadrupole moment (field-independent basis, Debye-Ang):
   XX=            -88.9322   YY=           -141.0559   ZZ=           -125.6606
   XY=            -19.2584   XZ=              8.4760   YZ=              8.6563

 Normal termination of Gaussian 09 at Mon Jan 16 21:01:43 2017.
