 Gaussian 09, Revision A.02,
 Gaussian 09:  EM64L-G09RevA.02 11-Jun-2009

 -------------------
 #SP MP2/aug-cc-pVDZ
 -------------------

 ------------------
 Phi Psi fixed scan
 ------------------
 Symbolic Z-matrix:
 Charge =  0 Multiplicity = 1

                         Standard orientation:
 ---------------------------------------------------------------------
 Center     Atomic      Atomic             Coordinates (Angstroms)
 Number     Number       Type             X           Y           Z
 ---------------------------------------------------------------------
      1          1           0        7.388204    1.401507    0.191203
      2          6           0        6.436403    1.629905    0.680903
      3          1           0        6.413201    2.709605    0.858903
      4          1           0        6.396704    1.108205    1.642003
      5          6           0        5.298604    1.264004   -0.261497
      6          8           0        5.190503    1.765503   -1.377597
      7          7           0        4.416905    0.341702    0.214103
      8          1           0        4.465506   -0.018098    1.160303
      9          6           0        3.244106   -0.061800   -0.535897
     10          1           0        2.816104    0.828499   -1.012697
     11          6           0        3.587308   -1.087499   -1.635097
     12          1           0        4.006209   -1.997399   -1.192497
     13          1           0        2.703708   -1.361501   -2.223197
     14          1           0        4.325507   -0.644698   -2.308197
     15          6           0        2.241907   -0.642502    0.479503
     16          8           0        2.602207   -0.981701    1.605803
     17          7           0        0.967507   -0.742504    0.017003
     18          1           0        0.819507   -0.638904   -0.980597
     19          6           0       -0.133792   -1.423305    0.712303
     20          1           0        0.068810   -2.503505    0.746303
     21          6           0       -0.335993   -0.907806    2.140503
     22          1           0       -0.523294    0.171794    2.148403
     23          1           0       -1.181292   -1.422307    2.611303
     24          1           0        0.560008   -1.097404    2.730803
     25          6           0       -1.342992   -1.242907   -0.233397
     26          8           0       -1.256191   -1.623107   -1.402997
     27          7           0       -2.422393   -0.588309    0.245103
     28          1           0       -2.473294   -0.230809    1.192603
     29          6           0       -3.580694   -0.298011   -0.581097
     30          1           0       -3.223894    0.053489   -1.557197
     31          6           0       -4.466592   -1.540213   -0.797197
     32          1           0       -4.848391   -1.907913    0.160803
     33          1           0       -5.319592   -1.310514   -1.445497
     34          1           0       -3.871990   -2.324512   -1.271797
     35          6           0       -4.354596    0.820888    0.137103
     36          8           0       -4.172396    1.053788    1.330003
     37          7           0       -5.252897    1.486886   -0.633097
     38          1           0       -5.314296    1.251086   -1.613697
     39          6           0       -6.111698    2.540685   -0.116397
     40          1           0       -5.892599    2.649785    0.946203
     41          1           0       -5.914200    3.491985   -0.623097
     42          1           0       -7.169298    2.282683   -0.242197
 ---------------------------------------------------------------------

 SCF Done:  E(RHF) =  -984.693956940     A.U. after   14 cycles
 E2 =    -0.3193437732D+01 EUMP2 =    -0.98788739467219D+03

 The electronic state is 1-A.
 Alpha  occ. eigenvalues --  -20.55292 -20.54568 -20.54359 -20.52026 -15.61607
 Alpha  occ. eigenvalues --  -15.60624 -15.60448 -15.58545 -11.38116 -11.37445
 Alpha  occ. eigenvalues --  -11.37184 -11.35487 -11.30727 -11.30346 -11.29063
 Alpha  occ. eigenvalues --  -11.28343 -11.24767 -11.23972 -11.23443 -11.23274
 Alpha  occ. eigenvalues --   -1.40924  -1.40108  -1.39466  -1.37370  -1.25448
 Alpha  occ. eigenvalues --   -1.25318  -1.24796  -1.23162  -1.07854  -1.05253
 Alpha  occ. eigenvalues --   -1.02481  -0.98249  -0.97240  -0.92215  -0.90388
 Alpha  occ. eigenvalues --   -0.87517  -0.81862  -0.80019  -0.79114  -0.77924
 Alpha  occ. eigenvalues --   -0.75750  -0.72232  -0.68863  -0.68036  -0.67154
 Alpha  occ. eigenvalues --   -0.66196  -0.65334  -0.64792  -0.64407  -0.62577
 Alpha  occ. eigenvalues --   -0.61926  -0.60724  -0.60585  -0.59731  -0.58588
 Alpha  occ. eigenvalues --   -0.57652  -0.56951  -0.56336  -0.56178  -0.55975
 Alpha  occ. eigenvalues --   -0.55001  -0.54834  -0.54097  -0.54022  -0.53494
 Alpha  occ. eigenvalues --   -0.52193  -0.52058  -0.50884  -0.48946  -0.44745
 Alpha  occ. eigenvalues --   -0.44183  -0.42918  -0.41699  -0.41664  -0.40669
 Alpha  occ. eigenvalues --   -0.40115  -0.38477
 Alpha virt. eigenvalues --    0.02304   0.03658   0.03745   0.03900   0.04316
 Alpha virt. eigenvalues --    0.04826   0.05170   0.05652   0.06094   0.06142
 Alpha virt. eigenvalues --    0.06756   0.06777   0.06898   0.07259   0.07968

 Mulliken atomic charges:
              1
     1  H    0.044320
     2  C    0.357434
     3  H    0.044129
     4  H   -0.168199
     5  C    0.465041
     6  O   -0.873601
     7  N   -0.122271
     8  H   -0.085383
     9  C   -0.084744
    10  H   -0.175805
    11  C    0.851640
    12  H   -0.039813
    13  H   -0.081346
    14  H   -0.084149
    15  C    0.700223
    16  O   -0.903152
    17  N   -0.349777
    18  H   -0.083341
    19  C    0.160362
    20  H   -0.095552
    21  C    0.761179
    22  H    0.080669
    23  H    0.018722
    24  H   -0.202281
    25  C    0.935273
    26  O   -0.971714
    27  N   -0.363342
    28  H   -0.071609
    29  C   -0.343448
    30  H   -0.158314
    31  C    0.844140
    32  H   -0.033696
    33  H   -0.102889
    34  H   -0.046776
    35  C    1.286328
    36  O   -0.900283
    37  N   -0.474205
    38  H   -0.122894
    39  C    0.718813
    40  H   -0.144232
    41  H   -0.086550
    42  H   -0.098907
 Sum of Mulliken atomic charges =   0.00000

 Dipole moment (field-independent basis, Debye):
    X=             -5.3936    Y=              0.0351    Z=             -0.1047  Tot=              5.3947
 Quadrupole moment (field-independent basis, Debye-Ang):
   XX=           -100.2812   YY=           -124.8125   ZZ=           -130.8193
   XY=            -11.8766   XZ=             23.1789   YZ=             -0.1853

 Normal termination of Gaussian 09 at Tue Jan 17 05:22:30 2017.
