 Gaussian 09, Revision A.02,
 Gaussian 09:  EM64L-G09RevA.02 11-Jun-2009

 -------------------
 #SP MP2/aug-cc-pVDZ
 -------------------

 ------------------
 Phi Psi fixed scan
 ------------------
 Symbolic Z-matrix:
 Charge =  0 Multiplicity = 1

                         Standard orientation:
 ---------------------------------------------------------------------
 Center     Atomic      Atomic             Coordinates (Angstroms)
 Number     Number       Type             X           Y           Z
 ---------------------------------------------------------------------
      1          1           0        7.680096    0.043700   -0.923894
      2          6           0        6.975796   -0.549901   -0.332594
      3          1           0        7.485496   -0.831201    0.594106
      4          1           0        6.719597   -1.456301   -0.889694
      5          6           0        5.772796    0.315699    0.013806
      6          8           0        5.882695    1.356999    0.655606
      7          7           0        4.572496   -0.137602   -0.443494
      8          1           0        4.470097   -1.040502   -0.892394
      9          6           0        3.326796    0.533398   -0.128994
     10          1           0        3.365596    0.858698    0.919206
     11          6           0        3.096495    1.775397   -1.012294
     12          1           0        3.043095    1.489097   -2.067894
     13          1           0        2.166495    2.287497   -0.742994
     14          1           0        3.930995    2.466498   -0.870794
     15          6           0        2.204096   -0.503603   -0.306194
     16          8           0        2.399997   -1.575603   -0.875994
     17          7           0        0.979396   -0.113203    0.145206
     18          1           0        0.944496    0.651797    0.811206
     19          6           0       -0.146303   -1.047704    0.257906
     20          1           0       -0.362203   -1.431704   -0.744494
     21          6           0        0.133597   -2.220504    1.211106
     22          1           0        0.309697   -1.842504    2.222506
     23          1           0       -0.727003   -2.898804    1.239406
     24          1           0        1.006397   -2.778803    0.867406
     25          6           0       -1.316704   -0.212604    0.797206
     26          8           0       -1.207704    0.396796    1.862006
     27          7           0       -2.417204   -0.148505    0.014206
     28          1           0       -2.510304   -0.696105   -0.835694
     29          6           0       -3.621804    0.553894    0.420906
     30          1           0       -3.785304    0.366094    1.489406
     31          6           0       -3.500205    2.074095    0.200306
     32          1           0       -3.349405    2.295595   -0.861094
     33          1           0       -4.399905    2.598994    0.540206
     34          1           0       -2.645805    2.448495    0.769406
     35          6           0       -4.777004   -0.045006   -0.401294
     36          8           0       -4.560204   -0.721506   -1.404094
     37          7           0       -6.021804    0.254393    0.051406
     38          1           0       -6.107904    0.794693    0.900806
     39          6           0       -7.235504   -0.183407   -0.619494
     40          1           0       -6.936304   -0.740807   -1.507494
     41          1           0       -7.830304   -0.835607    0.030006
     42          1           0       -7.848404    0.673593   -0.920994
 ---------------------------------------------------------------------

 SCF Done:  E(RHF) =  -984.698588693     A.U. after   16 cycles
 E2 =    -0.3192101156D+01 EUMP2 =    -0.98789068984903D+03

 The electronic state is 1-A.
 Alpha  occ. eigenvalues --  -20.55347 -20.54790 -20.54492 -20.52090 -15.61626
 Alpha  occ. eigenvalues --  -15.60675 -15.60364 -15.58593 -11.38161 -11.37339
 Alpha  occ. eigenvalues --  -11.37195 -11.35534 -11.30751 -11.29975 -11.29215
 Alpha  occ. eigenvalues --  -11.28385 -11.24818 -11.24001 -11.23262 -11.23201
 Alpha  occ. eigenvalues --   -1.40965  -1.40254  -1.39562  -1.37447  -1.25469
 Alpha  occ. eigenvalues --   -1.25307  -1.24757  -1.23237  -1.07620  -1.05373
 Alpha  occ. eigenvalues --   -1.02531  -0.98280  -0.97270  -0.92306  -0.90119
 Alpha  occ. eigenvalues --   -0.87002  -0.81845  -0.79884  -0.79628  -0.78171
 Alpha  occ. eigenvalues --   -0.75868  -0.71646  -0.69130  -0.67979  -0.67292
 Alpha  occ. eigenvalues --   -0.65648  -0.65209  -0.64940  -0.63775  -0.62104
 Alpha  occ. eigenvalues --   -0.61980  -0.61299  -0.60637  -0.59976  -0.59624
 Alpha  occ. eigenvalues --   -0.58183  -0.57167  -0.56387  -0.56207  -0.55571
 Alpha  occ. eigenvalues --   -0.55132  -0.54529  -0.54297  -0.53490  -0.52935
 Alpha  occ. eigenvalues --   -0.52086  -0.51461  -0.51228  -0.48924  -0.44723
 Alpha  occ. eigenvalues --   -0.44107  -0.43562  -0.41810  -0.41725  -0.40790
 Alpha  occ. eigenvalues --   -0.40220  -0.38493
 Alpha virt. eigenvalues --    0.02279   0.03664   0.03753   0.03887   0.04332
 Alpha virt. eigenvalues --    0.04828   0.05046   0.05918   0.06036   0.06299
 Alpha virt. eigenvalues --    0.06495   0.06677   0.07112   0.07518   0.07624

 Mulliken atomic charges:
              1
     1  H    0.048101
     2  C    0.361933
     3  H    0.043338
     4  H   -0.165386
     5  C    0.533665
     6  O   -0.872289
     7  N   -0.144808
     8  H   -0.083874
     9  C   -0.029871
    10  H   -0.139367
    11  C    0.836834
    12  H   -0.038874
    13  H   -0.058529
    14  H   -0.091048
    15  C    0.800811
    16  O   -0.894374
    17  N   -0.072212
    18  H   -0.067138
    19  C   -0.254464
    20  H   -0.404804
    21  C    0.861426
    22  H   -0.003478
    23  H   -0.079725
    24  H   -0.039315
    25  C    0.764525
    26  O   -0.900062
    27  N   -0.208509
    28  H   -0.091154
    29  C   -0.155877
    30  H   -0.163832
    31  C    0.829341
    32  H   -0.043657
    33  H   -0.097158
    34  H   -0.064586
    35  C    1.176016
    36  O   -0.893806
    37  N   -0.461563
    38  H   -0.121914
    39  C    0.710697
    40  H   -0.143109
    41  H   -0.084160
    42  H   -0.097743
 Sum of Mulliken atomic charges =   0.00000

 Dipole moment (field-independent basis, Debye):
    X=             -6.2051    Y=             -0.0342    Z=             -0.0882  Tot=              6.2059
 Quadrupole moment (field-independent basis, Debye-Ang):
   XX=            -97.5548   YY=           -125.6520   ZZ=           -131.2492
   XY=            -20.7428   XZ=            -16.5226   YZ=             -7.1561

 Normal termination of Gaussian 09 at Mon Jan 16 22:43:40 2017.
