 Gaussian 09, Revision A.02,
 Gaussian 09:  EM64L-G09RevA.02 11-Jun-2009

 ----------------------------------------------------------------------
 # b3lyp/6-31G* Opt=(ModRedundant, maxcycles=1000, calcfc) geom=nocrowd
 ----------------------------------------------------------------------

 ------------------
 Phi Psi fixed scan
 ------------------
 Symbolic Z-matrix:
 Charge =  0 Multiplicity = 1

 SCF Done:  E(RB3LYP) =  -495.810262653     A.U. after   15 cycles

  Exact polarizability:   0.000   0.000   0.000   0.000   0.000   0.000
 Approx polarizability: 108.674   6.287 124.258  -6.059 -22.541 103.522

 SCF Done:  E(RB3LYP) =  -495.820412732     A.U. after   14 cycles
 SCF Done:  E(RB3LYP) =  -495.832910294     A.U. after   13 cycles
 SCF Done:  E(RB3LYP) =  -495.830165503     A.U. after   16 cycles
 SCF Done:  E(RB3LYP) =  -495.831184589     A.U. after   12 cycles
 SCF Done:  E(RB3LYP) =  -495.833191151     A.U. after   15 cycles
 SCF Done:  E(RB3LYP) =  -495.833793848     A.U. after   12 cycles
 SCF Done:  E(RB3LYP) =  -495.834307095     A.U. after   13 cycles
 SCF Done:  E(RB3LYP) =  -495.833353930     A.U. after   12 cycles
 SCF Done:  E(RB3LYP) =  -495.834317865     A.U. after   13 cycles
 SCF Done:  E(RB3LYP) =  -495.835263956     A.U. after   12 cycles
 SCF Done:  E(RB3LYP) =  -495.835268836     A.U. after   10 cycles
 SCF Done:  E(RB3LYP) =  -495.835274894     A.U. after   10 cycles
 SCF Done:  E(RB3LYP) =  -495.835285047     A.U. after   10 cycles
 SCF Done:  E(RB3LYP) =  -495.835292932     A.U. after   10 cycles
 SCF Done:  E(RB3LYP) =  -495.835297334     A.U. after   10 cycles
 SCF Done:  E(RB3LYP) =  -495.835298082     A.U. after    8 cycles
 SCF Done:  E(RB3LYP) =  -495.835298265     A.U. after    8 cycles
 SCF Done:  E(RB3LYP) =  -495.835298300     A.U. after    7 cycles
 SCF Done:  E(RB3LYP) =  -495.835298309     A.U. after    6 cycles
 Optimization completed.
    -- Stationary point found.

                         Standard orientation:
 ---------------------------------------------------------------------
 Center     Atomic      Atomic             Coordinates (Angstroms)
 Number     Number       Type             X           Y           Z
 ---------------------------------------------------------------------
      1          1           0       -3.839331   -0.987928   -0.716938
      2          6           0       -3.084760   -1.404729   -0.038938
      3          1           0       -2.675404   -2.312308   -0.495692
      4          1           0       -3.583189   -1.665189    0.896726
      5          6           0       -2.026693   -0.344495    0.255248
      6          8           0       -2.167431    0.475636    1.146686
      7          7           0       -0.913298   -0.420110   -0.559883
      8          1           0       -1.023884   -1.049777   -1.343761
      9          6           0        0.084025    0.652563   -0.779095
     10          1           0        0.335829    0.583054   -1.846145
     11          6           0       -0.397849    2.073943   -0.496850
     12          1           0       -0.577271    2.230347    0.564509
     13          1           0        0.373024    2.774585   -0.830199
     14          1           0       -1.321697    2.277111   -1.047197
     15          6           0        1.399470    0.341457   -0.015987
     16          8           0        1.895822    1.123340    0.780827
     17          7           0        2.007166   -0.830140   -0.388226
     18          1           0        1.435914   -1.510751   -0.870252
     19          6           0        3.180495   -1.327316    0.313368
     20          1           0        3.727937   -0.466058    0.697993
     21          1           0        2.917062   -1.976093    1.159581
     22          1           0        3.818677   -1.885593   -0.378448
 ---------------------------------------------------------------------

 The electronic state is 1-A.
 Alpha  occ. eigenvalues --  -19.11262 -19.11231 -14.36826 -14.36116 -10.29211
 Alpha  occ. eigenvalues --  -10.28266 -10.24162 -10.21770 -10.19664 -10.16899
 Alpha  occ. eigenvalues --   -1.03432  -1.02904  -0.93022  -0.91468  -0.77907
 Alpha  occ. eigenvalues --   -0.72856  -0.70913  -0.64189  -0.58943  -0.56499
 Alpha  occ. eigenvalues --   -0.52860  -0.50603  -0.46974  -0.46058  -0.44842
 Alpha  occ. eigenvalues --   -0.44400  -0.41943  -0.41240  -0.40208  -0.39303
 Alpha  occ. eigenvalues --   -0.38436  -0.37136  -0.36726  -0.35632  -0.35323
 Alpha  occ. eigenvalues --   -0.28050  -0.25319  -0.24681  -0.23698
 Alpha virt. eigenvalues --    0.01739   0.02312   0.04884   0.09805   0.11247
 Alpha virt. eigenvalues --    0.12052   0.13669   0.14704   0.15536   0.16579
 Alpha virt. eigenvalues --    0.16907   0.17551   0.18352   0.19324   0.19430

 Mulliken atomic charges:
              1
     1  H    0.180865
     2  C   -0.545863
     3  H    0.146860
     4  H    0.191976
     5  C    0.596035
     6  O   -0.484717
     7  N   -0.609942
     8  H    0.316271
     9  C   -0.070481
    10  H    0.151503
    11  C   -0.432047
    12  H    0.209143
    13  H    0.152543
    14  H    0.136130
    15  C    0.631193
    16  O   -0.502963
    17  N   -0.584702
    18  H    0.313648
    19  C   -0.308718
    20  H    0.201489
    21  H    0.159586
    22  H    0.152192
 Sum of Mulliken atomic charges =   0.00000

 Dipole moment (field-independent basis, Debye):
    X=             -0.2032    Y=             -4.3511    Z=             -4.5232  Tot=              6.2795
 Quadrupole moment (field-independent basis, Debye-Ang):
   XX=            -59.5036   YY=            -57.5194   ZZ=            -60.9227
   XY=             -1.5854   XZ=              2.9944   YZ=             -1.8560

 Normal termination of Gaussian 09 at Fri Feb 10 19:08:05 2017.
