 Gaussian 09, Revision A.02,
 Gaussian 09:  EM64L-G09RevA.02 11-Jun-2009

 ----------------------------------------------------------------------
 # b3lyp/6-31G* Opt=(ModRedundant, maxcycles=1000, calcfc) geom=nocrowd
 ----------------------------------------------------------------------

 ------------------
 Phi Psi fixed scan
 ------------------
 Symbolic Z-matrix:
 Charge =  0 Multiplicity = 1

 SCF Done:  E(RB3LYP) =  -495.816234613     A.U. after   15 cycles

  Exact polarizability:   0.000   0.000   0.000   0.000   0.000   0.000
 Approx polarizability: 119.334   1.820 103.079 -16.628   2.007 113.995

 SCF Done:  E(RB3LYP) =  -495.824597323     A.U. after   16 cycles
 SCF Done:  E(RB3LYP) =  -495.832980820     A.U. after   14 cycles
 SCF Done:  E(RB3LYP) =  -495.827044743     A.U. after   16 cycles
 SCF Done:  E(RB3LYP) =  -495.835670154     A.U. after   16 cycles
 SCF Done:  E(RB3LYP) =  -495.836253150     A.U. after   11 cycles
 SCF Done:  E(RB3LYP) =  -495.837000982     A.U. after   11 cycles
 SCF Done:  E(RB3LYP) =  -495.837720126     A.U. after   16 cycles
 SCF Done:  E(RB3LYP) =  -495.837706084     A.U. after   16 cycles
 SCF Done:  E(RB3LYP) =  -495.837759212     A.U. after   11 cycles
 SCF Done:  E(RB3LYP) =  -495.838097331     A.U. after   16 cycles
 SCF Done:  E(RB3LYP) =  -495.838170656     A.U. after   11 cycles
 SCF Done:  E(RB3LYP) =  -495.838226846     A.U. after   11 cycles
 SCF Done:  E(RB3LYP) =  -495.838246227     A.U. after   16 cycles
 SCF Done:  E(RB3LYP) =  -495.838263244     A.U. after   11 cycles
 SCF Done:  E(RB3LYP) =  -495.838283467     A.U. after   11 cycles
 SCF Done:  E(RB3LYP) =  -495.838302283     A.U. after   12 cycles
 SCF Done:  E(RB3LYP) =  -495.838310071     A.U. after   11 cycles
 SCF Done:  E(RB3LYP) =  -495.838310633     A.U. after    9 cycles
 SCF Done:  E(RB3LYP) =  -495.838310621     A.U. after    7 cycles
 Optimization completed.
    -- Stationary point found.

                         Standard orientation:
 ---------------------------------------------------------------------
 Center     Atomic      Atomic             Coordinates (Angstroms)
 Number     Number       Type             X           Y           Z
 ---------------------------------------------------------------------
      1          1           0       -4.121507   -1.121832   -0.017846
      2          6           0       -3.079295   -1.392283   -0.195695
      3          1           0       -2.984781   -1.845025   -1.188910
      4          1           0       -2.785820   -2.140106    0.550774
      5          6           0       -2.216898   -0.145608   -0.020348
      6          8           0       -2.569572    0.783222    0.689664
      7          7           0       -1.042796   -0.186044   -0.740046
      8          1           0       -0.850870   -1.074386   -1.184368
      9          6           0        0.139229    0.659792   -0.598477
     10          1           0        0.474830    0.903270   -1.618687
     11          6           0       -0.078724    1.983212    0.149024
     12          1           0       -0.343473    1.808356    1.191124
     13          1           0        0.853977    2.558196    0.104665
     14          1           0       -0.876721    2.567814   -0.311943
     15          6           0        1.256720   -0.148937    0.102200
     16          8           0        1.032499   -0.847496    1.080960
     17          7           0        2.491309   -0.023581   -0.471364
     18          1           0        2.596396    0.600765   -1.258549
     19          6           0        3.686098   -0.614772    0.106562
     20          1           0        3.362988   -1.274245    0.913223
     21          1           0        4.232153   -1.199158   -0.642259
     22          1           0        4.357041    0.149510    0.518057
 ---------------------------------------------------------------------

 The electronic state is 1-A.
 Alpha  occ. eigenvalues --  -19.11421 -19.10070 -14.37041 -14.35609 -10.28673
 Alpha  occ. eigenvalues --  -10.28190 -10.24191 -10.22361 -10.18404 -10.17902
 Alpha  occ. eigenvalues --   -1.03540  -1.01975  -0.92624  -0.91797  -0.78026
 Alpha  occ. eigenvalues --   -0.72396  -0.71011  -0.64619  -0.59224  -0.55977
 Alpha  occ. eigenvalues --   -0.53286  -0.50103  -0.47258  -0.45873  -0.44925
 Alpha  occ. eigenvalues --   -0.43585  -0.42144  -0.40517  -0.40120  -0.39469
 Alpha  occ. eigenvalues --   -0.38829  -0.37537  -0.36909  -0.35850  -0.34805
 Alpha  occ. eigenvalues --   -0.26505  -0.25755  -0.24066  -0.23532
 Alpha virt. eigenvalues --    0.01792   0.04018   0.05873   0.08664   0.11621
 Alpha virt. eigenvalues --    0.13745   0.14444   0.14694   0.15618   0.15929
 Alpha virt. eigenvalues --    0.16470   0.17436   0.18302   0.19041   0.19580

 Mulliken atomic charges:
              1
     1  H    0.184375
     2  C   -0.546720
     3  H    0.147619
     4  H    0.187475
     5  C    0.600026
     6  O   -0.501132
     7  N   -0.582884
     8  H    0.321568
     9  C   -0.030166
    10  H    0.126670
    11  C   -0.432166
    12  H    0.199321
    13  H    0.128300
    14  H    0.174471
    15  C    0.581273
    16  O   -0.508766
    17  N   -0.587974
    18  H    0.325281
    19  C   -0.311315
    20  H    0.206800
    21  H    0.157208
    22  H    0.160735
 Sum of Mulliken atomic charges =   0.00000

 Dipole moment (field-independent basis, Debye):
    X=              3.4849    Y=             -0.6384    Z=             -4.1176  Tot=              5.4320
 Quadrupole moment (field-independent basis, Debye-Ang):
   XX=            -54.7408   YY=            -58.7245   ZZ=            -61.0931
   XY=              7.7835   XZ=              0.0217   YZ=              0.6386

 Normal termination of Gaussian 09 at Fri Feb 10 18:51:43 2017.
