 Gaussian 09, Revision A.02,
 Gaussian 09:  EM64L-G09RevA.02 11-Jun-2009

 ----------------------------------------------------------------------
 # b3lyp/6-31G* Opt=(ModRedundant, maxcycles=1000, calcfc) geom=nocrowd
 ----------------------------------------------------------------------

 ------------------
 Phi Psi fixed scan
 ------------------
 Symbolic Z-matrix:
 Charge =  0 Multiplicity = 1

 SCF Done:  E(RB3LYP) =  -495.811165863     A.U. after   15 cycles

  Exact polarizability:   0.000   0.000   0.000   0.000   0.000   0.000
 Approx polarizability: 110.781   9.500 119.510  -8.692 -22.481 106.549

 SCF Done:  E(RB3LYP) =  -495.820684463     A.U. after   14 cycles
 SCF Done:  E(RB3LYP) =  -495.833408435     A.U. after   13 cycles
 SCF Done:  E(RB3LYP) =  -495.831717788     A.U. after   16 cycles
 SCF Done:  E(RB3LYP) =  -495.833504426     A.U. after   16 cycles
 SCF Done:  E(RB3LYP) =  -495.834093790     A.U. after   12 cycles
 SCF Done:  E(RB3LYP) =  -495.834860633     A.U. after   15 cycles
 SCF Done:  E(RB3LYP) =  -495.830731551     A.U. after   13 cycles
 SCF Done:  E(RB3LYP) =  -495.835161749     A.U. after   14 cycles
 SCF Done:  E(RB3LYP) =  -495.835160683     A.U. after   11 cycles
 SCF Done:  E(RB3LYP) =  -495.835653800     A.U. after   10 cycles
 SCF Done:  E(RB3LYP) =  -495.835657494     A.U. after   10 cycles
 SCF Done:  E(RB3LYP) =  -495.835658175     A.U. after    7 cycles
 SCF Done:  E(RB3LYP) =  -495.835658906     A.U. after    8 cycles
 SCF Done:  E(RB3LYP) =  -495.835660581     A.U. after    9 cycles
 SCF Done:  E(RB3LYP) =  -495.835666452     A.U. after   10 cycles
 SCF Done:  E(RB3LYP) =  -495.835677751     A.U. after   11 cycles
 SCF Done:  E(RB3LYP) =  -495.835679524     A.U. after   10 cycles
 SCF Done:  E(RB3LYP) =  -495.835679670     A.U. after    7 cycles
 SCF Done:  E(RB3LYP) =  -495.835679723     A.U. after    7 cycles
 Optimization completed.
    -- Stationary point found.

                         Standard orientation:
 ---------------------------------------------------------------------
 Center     Atomic      Atomic             Coordinates (Angstroms)
 Number     Number       Type             X           Y           Z
 ---------------------------------------------------------------------
      1          1           0       -3.826189   -1.596096    0.016815
      2          6           0       -2.749492   -1.740390    0.132821
      3          1           0       -2.395869   -2.439851   -0.632074
      4          1           0       -2.580140   -2.187367    1.119010
      5          6           0       -2.072750   -0.371656    0.088389
      6          8           0       -2.562317    0.595320    0.650328
      7          7           0       -0.899660   -0.356249   -0.631321
      8          1           0       -0.575202   -1.256937   -0.955279
      9          6           0        0.097187    0.721778   -0.747992
     10          1           0        0.407416    0.725694   -1.805011
     11          6           0       -0.398973    2.120520   -0.393677
     12          1           0       -0.608217    2.205233    0.670730
     13          1           0        0.387402    2.836800   -0.656376
     14          1           0       -1.304493    2.366172   -0.951569
     15          6           0        1.332653    0.337408    0.105937
     16          8           0        1.537695    0.793730    1.219957
     17          7           0        2.120096   -0.635139   -0.461345
     18          1           0        2.017613   -0.809580   -1.451910
     19          6           0        3.329563   -1.117675    0.186999
     20          1           0        3.241172   -0.898368    1.251642
     21          1           0        3.432007   -2.198087    0.043303
     22          1           0        4.229305   -0.620214   -0.197769
 ---------------------------------------------------------------------

 The electronic state is 1-A.
 Alpha  occ. eigenvalues --  -19.11794 -19.10306 -14.37129 -14.36357 -10.28870
 Alpha  occ. eigenvalues --  -10.28621 -10.24258 -10.22463 -10.19002 -10.16953
 Alpha  occ. eigenvalues --   -1.03775  -1.02331  -0.93104  -0.91812  -0.77918
 Alpha  occ. eigenvalues --   -0.72464  -0.71423  -0.64372  -0.59194  -0.56460
 Alpha  occ. eigenvalues --   -0.53426  -0.50351  -0.47501  -0.46350  -0.45103
 Alpha  occ. eigenvalues --   -0.43953  -0.42299  -0.40681  -0.39822  -0.39610
 Alpha  occ. eigenvalues --   -0.38087  -0.37118  -0.36909  -0.35894  -0.35199
 Alpha  occ. eigenvalues --   -0.27710  -0.26252  -0.23897  -0.23517
 Alpha virt. eigenvalues --    0.01110   0.04044   0.04844   0.08928   0.11645
 Alpha virt. eigenvalues --    0.12153   0.13871   0.14922   0.15618   0.15909
 Alpha virt. eigenvalues --    0.17270   0.17525   0.18545   0.18960   0.19270

 Mulliken atomic charges:
              1
     1  H    0.187315
     2  C   -0.539959
     3  H    0.140032
     4  H    0.185671
     5  C    0.598006
     6  O   -0.495959
     7  N   -0.594630
     8  H    0.315164
     9  C   -0.043584
    10  H    0.131542
    11  C   -0.428617
    12  H    0.204992
    13  H    0.137328
    14  H    0.158940
    15  C    0.607552
    16  O   -0.497974
    17  N   -0.596747
    18  H    0.318818
    19  C   -0.309740
    20  H    0.205858
    21  H    0.155188
    22  H    0.160802
 Sum of Mulliken atomic charges =   0.00000

 Dipole moment (field-independent basis, Debye):
    X=              2.5877    Y=             -3.8693    Z=             -4.2779  Tot=              6.3221
 Quadrupole moment (field-independent basis, Debye-Ang):
   XX=            -60.3572   YY=            -57.1047   ZZ=            -60.6855
   XY=              1.2680   XZ=             -2.1296   YZ=             -2.1273

 Normal termination of Gaussian 09 at Fri Feb 10 18:59:53 2017.
