 Gaussian 09, Revision A.02,
 Gaussian 09:  EM64L-G09RevA.02 11-Jun-2009

 ----------------------------------------------------------------------
 # b3lyp/6-31G* Opt=(ModRedundant, maxcycles=1000, calcfc) geom=nocrowd
 ----------------------------------------------------------------------

 ------------------
 Phi Psi fixed scan
 ------------------
 Symbolic Z-matrix:
 Charge =  0 Multiplicity = 1

 SCF Done:  E(RB3LYP) =  -495.816608946     A.U. after   14 cycles

  Exact polarizability:   0.000   0.000   0.000   0.000   0.000   0.000
 Approx polarizability: 116.739 -10.504 118.817  -6.780  -4.690  99.715

 SCF Done:  E(RB3LYP) =  -495.825847362     A.U. after   13 cycles
 SCF Done:  E(RB3LYP) =  -495.836986049     A.U. after   14 cycles
 SCF Done:  E(RB3LYP) =  -495.836419828     A.U. after   15 cycles
 SCF Done:  E(RB3LYP) =  -495.837329027     A.U. after   13 cycles
 SCF Done:  E(RB3LYP) =  -495.838112619     A.U. after   12 cycles
 SCF Done:  E(RB3LYP) =  -495.839056896     A.U. after   12 cycles
 SCF Done:  E(RB3LYP) =  -495.839277845     A.U. after   13 cycles
 SCF Done:  E(RB3LYP) =  -495.840390031     A.U. after   12 cycles
 SCF Done:  E(RB3LYP) =  -495.840670753     A.U. after   12 cycles
 SCF Done:  E(RB3LYP) =  -495.840703324     A.U. after   12 cycles
 SCF Done:  E(RB3LYP) =  -495.840708643     A.U. after   10 cycles
 SCF Done:  E(RB3LYP) =  -495.840713540     A.U. after    9 cycles
 SCF Done:  E(RB3LYP) =  -495.840726336     A.U. after   10 cycles
 SCF Done:  E(RB3LYP) =  -495.840733615     A.U. after   10 cycles
 SCF Done:  E(RB3LYP) =  -495.840749400     A.U. after   11 cycles
 SCF Done:  E(RB3LYP) =  -495.840758459     A.U. after   11 cycles
 SCF Done:  E(RB3LYP) =  -495.840759141     A.U. after    9 cycles
 SCF Done:  E(RB3LYP) =  -495.840759170     A.U. after    6 cycles
 SCF Done:  E(RB3LYP) =  -495.840759179     A.U. after    6 cycles
 Optimization completed.
    -- Stationary point found.

                         Standard orientation:
 ---------------------------------------------------------------------
 Center     Atomic      Atomic             Coordinates (Angstroms)
 Number     Number       Type             X           Y           Z
 ---------------------------------------------------------------------
      1          1           0        4.106324   -0.959230   -0.457415
      2          6           0        3.129013   -1.257694   -0.075059
      3          1           0        3.238552   -1.667335    0.934773
      4          1           0        2.728238   -2.049018   -0.720353
      5          6           0        2.198772   -0.049304   -0.115942
      6          8           0        2.427184    0.915681   -0.831435
      7          7           0        1.123641   -0.161704    0.739837
      8          1           0        0.952854   -1.110374    1.053278
      9          6           0       -0.118785    0.605596    0.704067
     10          1           0       -0.400257    0.790372    1.752949
     11          6           0       -0.026000    1.975145    0.014562
     12          1           0        0.108589    1.886945   -1.063469
     13          1           0       -0.936917    2.551384    0.218854
     14          1           0        0.819260    2.541833    0.407402
     15          6           0       -1.235649   -0.315780    0.138652
     16          8           0       -1.019164   -1.498332   -0.105913
     17          7           0       -2.470331    0.250675    0.038210
     18          1           0       -2.562886    1.243352    0.195222
     19          6           0       -3.633368   -0.482352   -0.434345
     20          1           0       -3.353576   -1.534313   -0.498716
     21          1           0       -4.470003   -0.371148    0.264276
     22          1           0       -3.951411   -0.137724   -1.425958
 ---------------------------------------------------------------------

 The electronic state is 1-A.
 Alpha  occ. eigenvalues --  -19.11973 -19.10205 -14.37021 -14.34927 -10.29117
 Alpha  occ. eigenvalues --  -10.28093 -10.24239 -10.22407 -10.18727 -10.18161
 Alpha  occ. eigenvalues --   -1.04007  -1.01978  -0.92780  -0.91500  -0.78094
 Alpha  occ. eigenvalues --   -0.72397  -0.70827  -0.65225  -0.59446  -0.55094
 Alpha  occ. eigenvalues --   -0.53436  -0.50150  -0.47050  -0.45705  -0.44706
 Alpha  occ. eigenvalues --   -0.43960  -0.42614  -0.41070  -0.40169  -0.39679
 Alpha  occ. eigenvalues --   -0.38880  -0.38169  -0.37187  -0.35998  -0.34722
 Alpha  occ. eigenvalues --   -0.26211  -0.26079  -0.24887  -0.23404
 Alpha virt. eigenvalues --    0.02073   0.03457   0.06096   0.09861   0.11376
 Alpha virt. eigenvalues --    0.13362   0.14353   0.15036   0.15874   0.16046
 Alpha virt. eigenvalues --    0.16182   0.16791   0.18096   0.18862   0.19362

 Mulliken atomic charges:
              1
     1  H    0.182192
     2  C   -0.545738
     3  H    0.157603
     4  H    0.183731
     5  C    0.583349
     6  O   -0.504150
     7  N   -0.576327
     8  H    0.332833
     9  C   -0.052495
    10  H    0.161426
    11  C   -0.444444
    12  H    0.188532
    13  H    0.118316
    14  H    0.185503
    15  C    0.600233
    16  O   -0.524462
    17  N   -0.590926
    18  H    0.330127
    19  C   -0.311125
    20  H    0.205662
    21  H    0.157827
    22  H    0.162333
 Sum of Mulliken atomic charges =   0.00000

 Dipole moment (field-independent basis, Debye):
    X=             -3.3091    Y=              0.5661    Z=              1.9209  Tot=              3.8679
 Quadrupole moment (field-independent basis, Debye-Ang):
   XX=            -53.8965   YY=            -61.1586   ZZ=            -60.5036
   XY=             -9.9895   XZ=              3.6297   YZ=              1.1470

 Normal termination of Gaussian 09 at Fri Feb 10 18:43:05 2017.
