 Gaussian 09, Revision A.02,
 Gaussian 09:  EM64L-G09RevA.02 11-Jun-2009

 ----------------------------------------------------------------------
 # b3lyp/6-31G* Opt=(ModRedundant, maxcycles=1000, calcfc) geom=nocrowd
 ----------------------------------------------------------------------

 ------------------
 Phi Psi fixed scan
 ------------------
 Symbolic Z-matrix:
 Charge =  0 Multiplicity = 1

 SCF Done:  E(RB3LYP) =  -495.816610071     A.U. after   16 cycles

  Exact polarizability:   0.000   0.000   0.000   0.000   0.000   0.000
 Approx polarizability: 112.345  -8.885 122.520  -5.349  -7.407 102.325

 SCF Done:  E(RB3LYP) =  -495.827229858     A.U. after   16 cycles
 SCF Done:  E(RB3LYP) =  -495.837254340     A.U. after   14 cycles
 SCF Done:  E(RB3LYP) =  -495.829437041     A.U. after   14 cycles
 SCF Done:  E(RB3LYP) =  -495.840150848     A.U. after   14 cycles
 SCF Done:  E(RB3LYP) =  -495.841078916     A.U. after   12 cycles
 SCF Done:  E(RB3LYP) =  -495.842253822     A.U. after   12 cycles
 SCF Done:  E(RB3LYP) =  -495.842532396     A.U. after   11 cycles
 SCF Done:  E(RB3LYP) =  -495.770385474     A.U. after   15 cycles
 SCF Done:  E(RB3LYP) =  -495.842570622     A.U. after   13 cycles
 SCF Done:  E(RB3LYP) =  -495.843007046     A.U. after   12 cycles
 SCF Done:  E(RB3LYP) =  -495.843079156     A.U. after   12 cycles
 SCF Done:  E(RB3LYP) =  -495.843092518     A.U. after   11 cycles
 SCF Done:  E(RB3LYP) =  -495.843098998     A.U. after   10 cycles
 SCF Done:  E(RB3LYP) =  -495.843100384     A.U. after    9 cycles
 SCF Done:  E(RB3LYP) =  -495.843100638     A.U. after    8 cycles
 SCF Done:  E(RB3LYP) =  -495.843100779     A.U. after    8 cycles
 SCF Done:  E(RB3LYP) =  -495.843100862     A.U. after    7 cycles
 SCF Done:  E(RB3LYP) =  -495.843100890     A.U. after    6 cycles
 SCF Done:  E(RB3LYP) =  -495.843100913     A.U. after    6 cycles
 Optimization completed.
    -- Stationary point found.

                         Standard orientation:
 ---------------------------------------------------------------------
 Center     Atomic      Atomic             Coordinates (Angstroms)
 Number     Number       Type             X           Y           Z
 ---------------------------------------------------------------------
      1          1           0       -3.598604   -1.693574    0.372153
      2          6           0       -3.159474   -1.075023   -0.413022
      3          1           0       -3.923461   -0.362039   -0.745358
      4          1           0       -2.888964   -1.707494   -1.265543
      5          6           0       -1.978714   -0.307105    0.173258
      6          8           0       -1.956539    0.047837    1.341149
      7          7           0       -0.953672   -0.071810   -0.721807
      8          1           0       -1.140739   -0.360605   -1.672739
      9          6           0        0.123783    0.927546   -0.589804
     10          1           0        0.282935    1.313071   -1.604968
     11          6           0       -0.200217    2.132136    0.302767
     12          1           0       -0.364071    1.832678    1.337221
     13          1           0        0.646265    2.820260    0.250451
     14          1           0       -1.100404    2.640810   -0.056428
     15          6           0        1.496282    0.322893   -0.208970
     16          8           0        2.478485    1.051849   -0.123297
     17          7           0        1.530095   -1.026173   -0.048465
     18          1           0        0.643050   -1.509493   -0.049987
     19          6           0        2.732725   -1.730589    0.355232
     20          1           0        3.567105   -1.033274    0.265729
     21          1           0        2.669057   -2.075345    1.394960
     22          1           0        2.910985   -2.595748   -0.293162
 ---------------------------------------------------------------------

 The electronic state is 1-A.
 Alpha  occ. eigenvalues --  -19.11850 -19.10420 -14.37242 -14.35793 -10.29802
 Alpha  occ. eigenvalues --  -10.27976 -10.24142 -10.21542 -10.20110 -10.17238
 Alpha  occ. eigenvalues --   -1.03867  -1.02454  -0.93407  -0.91229  -0.78088
 Alpha  occ. eigenvalues --   -0.73210  -0.70867  -0.64604  -0.58675  -0.56884
 Alpha  occ. eigenvalues --   -0.53303  -0.50926  -0.47344  -0.45318  -0.45223
 Alpha  occ. eigenvalues --   -0.44231  -0.42032  -0.41420  -0.40643  -0.39659
 Alpha  occ. eigenvalues --   -0.38695  -0.38033  -0.36512  -0.35947  -0.34481
 Alpha  occ. eigenvalues --   -0.28170  -0.25313  -0.24939  -0.23579
 Alpha virt. eigenvalues --    0.01666   0.03085   0.05627   0.10033   0.11434
 Alpha virt. eigenvalues --    0.13168   0.13683   0.13943   0.16091   0.16424
 Alpha virt. eigenvalues --    0.16992   0.17727   0.18215   0.18854   0.19042

 Mulliken atomic charges:
              1
     1  H    0.190513
     2  C   -0.544310
     3  H    0.185616
     4  H    0.148152
     5  C    0.585433
     6  O   -0.487166
     7  N   -0.634857
     8  H    0.326913
     9  C   -0.036372
    10  H    0.166139
    11  C   -0.450055
    12  H    0.194659
    13  H    0.176817
    14  H    0.141149
    15  C    0.608941
    16  O   -0.526902
    17  N   -0.588624
    18  H    0.337739
    19  C   -0.310288
    20  H    0.202178
    21  H    0.161751
    22  H    0.152571
 Sum of Mulliken atomic charges =   0.00000

 Dipole moment (field-independent basis, Debye):
    X=             -2.1577    Y=             -3.0020    Z=             -3.2927  Tot=              4.9507
 Quadrupole moment (field-independent basis, Debye-Ang):
   XX=            -64.0097   YY=            -56.7983   ZZ=            -60.3263
   XY=             -4.9190   XZ=              7.3914   YZ=             -0.5946

 Normal termination of Gaussian 09 at Fri Feb 10 18:35:32 2017.
