 Gaussian 09, Revision A.02,
 Gaussian 09:  EM64L-G09RevA.02 11-Jun-2009

 ----------------------------------------------------------------------
 # b3lyp/6-31G* Opt=(ModRedundant, maxcycles=1000, calcfc) geom=nocrowd
 ----------------------------------------------------------------------

 ------------------
 Phi Psi fixed scan
 ------------------
 Symbolic Z-matrix:
 Charge =  0 Multiplicity = 1

 SCF Done:  E(RB3LYP) =  -495.816220696     A.U. after   15 cycles

  Exact polarizability:   0.000   0.000   0.000   0.000   0.000   0.000
 Approx polarizability: 108.446   7.189 101.480  11.113  14.962 126.362

 SCF Done:  E(RB3LYP) =  -495.827983019     A.U. after   14 cycles
 SCF Done:  E(RB3LYP) =  -495.840939878     A.U. after   16 cycles
 SCF Done:  E(RB3LYP) =  -495.839619448     A.U. after   15 cycles
 SCF Done:  E(RB3LYP) =  -495.841775557     A.U. after   15 cycles
 SCF Done:  E(RB3LYP) =  -495.842556130     A.U. after   12 cycles
 SCF Done:  E(RB3LYP) =  -495.843361255     A.U. after   14 cycles
 SCF Done:  E(RB3LYP) =  -495.840486605     A.U. after   12 cycles
 SCF Done:  E(RB3LYP) =  -495.843379525     A.U. after   12 cycles
 SCF Done:  E(RB3LYP) =  -495.843696184     A.U. after   12 cycles
 SCF Done:  E(RB3LYP) =  -495.844048437     A.U. after   12 cycles
 SCF Done:  E(RB3LYP) =  -495.844062419     A.U. after   11 cycles
 SCF Done:  E(RB3LYP) =  -495.844068650     A.U. after   10 cycles
 SCF Done:  E(RB3LYP) =  -495.844072714     A.U. after    9 cycles
 SCF Done:  E(RB3LYP) =  -495.844075374     A.U. after    9 cycles
 SCF Done:  E(RB3LYP) =  -495.844077553     A.U. after   10 cycles
 SCF Done:  E(RB3LYP) =  -495.844079044     A.U. after    9 cycles
 SCF Done:  E(RB3LYP) =  -495.844079774     A.U. after    9 cycles
 SCF Done:  E(RB3LYP) =  -495.844080364     A.U. after    8 cycles
 SCF Done:  E(RB3LYP) =  -495.844080421     A.U. after    7 cycles
 Optimization completed.
    -- Stationary point found.

                         Standard orientation:
 ---------------------------------------------------------------------
 Center     Atomic      Atomic             Coordinates (Angstroms)
 Number     Number       Type             X           Y           Z
 ---------------------------------------------------------------------
      1          1           0       -3.523485   -1.695274   -0.543480
      2          6           0       -3.206710   -0.676777   -0.777537
      3          1           0       -3.988587    0.006640   -0.425691
      4          1           0       -3.116098   -0.564141   -1.862879
      5          6           0       -1.913552   -0.381165   -0.031617
      6          8           0       -1.689948   -0.843573    1.085178
      7          7           0       -1.013176    0.400429   -0.702448
      8          1           0       -1.289410    0.730465   -1.616685
      9          6           0        0.093109    1.157600   -0.079915
     10          1           0        0.179461    2.071823   -0.674687
     11          6           0       -0.113346    1.573698    1.379623
     12          1           0       -0.173215    0.728768    2.063315
     13          1           0        0.723830    2.216083    1.673014
     14          1           0       -1.038255    2.152161    1.477588
     15          6           0        1.420263    0.422607   -0.369086
     16          8           0        2.227030    0.848580   -1.186603
     17          7           0        1.597497   -0.704787    0.377987
     18          1           0        0.795864   -1.040330    0.901765
     19          6           0        2.719532   -1.602828    0.170305
     20          1           0        3.492739   -1.049197   -0.364297
     21          1           0        3.115843   -1.945400    1.131828
     22          1           0        2.438626   -2.479960   -0.427797
 ---------------------------------------------------------------------

 The electronic state is 1-A.
 Alpha  occ. eigenvalues --  -19.11951 -19.10667 -14.37058 -14.35232 -10.29770
 Alpha  occ. eigenvalues --  -10.27783 -10.23870 -10.21148 -10.20024 -10.18426
 Alpha  occ. eigenvalues --   -1.03828  -1.02386  -0.92989  -0.91049  -0.78356
 Alpha  occ. eigenvalues --   -0.73484  -0.70194  -0.65379  -0.58530  -0.56681
 Alpha  occ. eigenvalues --   -0.52922  -0.50838  -0.47088  -0.45547  -0.44385
 Alpha  occ. eigenvalues --   -0.44164  -0.42088  -0.41798  -0.40837  -0.39980
 Alpha  occ. eigenvalues --   -0.38855  -0.37857  -0.36884  -0.35941  -0.35635
 Alpha  occ. eigenvalues --   -0.27625  -0.25711  -0.24536  -0.23539
 Alpha virt. eigenvalues --    0.01305   0.03232   0.06015   0.10461   0.11509
 Alpha virt. eigenvalues --    0.12615   0.13857   0.15020   0.15764   0.16420
 Alpha virt. eigenvalues --    0.17103   0.17386   0.18263   0.18762   0.19993

 Mulliken atomic charges:
              1
     1  H    0.189617
     2  C   -0.538818
     3  H    0.184844
     4  H    0.153359
     5  C    0.600090
     6  O   -0.522660
     7  N   -0.594712
     8  H    0.331539
     9  C   -0.061804
    10  H    0.164933
    11  C   -0.452797
    12  H    0.188766
    13  H    0.158874
    14  H    0.150629
    15  C    0.599774
    16  O   -0.517291
    17  N   -0.582960
    18  H    0.348388
    19  C   -0.309118
    20  H    0.196980
    21  H    0.156121
    22  H    0.156244
 Sum of Mulliken atomic charges =   0.00000

 Dipole moment (field-independent basis, Debye):
    X=             -2.3824    Y=             -0.0860    Z=             -0.6485  Tot=              2.4705
 Quadrupole moment (field-independent basis, Debye-Ang):
   XX=            -60.0266   YY=            -57.5784   ZZ=            -62.0014
   XY=             -7.5691   XZ=             10.9452   YZ=              2.4862

 Normal termination of Gaussian 09 at Fri Feb 10 18:53:44 2017.
