 Gaussian 09, Revision A.02,
 Gaussian 09:  EM64L-G09RevA.02 11-Jun-2009

 ----------------------------------------------------------------------
 # b3lyp/6-31G* Opt=(ModRedundant, maxcycles=1000, calcfc) geom=nocrowd
 ----------------------------------------------------------------------

 ------------------
 Phi Psi fixed scan
 ------------------
 Symbolic Z-matrix:
 Charge =  0 Multiplicity = 1

 SCF Done:  E(RB3LYP) =  -495.814029977     A.U. after   16 cycles

  Exact polarizability:   0.000   0.000   0.000   0.000   0.000   0.000
 Approx polarizability: 116.622  -9.334 106.247 -14.995  15.595 114.704

 SCF Done:  E(RB3LYP) =  -495.822635353     A.U. after   13 cycles
 SCF Done:  E(RB3LYP) =  -495.834614274     A.U. after   13 cycles
 SCF Done:  E(RB3LYP) =  -495.834776635     A.U. after   15 cycles
 SCF Done:  E(RB3LYP) =  -495.835667179     A.U. after   13 cycles
 SCF Done:  E(RB3LYP) =  -495.836212260     A.U. after   13 cycles
 SCF Done:  E(RB3LYP) =  -495.811184506     A.U. after   16 cycles
 SCF Done:  E(RB3LYP) =  -495.836462259     A.U. after   15 cycles
 SCF Done:  E(RB3LYP) =  -495.836621245     A.U. after   12 cycles
 SCF Done:  E(RB3LYP) =  -495.831096985     A.U. after   13 cycles
 SCF Done:  E(RB3LYP) =  -495.836864443     A.U. after   11 cycles
 SCF Done:  E(RB3LYP) =  -495.836892818     A.U. after   12 cycles
 SCF Done:  E(RB3LYP) =  -495.836919750     A.U. after   11 cycles
 SCF Done:  E(RB3LYP) =  -495.836924945     A.U. after   10 cycles
 SCF Done:  E(RB3LYP) =  -495.836928641     A.U. after   10 cycles
 SCF Done:  E(RB3LYP) =  -495.836930293     A.U. after    9 cycles
 SCF Done:  E(RB3LYP) =  -495.836931834     A.U. after   10 cycles
 SCF Done:  E(RB3LYP) =  -495.836932864     A.U. after    9 cycles
 SCF Done:  E(RB3LYP) =  -495.836933550     A.U. after    9 cycles
 SCF Done:  E(RB3LYP) =  -495.836933596     A.U. after    7 cycles
 Optimization completed.
    -- Stationary point found.

                         Standard orientation:
 ---------------------------------------------------------------------
 Center     Atomic      Atomic             Coordinates (Angstroms)
 Number     Number       Type             X           Y           Z
 ---------------------------------------------------------------------
      1          1           0       -3.983486   -1.398648   -0.042210
      2          6           0       -2.913010   -1.613102   -0.026311
      3          1           0       -2.657328   -2.244449   -0.884188
      4          1           0       -2.695676   -2.172668    0.891086
      5          6           0       -2.155328   -0.287795    0.008437
      6          8           0       -2.603434    0.686777    0.591022
      7          7           0       -0.957795   -0.320009   -0.670365
      8          1           0       -0.692382   -1.222782   -1.040784
      9          6           0        0.124796    0.670265   -0.679531
     10          1           0        0.460791    0.744069   -1.725456
     11          6           0       -0.262636    2.072505   -0.205921
     12          1           0       -0.506787    2.069782    0.855048
     13          1           0        0.592444    2.737727   -0.375998
     14          1           0       -1.122115    2.452185   -0.761171
     15          6           0        1.289703    0.125177    0.181238
     16          8           0        1.220704    0.067229    1.400493
     17          7           0        2.361866   -0.334852   -0.535520
     18          1           0        2.382934   -0.168440   -1.531493
     19          6           0        3.561509   -0.849748    0.103242
     20          1           0        3.331748   -0.985946    1.160879
     21          1           0        3.850920   -1.811846   -0.333474
     22          1           0        4.402077   -0.150819    0.009912
 ---------------------------------------------------------------------

 The electronic state is 1-A.
 Alpha  occ. eigenvalues --  -19.11339 -19.10135 -14.37165 -14.36058 -10.28655
 Alpha  occ. eigenvalues --  -10.28393 -10.24209 -10.22397 -10.18718 -10.17306
 Alpha  occ. eigenvalues --   -1.03487  -1.02106  -0.92747  -0.91897  -0.77930
 Alpha  occ. eigenvalues --   -0.72431  -0.71238  -0.64452  -0.59198  -0.56349
 Alpha  occ. eigenvalues --   -0.53260  -0.50227  -0.47400  -0.46105  -0.45117
 Alpha  occ. eigenvalues --   -0.43728  -0.42018  -0.40543  -0.39804  -0.39494
 Alpha  occ. eigenvalues --   -0.38746  -0.37276  -0.36501  -0.35741  -0.35087
 Alpha  occ. eigenvalues --   -0.27158  -0.25869  -0.23753  -0.23542
 Alpha virt. eigenvalues --    0.01395   0.04388   0.05376   0.08569   0.11592
 Alpha virt. eigenvalues --    0.13383   0.13994   0.14904   0.15543   0.16040
 Alpha virt. eigenvalues --    0.16958   0.17542   0.18300   0.19315   0.19699

 Mulliken atomic charges:
              1
     1  H    0.186043
     2  C   -0.542897
     3  H    0.142470
     4  H    0.186608
     5  C    0.601654
     6  O   -0.497204
     7  N   -0.590031
     8  H    0.318374
     9  C   -0.030359
    10  H    0.122565
    11  C   -0.435506
    12  H    0.206351
    13  H    0.132844
    14  H    0.165658
    15  C    0.595688
    16  O   -0.506638
    17  N   -0.592145
    18  H    0.323215
    19  C   -0.311881
    20  H    0.207724
    21  H    0.156506
    22  H    0.160963
 Sum of Mulliken atomic charges =   0.00000

 Dipole moment (field-independent basis, Debye):
    X=              3.2233    Y=             -2.5272    Z=             -4.5897  Tot=              6.1516
 Quadrupole moment (field-independent basis, Debye-Ang):
   XX=            -57.1478   YY=            -56.9345   ZZ=            -61.6563
   XY=              4.5421   XZ=             -2.0849   YZ=             -0.7341

 Normal termination of Gaussian 09 at Fri Feb 10 18:42:45 2017.
