 Gaussian 09, Revision A.02,
 Gaussian 09:  EM64L-G09RevA.02 11-Jun-2009

 ----------------------------------------------------------------------
 # b3lyp/6-31G* Opt=(ModRedundant, maxcycles=1000, calcfc) geom=nocrowd
 ----------------------------------------------------------------------

 ------------------
 Phi Psi fixed scan
 ------------------
 Symbolic Z-matrix:
 Charge =  0 Multiplicity = 1

 SCF Done:  E(RB3LYP) =  -495.812765525     A.U. after   14 cycles

  Exact polarizability:   0.000   0.000   0.000   0.000   0.000   0.000
 Approx polarizability: 112.697  -9.351 127.225  -0.574 -11.525  95.847

 SCF Done:  E(RB3LYP) =  -495.823806251     A.U. after   13 cycles
 SCF Done:  E(RB3LYP) =  -495.834342771     A.U. after   16 cycles
 SCF Done:  E(RB3LYP) =  -495.834995610     A.U. after   13 cycles
 SCF Done:  E(RB3LYP) =  -495.834621204     A.U. after   13 cycles
 SCF Done:  E(RB3LYP) =  -495.838215959     A.U. after   13 cycles
 SCF Done:  E(RB3LYP) =  -495.838753160     A.U. after   11 cycles
 SCF Done:  E(RB3LYP) =  -495.839572820     A.U. after   12 cycles
 SCF Done:  E(RB3LYP) =  -495.840122098     A.U. after   12 cycles
 SCF Done:  E(RB3LYP) =  -495.840515115     A.U. after   12 cycles
 SCF Done:  E(RB3LYP) =  -495.842087083     A.U. after   10 cycles
 SCF Done:  E(RB3LYP) =  -495.842093606     A.U. after   10 cycles
 SCF Done:  E(RB3LYP) =  -495.842097325     A.U. after   10 cycles
 SCF Done:  E(RB3LYP) =  -495.842102155     A.U. after   10 cycles
 SCF Done:  E(RB3LYP) =  -495.842106273     A.U. after   11 cycles
 SCF Done:  E(RB3LYP) =  -495.842107592     A.U. after   10 cycles
 SCF Done:  E(RB3LYP) =  -495.842108473     A.U. after   10 cycles
 SCF Done:  E(RB3LYP) =  -495.842109120     A.U. after   11 cycles
 SCF Done:  E(RB3LYP) =  -495.842110363     A.U. after   10 cycles
 SCF Done:  E(RB3LYP) =  -495.842110495     A.U. after    7 cycles
 Optimization completed.
    -- Stationary point found.

                         Standard orientation:
 ---------------------------------------------------------------------
 Center     Atomic      Atomic             Coordinates (Angstroms)
 Number     Number       Type             X           Y           Z
 ---------------------------------------------------------------------
      1          1           0       -4.119136   -0.801051    0.511630
      2          6           0       -3.126476   -1.206781    0.304748
      3          1           0       -3.161197   -1.809230   -0.608342
      4          1           0       -2.850712   -1.860500    1.140681
      5          6           0       -2.135659   -0.049205    0.229950
      6          8           0       -2.254078    0.939291    0.942817
      7          7           0       -1.144132   -0.230089   -0.703717
      8          1           0       -1.020231   -1.180364   -1.033398
      9          6           0        0.094058    0.539990   -0.844727
     10          1           0        0.289435    0.592419   -1.926956
     11          6           0        0.031474    1.982428   -0.333279
     12          1           0       -0.032250    2.041797    0.753741
     13          1           0        0.914855    2.527773   -0.688766
     14          1           0       -0.849686    2.486739   -0.734105
     15          6           0        1.250236   -0.343654   -0.305723
     16          8           0        1.197213   -1.562113   -0.454311
     17          7           0        2.315488    0.297189    0.243630
     18          1           0        2.245229    1.288091    0.419252
     19          6           0        3.475409   -0.414877    0.755345
     20          1           0        3.397000   -1.451286    0.425501
     21          1           0        4.399550    0.023926    0.363938
     22          1           0        3.508317   -0.392847    1.851505
 ---------------------------------------------------------------------

 The electronic state is 1-A.
 Alpha  occ. eigenvalues --  -19.11702 -19.10150 -14.37115 -14.35172 -10.29058
 Alpha  occ. eigenvalues --  -10.28208 -10.24215 -10.22370 -10.18781 -10.18374
 Alpha  occ. eigenvalues --   -1.03840  -1.01986  -0.92794  -0.91563  -0.78157
 Alpha  occ. eigenvalues --   -0.72506  -0.70855  -0.65540  -0.59512  -0.55348
 Alpha  occ. eigenvalues --   -0.53417  -0.50522  -0.46753  -0.45816  -0.44827
 Alpha  occ. eigenvalues --   -0.43979  -0.42656  -0.41248  -0.39970  -0.39465
 Alpha  occ. eigenvalues --   -0.39211  -0.38447  -0.37312  -0.35845  -0.34758
 Alpha  occ. eigenvalues --   -0.26441  -0.26105  -0.24640  -0.23442
 Alpha virt. eigenvalues --    0.02100   0.03476   0.07041   0.09784   0.11245
 Alpha virt. eigenvalues --    0.12921   0.14524   0.15026   0.15486   0.15954
 Alpha virt. eigenvalues --    0.16443   0.16905   0.18064   0.18798   0.19530

 Mulliken atomic charges:
              1
     1  H    0.182882
     2  C   -0.538559
     3  H    0.152730
     4  H    0.181997
     5  C    0.586984
     6  O   -0.510591
     7  N   -0.583346
     8  H    0.337996
     9  C   -0.043778
    10  H    0.169861
    11  C   -0.471226
    12  H    0.186943
    13  H    0.129648
    14  H    0.183224
    15  C    0.612308
    16  O   -0.533257
    17  N   -0.595765
    18  H    0.336667
    19  C   -0.312896
    20  H    0.205638
    21  H    0.158703
    22  H    0.163836
 Sum of Mulliken atomic charges =   0.00000

 Dipole moment (field-independent basis, Debye):
    X=              2.5183    Y=              0.6957    Z=             -0.8344  Tot=              2.7426
 Quadrupole moment (field-independent basis, Debye-Ang):
   XX=            -54.4758   YY=            -61.8871   ZZ=            -60.2126
   XY=             10.2866   XZ=              6.0238   YZ=             -2.8481

 Normal termination of Gaussian 09 at Fri Feb 10 18:47:16 2017.
