 Gaussian 09, Revision A.02,
 Gaussian 09:  EM64L-G09RevA.02 11-Jun-2009

 ----------------------------------------------------------------------
 # b3lyp/6-31G* Opt=(ModRedundant, maxcycles=1000, calcfc) geom=nocrowd
 ----------------------------------------------------------------------

 ------------------
 Phi Psi fixed scan
 ------------------
 Symbolic Z-matrix:
 Charge =  0 Multiplicity = 1

 SCF Done:  E(RB3LYP) =  -495.815273745     A.U. after   16 cycles

  Exact polarizability:   0.000   0.000   0.000   0.000   0.000   0.000
 Approx polarizability: 118.611  -4.408 101.763 -17.158   8.272 116.824

 SCF Done:  E(RB3LYP) =  -495.823768928     A.U. after   14 cycles
 SCF Done:  E(RB3LYP) =  -495.832183841     A.U. after   15 cycles
 SCF Done:  E(RB3LYP) =  -495.826434793     A.U. after   14 cycles
 SCF Done:  E(RB3LYP) =  -495.835066922     A.U. after   13 cycles
 SCF Done:  E(RB3LYP) =  -495.835745372     A.U. after   12 cycles
 SCF Done:  E(RB3LYP) =  -495.836638426     A.U. after   12 cycles
 SCF Done:  E(RB3LYP) =  -495.837195431     A.U. after   13 cycles
 SCF Done:  E(RB3LYP) =  -495.837011469     A.U. after   12 cycles
 SCF Done:  E(RB3LYP) =  -495.837200828     A.U. after   13 cycles
 SCF Done:  E(RB3LYP) =  -495.837332309     A.U. after   11 cycles
 SCF Done:  E(RB3LYP) =  -495.837347471     A.U. after   12 cycles
 SCF Done:  E(RB3LYP) =  -495.832420898     A.U. after   13 cycles
 SCF Done:  E(RB3LYP) =  -495.837360380     A.U. after   13 cycles
 SCF Done:  E(RB3LYP) =  -495.837451461     A.U. after   10 cycles
 SCF Done:  E(RB3LYP) =  -495.837504599     A.U. after   11 cycles
 SCF Done:  E(RB3LYP) =  -495.837511834     A.U. after   10 cycles
 SCF Done:  E(RB3LYP) =  -495.837513930     A.U. after   10 cycles
 SCF Done:  E(RB3LYP) =  -495.837514307     A.U. after    8 cycles
 SCF Done:  E(RB3LYP) =  -495.837514420     A.U. after    7 cycles
 Optimization completed.
    -- Stationary point found.

                         Standard orientation:
 ---------------------------------------------------------------------
 Center     Atomic      Atomic             Coordinates (Angstroms)
 Number     Number       Type             X           Y           Z
 ---------------------------------------------------------------------
      1          1           0       -4.067227   -1.249644   -0.076122
      2          6           0       -3.007263   -1.503405   -0.137135
      3          1           0       -2.819181   -2.057249   -1.063459
      4          1           0       -2.765252   -2.156850    0.709415
      5          6           0       -2.193758   -0.216950   -0.020981
      6          8           0       -2.597442    0.737260    0.624764
      7          7           0       -1.001411   -0.256246   -0.709180
      8          1           0       -0.775242   -1.149888   -1.125415
      9          6           0        0.134779    0.662858   -0.628728
     10          1           0        0.473338    0.826637   -1.663567
     11          6           0       -0.168553    2.032368   -0.010638
     12          1           0       -0.429601    1.935734    1.042263
     13          1           0        0.729643    2.654724   -0.104371
     14          1           0       -0.994776    2.523530   -0.527678
     15          6           0        1.273235   -0.019353    0.165697
     16          8           0        1.113830   -0.407077    1.314517
     17          7           0        2.442037   -0.173121   -0.528355
     18          1           0        2.509559    0.224535   -1.454255
     19          6           0        3.643612   -0.720565    0.078176
     20          1           0        3.359909   -1.123729    1.051342
     21          1           0        4.059926   -1.523450   -0.540224
     22          1           0        4.411103    0.050045    0.222232
 ---------------------------------------------------------------------

 The electronic state is 1-A.
 Alpha  occ. eigenvalues --  -19.11312 -19.10069 -14.37119 -14.35843 -10.28631
 Alpha  occ. eigenvalues --  -10.28277 -10.24198 -10.22377 -10.18556 -10.17589
 Alpha  occ. eigenvalues --   -1.03468  -1.02015  -0.92656  -0.91860  -0.77969
 Alpha  occ. eigenvalues --   -0.72411  -0.71126  -0.64515  -0.59215  -0.56192
 Alpha  occ. eigenvalues --   -0.53262  -0.50150  -0.47338  -0.45998  -0.45029
 Alpha  occ. eigenvalues --   -0.43625  -0.42019  -0.40509  -0.39941  -0.39473
 Alpha  occ. eigenvalues --   -0.38829  -0.37396  -0.36630  -0.35776  -0.34927
 Alpha  occ. eigenvalues --   -0.26837  -0.25774  -0.23810  -0.23563
 Alpha virt. eigenvalues --    0.01581   0.04244   0.05642   0.08599   0.11607
 Alpha virt. eigenvalues --    0.13653   0.14288   0.14777   0.15587   0.16094
 Alpha virt. eigenvalues --    0.16613   0.17485   0.18263   0.19256   0.19720

 Mulliken atomic charges:
              1
     1  H    0.185165
     2  C   -0.544500
     3  H    0.144289
     4  H    0.187287
     5  C    0.602271
     6  O   -0.499366
     7  N   -0.586955
     8  H    0.319972
     9  C   -0.028863
    10  H    0.122569
    11  C   -0.434938
    12  H    0.203622
    13  H    0.131029
    14  H    0.170108
    15  C    0.588706
    16  O   -0.508731
    17  N   -0.589757
    18  H    0.324585
    19  C   -0.311794
    20  H    0.207453
    21  H    0.156946
    22  H    0.160905
 Sum of Mulliken atomic charges =   0.00000

 Dipole moment (field-independent basis, Debye):
    X=              3.4005    Y=             -1.5555    Z=             -4.5094  Tot=              5.8581
 Quadrupole moment (field-independent basis, Debye-Ang):
   XX=            -55.7875   YY=            -57.5896   ZZ=            -61.5522
   XY=              6.2917   XZ=             -1.2728   YZ=              0.2071

 Normal termination of Gaussian 09 at Fri Feb 10 18:35:37 2017.
