 Gaussian 09, Revision A.02,
 Gaussian 09:  EM64L-G09RevA.02 11-Jun-2009

 ----------------------------------------------------------------------
 # b3lyp/6-31G* Opt=(ModRedundant, maxcycles=1000, calcfc) geom=nocrowd
 ----------------------------------------------------------------------

 ------------------
 Phi Psi fixed scan
 ------------------
 Symbolic Z-matrix:
 Charge =  0 Multiplicity = 1

 SCF Done:  E(RB3LYP) =  -495.816857395     A.U. after   15 cycles

  Exact polarizability:   0.000   0.000   0.000   0.000   0.000   0.000
 Approx polarizability: 118.941  -6.562 108.051 -13.875  -0.205 108.597

 SCF Done:  E(RB3LYP) =  -495.825420664     A.U. after   13 cycles
 SCF Done:  E(RB3LYP) =  -495.836632657     A.U. after   13 cycles
 SCF Done:  E(RB3LYP) =  -495.836282842     A.U. after   15 cycles
 SCF Done:  E(RB3LYP) =  -495.837034327     A.U. after   13 cycles
 SCF Done:  E(RB3LYP) =  -495.837623142     A.U. after   11 cycles
 SCF Done:  E(RB3LYP) =  -495.838257426     A.U. after   13 cycles
 SCF Done:  E(RB3LYP) =  -495.835159597     A.U. after   13 cycles
 SCF Done:  E(RB3LYP) =  -495.838542228     A.U. after   12 cycles
 SCF Done:  E(RB3LYP) =  -495.838882205     A.U. after   12 cycles
 SCF Done:  E(RB3LYP) =  -495.839043528     A.U. after   12 cycles
 SCF Done:  E(RB3LYP) =  -495.839007944     A.U. after   12 cycles
 SCF Done:  E(RB3LYP) =  -495.839105858     A.U. after   12 cycles
 SCF Done:  E(RB3LYP) =  -495.839124205     A.U. after   11 cycles
 SCF Done:  E(RB3LYP) =  -495.839145487     A.U. after   12 cycles
 SCF Done:  E(RB3LYP) =  -495.839169092     A.U. after   11 cycles
 SCF Done:  E(RB3LYP) =  -495.839188829     A.U. after   11 cycles
 SCF Done:  E(RB3LYP) =  -495.839193058     A.U. after   10 cycles
 SCF Done:  E(RB3LYP) =  -495.839193455     A.U. after    9 cycles
 SCF Done:  E(RB3LYP) =  -495.839193517     A.U. after    7 cycles
 Optimization completed.
    -- Stationary point found.

                         Standard orientation:
 ---------------------------------------------------------------------
 Center     Atomic      Atomic             Coordinates (Angstroms)
 Number     Number       Type             X           Y           Z
 ---------------------------------------------------------------------
      1          1           0        4.137054   -1.042779   -0.126868
      2          6           0        3.119148   -1.314443    0.156968
      3          1           0        3.117096   -1.705239    1.180509
      4          1           0        2.771812   -2.110557   -0.512651
      5          6           0        2.223556   -0.090804   -0.010059
      6          8           0        2.529653    0.834905   -0.745977
      7          7           0        1.077825   -0.144306    0.754634
      8          1           0        0.906405   -1.048092    1.176422
      9          6           0       -0.137685    0.648808    0.608759
     10          1           0       -0.463622    0.921193    1.624835
     11          6           0        0.011379    1.952029   -0.193035
     12          1           0        0.258934    1.753889   -1.235565
     13          1           0       -0.938346    2.497800   -0.146840
     14          1           0        0.798885    2.580463    0.226026
     15          6           0       -1.243257   -0.239217   -0.014810
     16          8           0       -0.983896   -1.172484   -0.762732
     17          7           0       -2.512827    0.095549    0.362758
     18          1           0       -2.641542    0.900585    0.959612
     19          6           0       -3.691621   -0.546432   -0.193560
     20          1           0       -3.350259   -1.407186   -0.770021
     21          1           0       -4.361094   -0.887138    0.603964
     22          1           0       -4.245488    0.129349   -0.857082
 ---------------------------------------------------------------------

 The electronic state is 1-A.
 Alpha  occ. eigenvalues --  -19.11640 -19.10121 -14.36975 -14.35371 -10.28800
 Alpha  occ. eigenvalues --  -10.28140 -10.24189 -10.22368 -10.18275 -10.18209
 Alpha  occ. eigenvalues --   -1.03700  -1.01979  -0.92649  -0.91715  -0.78072
 Alpha  occ. eigenvalues --   -0.72390  -0.70904  -0.64773  -0.59247  -0.55684
 Alpha  occ. eigenvalues --   -0.53338  -0.50082  -0.47182  -0.45746  -0.44838
 Alpha  occ. eigenvalues --   -0.43638  -0.42344  -0.40608  -0.40246  -0.39525
 Alpha  occ. eigenvalues --   -0.38823  -0.37702  -0.37148  -0.35948  -0.34751
 Alpha  occ. eigenvalues --   -0.26232  -0.25830  -0.24431  -0.23494
 Alpha virt. eigenvalues --    0.01968   0.03785   0.06001   0.08797   0.11591
 Alpha virt. eigenvalues --    0.13598   0.14584   0.14806   0.15495   0.15956
 Alpha virt. eigenvalues --    0.16336   0.17353   0.18537   0.18744   0.19218

 Mulliken atomic charges:
              1
     1  H    0.183553
     2  C   -0.548087
     3  H    0.151630
     4  H    0.187202
     5  C    0.594802
     6  O   -0.502155
     7  N   -0.579256
     8  H    0.323947
     9  C   -0.035244
    10  H    0.136004
    11  C   -0.430614
    12  H    0.194418
    13  H    0.123943
    14  H    0.178449
    15  C    0.578935
    16  O   -0.510150
    17  N   -0.586789
    18  H    0.325903
    19  C   -0.310698
    20  H    0.206011
    21  H    0.157356
    22  H    0.160842
 Sum of Mulliken atomic charges =   0.00000

 Dipole moment (field-independent basis, Debye):
    X=             -3.5002    Y=             -0.0114    Z=              3.4386  Tot=              4.9066
 Quadrupole moment (field-independent basis, Debye-Ang):
   XX=            -54.0964   YY=            -59.8473   ZZ=            -60.7117
   XY=             -8.8868   XZ=              1.3390   YZ=             -0.3612

 Normal termination of Gaussian 09 at Fri Feb 10 18:38:18 2017.
