 Gaussian 09, Revision A.02,
 Gaussian 09:  EM64L-G09RevA.02 11-Jun-2009

 ----------------------------------------------------------------------
 # b3lyp/6-31G* Opt=(ModRedundant, maxcycles=1000, calcfc) geom=nocrowd
 ----------------------------------------------------------------------

 ------------------
 Phi Psi fixed scan
 ------------------
 Symbolic Z-matrix:
 Charge =  0 Multiplicity = 1

 SCF Done:  E(RB3LYP) =  -495.814905336     A.U. after   14 cycles

  Exact polarizability:   0.000   0.000   0.000   0.000   0.000   0.000
 Approx polarizability: 115.210 -10.469 123.366  -3.375  -8.132  97.046

 SCF Done:  E(RB3LYP) =  -495.824741375     A.U. after   13 cycles
 SCF Done:  E(RB3LYP) =  -495.837069436     A.U. after   16 cycles
 SCF Done:  E(RB3LYP) =  -495.834856885     A.U. after   16 cycles
 SCF Done:  E(RB3LYP) =  -495.837191753     A.U. after   15 cycles
 SCF Done:  E(RB3LYP) =  -495.838204728     A.U. after   12 cycles
 SCF Done:  E(RB3LYP) =  -495.839502576     A.U. after   16 cycles
 SCF Done:  E(RB3LYP) =  -495.840283957     A.U. after   16 cycles
 SCF Done:  E(RB3LYP) =  -495.840490007     A.U. after   16 cycles
 SCF Done:  E(RB3LYP) =  -495.840906632     A.U. after   12 cycles
 SCF Done:  E(RB3LYP) =  -495.841560638     A.U. after   11 cycles
 SCF Done:  E(RB3LYP) =  -495.841577704     A.U. after   11 cycles
 SCF Done:  E(RB3LYP) =  -495.841591823     A.U. after   16 cycles
 SCF Done:  E(RB3LYP) =  -495.841599579     A.U. after   10 cycles
 SCF Done:  E(RB3LYP) =  -495.841602161     A.U. after    8 cycles
 SCF Done:  E(RB3LYP) =  -495.841602548     A.U. after    8 cycles
 SCF Done:  E(RB3LYP) =  -495.841602811     A.U. after    9 cycles
 SCF Done:  E(RB3LYP) =  -495.841602930     A.U. after    7 cycles
 SCF Done:  E(RB3LYP) =  -495.841603005     A.U. after    7 cycles
 SCF Done:  E(RB3LYP) =  -495.841603016     A.U. after    6 cycles
 Optimization completed.
    -- Stationary point found.

                         Standard orientation:
 ---------------------------------------------------------------------
 Center     Atomic      Atomic             Coordinates (Angstroms)
 Number     Number       Type             X           Y           Z
 ---------------------------------------------------------------------
      1          1           0        4.118485   -0.871129   -0.506126
      2          6           0        3.133546   -1.229104   -0.200823
      3          1           0        3.210208   -1.735617    0.766701
      4          1           0        2.789946   -1.959727   -0.943206
      5          6           0        2.171435   -0.045497   -0.176904
      6          8           0        2.342605    0.934730   -0.889236
      7          7           0        1.139431   -0.196276    0.721461
      8          1           0        0.984604   -1.149948    1.029137
      9          6           0       -0.105180    0.570595    0.772434
     10          1           0       -0.346983    0.683242    1.841313
     11          6           0       -0.031983    1.984067    0.181745
     12          1           0        0.048100    1.980293   -0.905538
     13          1           0       -0.920570    2.552012    0.485772
     14          1           0        0.840560    2.511085    0.570595
     15          6           0       -1.239731   -0.335713    0.220640
     16          8           0       -1.099108   -1.555384    0.195770
     17          7           0       -2.404869    0.284309   -0.109654
     18          1           0       -2.415833    1.291170   -0.172176
     19          6           0       -3.565168   -0.447545   -0.592349
     20          1           0       -3.429269   -1.496736   -0.328107
     21          1           0       -4.476397   -0.066483   -0.119932
     22          1           0       -3.670275   -0.369978   -1.681809
 ---------------------------------------------------------------------

 The electronic state is 1-A.
 Alpha  occ. eigenvalues --  -19.11914 -19.10174 -14.37071 -14.34958 -10.29120
 Alpha  occ. eigenvalues --  -10.28125 -10.24239 -10.22415 -10.18811 -10.18241
 Alpha  occ. eigenvalues --   -1.03987  -1.01968  -0.92807  -0.91483  -0.78124
 Alpha  occ. eigenvalues --   -0.72442  -0.70836  -0.65425  -0.59495  -0.55118
 Alpha  occ. eigenvalues --   -0.53437  -0.50325  -0.46908  -0.45774  -0.44705
 Alpha  occ. eigenvalues --   -0.44008  -0.42672  -0.41217  -0.40071  -0.39648
 Alpha  occ. eigenvalues --   -0.39014  -0.38362  -0.37220  -0.35892  -0.34706
 Alpha  occ. eigenvalues --   -0.26317  -0.26202  -0.24799  -0.23403
 Alpha virt. eigenvalues --    0.02044   0.03422   0.06580   0.10031   0.11278
 Alpha virt. eigenvalues --    0.13189   0.14251   0.15012   0.15737   0.16110
 Alpha virt. eigenvalues --    0.16427   0.16640   0.18043   0.18819   0.19431

 Mulliken atomic charges:
              1
     1  H    0.182269
     2  C   -0.541827
     3  H    0.155669
     4  H    0.182491
     5  C    0.583614
     6  O   -0.507285
     7  N   -0.579236
     8  H    0.336757
     9  C   -0.050971
    10  H    0.168656
    11  C   -0.460367
    12  H    0.187248
    13  H    0.123609
    14  H    0.185915
    15  C    0.608363
    16  O   -0.529979
    17  N   -0.593731
    18  H    0.333787
    19  C   -0.310295
    20  H    0.203812
    21  H    0.157376
    22  H    0.164124
 Sum of Mulliken atomic charges =   0.00000

 Dipole moment (field-independent basis, Debye):
    X=             -2.9590    Y=              0.6766    Z=              1.2787  Tot=              3.2937
 Quadrupole moment (field-independent basis, Debye-Ang):
   XX=            -54.1001   YY=            -61.6129   ZZ=            -60.3643
   XY=            -10.1957   XZ=              4.9392   YZ=              1.9750

 Normal termination of Gaussian 09 at Fri Feb 10 18:44:40 2017.
