 Gaussian 09, Revision A.02,
 Gaussian 09:  EM64L-G09RevA.02 11-Jun-2009

 ----------------------------------------------------------------------
 # b3lyp/6-31G* Opt=(ModRedundant, maxcycles=1000, calcfc) geom=nocrowd
 ----------------------------------------------------------------------

 ------------------
 Phi Psi fixed scan
 ------------------
 Symbolic Z-matrix:
 Charge =  0 Multiplicity = 1

 SCF Done:  E(RB3LYP) =  -495.818072491     A.U. after   15 cycles

  Exact polarizability:   0.000   0.000   0.000   0.000   0.000   0.000
 Approx polarizability: 111.150   9.359 103.504  13.068  11.183 121.235

 SCF Done:  E(RB3LYP) =  -495.829022355     A.U. after   16 cycles
 SCF Done:  E(RB3LYP) =  -495.840287117     A.U. after   15 cycles
 SCF Done:  E(RB3LYP) =  -495.828813988     A.U. after   14 cycles
 SCF Done:  E(RB3LYP) =  -495.842483815     A.U. after   13 cycles
 SCF Done:  E(RB3LYP) =  -495.843133825     A.U. after   11 cycles
 SCF Done:  E(RB3LYP) =  -495.843896876     A.U. after   12 cycles
 SCF Done:  E(RB3LYP) =  -495.844046999     A.U. after   12 cycles
 SCF Done:  E(RB3LYP) =  -495.844386911     A.U. after   12 cycles
 SCF Done:  E(RB3LYP) =  -495.824713306     A.U. after   14 cycles
 SCF Done:  E(RB3LYP) =  -495.844729011     A.U. after   13 cycles
 SCF Done:  E(RB3LYP) =  -495.844793456     A.U. after   12 cycles
 SCF Done:  E(RB3LYP) =  -495.844855697     A.U. after   12 cycles
 SCF Done:  E(RB3LYP) =  -495.844862858     A.U. after   11 cycles
 SCF Done:  E(RB3LYP) =  -495.844864101     A.U. after    8 cycles
 SCF Done:  E(RB3LYP) =  -495.844865903     A.U. after   10 cycles
 SCF Done:  E(RB3LYP) =  -495.844868071     A.U. after   10 cycles
 SCF Done:  E(RB3LYP) =  -495.844869914     A.U. after   10 cycles
 SCF Done:  E(RB3LYP) =  -495.844870497     A.U. after    7 cycles
 SCF Done:  E(RB3LYP) =  -495.844870580     A.U. after    7 cycles
 Optimization completed.
    -- Stationary point found.

                         Standard orientation:
 ---------------------------------------------------------------------
 Center     Atomic      Atomic             Coordinates (Angstroms)
 Number     Number       Type             X           Y           Z
 ---------------------------------------------------------------------
      1          1           0       -3.616494   -1.611210   -0.395310
      2          6           0       -3.228541   -0.649110   -0.735253
      3          1           0       -3.960659    0.123664   -0.471630
      4          1           0       -3.125123   -0.662217   -1.825415
      5          6           0       -1.917686   -0.365737   -0.016552
      6          8           0       -1.692222   -0.789337    1.115376
      7          7           0       -0.997397    0.353158   -0.730616
      8          1           0       -1.283712    0.648676   -1.654031
      9          6           0        0.108180    1.148199   -0.155507
     10          1           0        0.202069    2.022980   -0.805332
     11          6           0       -0.105769    1.652262    1.276496
     12          1           0       -0.166959    0.842416    2.001957
     13          1           0        0.733293    2.306888    1.534726
     14          1           0       -1.029297    2.237787    1.339054
     15          6           0        1.452164    0.412053   -0.346189
     16          8           0        2.382560    0.920924   -0.960487
     17          7           0        1.491973   -0.812084    0.249670
     18          1           0        0.647503   -1.140961    0.706259
     19          6           0        2.649812   -1.683135    0.180887
     20          1           0        3.443163   -1.134404   -0.329037
     21          1           0        2.992002   -1.961589    1.184463
     22          1           0        2.430525   -2.599440   -0.381478
 ---------------------------------------------------------------------

 The electronic state is 1-A.
 Alpha  occ. eigenvalues --  -19.12193 -19.10474 -14.37093 -14.35110 -10.29927
 Alpha  occ. eigenvalues --  -10.27676 -10.23898 -10.21084 -10.20171 -10.18396
 Alpha  occ. eigenvalues --   -1.04018  -1.02225  -0.93126  -0.90893  -0.78387
 Alpha  occ. eigenvalues --   -0.73578  -0.70253  -0.65266  -0.58459  -0.56749
 Alpha  occ. eigenvalues --   -0.52996  -0.50827  -0.47175  -0.45591  -0.44447
 Alpha  occ. eigenvalues --   -0.43924  -0.42280  -0.41806  -0.40944  -0.40203
 Alpha  occ. eigenvalues --   -0.38713  -0.37814  -0.37022  -0.36046  -0.35298
 Alpha  occ. eigenvalues --   -0.27769  -0.25900  -0.24322  -0.23458
 Alpha virt. eigenvalues --    0.01108   0.03381   0.05847   0.10851   0.11476
 Alpha virt. eigenvalues --    0.12711   0.13990   0.14900   0.16001   0.16420
 Alpha virt. eigenvalues --    0.17167   0.17254   0.18291   0.18554   0.19828

 Mulliken atomic charges:
              1
     1  H    0.190194
     2  C   -0.540501
     3  H    0.184223
     4  H    0.155808
     5  C    0.598143
     6  O   -0.520806
     7  N   -0.592328
     8  H    0.329837
     9  C   -0.063358
    10  H    0.164961
    11  C   -0.453913
    12  H    0.190529
    13  H    0.162687
    14  H    0.150019
    15  C    0.598936
    16  O   -0.520602
    17  N   -0.584958
    18  H    0.350525
    19  C   -0.309556
    20  H    0.198296
    21  H    0.156899
    22  H    0.154964
 Sum of Mulliken atomic charges =   0.00000

 Dipole moment (field-independent basis, Debye):
    X=             -2.7398    Y=             -0.3016    Z=             -1.0925  Tot=              2.9649
 Quadrupole moment (field-independent basis, Debye-Ang):
   XX=            -61.3406   YY=            -57.6438   ZZ=            -61.1213
   XY=             -7.9418   XZ=             10.4841   YZ=              2.1915

 Normal termination of Gaussian 09 at Fri Feb 10 18:53:50 2017.
