 Gaussian 09, Revision A.02,
 Gaussian 09:  EM64L-G09RevA.02 11-Jun-2009

 ----------------------------------------------------------------------
 # b3lyp/6-31G* Opt=(ModRedundant, maxcycles=1000, calcfc) geom=nocrowd
 ----------------------------------------------------------------------

 ------------------
 Phi Psi fixed scan
 ------------------
 Symbolic Z-matrix:
 Charge =  0 Multiplicity = 1

 SCF Done:  E(RB3LYP) =  -495.813964386     A.U. after   16 cycles

  Exact polarizability:   0.000   0.000   0.000   0.000   0.000   0.000
 Approx polarizability: 110.383  -5.860 126.323  -3.649 -12.628 100.526

 SCF Done:  E(RB3LYP) =  -495.824442629     A.U. after   14 cycles
 SCF Done:  E(RB3LYP) =  -495.835384154     A.U. after   17 cycles
 SCF Done:  E(RB3LYP) =  -495.828709328     A.U. after   14 cycles
 SCF Done:  E(RB3LYP) =  -495.838144483     A.U. after   14 cycles
 SCF Done:  E(RB3LYP) =  -495.839153173     A.U. after   12 cycles
 SCF Done:  E(RB3LYP) =  -495.840535968     A.U. after   12 cycles
 SCF Done:  E(RB3LYP) =  -495.840978888     A.U. after   12 cycles
 SCF Done:  E(RB3LYP) =  -495.840955206     A.U. after   11 cycles
 SCF Done:  E(RB3LYP) =  -495.840981884     A.U. after   11 cycles
 SCF Done:  E(RB3LYP) =  -495.841715005     A.U. after   10 cycles
 SCF Done:  E(RB3LYP) =  -495.841844431     A.U. after   11 cycles
 SCF Done:  E(RB3LYP) =  -495.841965722     A.U. after   12 cycles
 SCF Done:  E(RB3LYP) =  -495.841993903     A.U. after   11 cycles
 SCF Done:  E(RB3LYP) =  -495.841999268     A.U. after   10 cycles
 SCF Done:  E(RB3LYP) =  -495.842004179     A.U. after   10 cycles
 SCF Done:  E(RB3LYP) =  -495.842006912     A.U. after   10 cycles
 SCF Done:  E(RB3LYP) =  -495.842006988     A.U. after    8 cycles
 SCF Done:  E(RB3LYP) =  -495.842006971     A.U. after    7 cycles
 SCF Done:  E(RB3LYP) =  -495.842006992     A.U. after    6 cycles
 Optimization completed.
    -- Stationary point found.

                         Standard orientation:
 ---------------------------------------------------------------------
 Center     Atomic      Atomic             Coordinates (Angstroms)
 Number     Number       Type             X           Y           Z
 ---------------------------------------------------------------------
      1          1           0       -3.651825   -1.625631    0.523365
      2          6           0       -3.152845   -1.144670   -0.319763
      3          1           0       -3.875173   -0.477325   -0.805532
      4          1           0       -2.851288   -1.906507   -1.047007
      5          6           0       -1.980876   -0.324910    0.210511
      6          8           0       -1.972184    0.137869    1.339198
      7          7           0       -0.938042   -0.180043   -0.687668
      8          1           0       -1.142516   -0.517124   -1.619740
      9          6           0        0.108246    0.863822   -0.642787
     10          1           0        0.292133    1.122787   -1.694246
     11          6           0       -0.276697    2.156775    0.082347
     12          1           0       -0.477945    1.978348    1.137757
     13          1           0        0.557503    2.854629   -0.013145
     14          1           0       -1.169948    2.596967   -0.372566
     15          6           0        1.478894    0.336118   -0.150048
     16          8           0        2.388647    1.117949    0.100277
     17          7           0        1.616000   -1.018408   -0.140290
     18          1           0        0.763134   -1.556598   -0.208867
     19          6           0        2.829026   -1.664646    0.327447
     20          1           0        3.626925   -0.920754    0.311104
     21          1           0        2.721849   -2.041978    1.352663
     22          1           0        3.095261   -2.499144   -0.330121
 ---------------------------------------------------------------------

 The electronic state is 1-A.
 Alpha  occ. eigenvalues --  -19.11963 -19.10548 -14.37214 -14.35670 -10.29797
 Alpha  occ. eigenvalues --  -10.27986 -10.24177 -10.21494 -10.20108 -10.17044
 Alpha  occ. eigenvalues --   -1.03928  -1.02525  -0.93396  -0.91157  -0.78038
 Alpha  occ. eigenvalues --   -0.73183  -0.70831  -0.64417  -0.58713  -0.56596
 Alpha  occ. eigenvalues --   -0.53135  -0.50907  -0.47345  -0.45351  -0.45218
 Alpha  occ. eigenvalues --   -0.44315  -0.41963  -0.41482  -0.40628  -0.39351
 Alpha  occ. eigenvalues --   -0.38636  -0.38066  -0.36387  -0.35874  -0.34649
 Alpha  occ. eigenvalues --   -0.28309  -0.25331  -0.24977  -0.23615
 Alpha virt. eigenvalues --    0.01526   0.02714   0.05813   0.10211   0.11319
 Alpha virt. eigenvalues --    0.13167   0.13491   0.14099   0.15970   0.16341
 Alpha virt. eigenvalues --    0.16998   0.17808   0.18135   0.18881   0.19186

 Mulliken atomic charges:
              1
     1  H    0.191865
     2  C   -0.546774
     3  H    0.183162
     4  H    0.150714
     5  C    0.587631
     6  O   -0.482500
     7  N   -0.631953
     8  H    0.325817
     9  C   -0.045305
    10  H    0.166309
    11  C   -0.449268
    12  H    0.197301
    13  H    0.176804
    14  H    0.136155
    15  C    0.614857
    16  O   -0.523103
    17  N   -0.590985
    18  H    0.335012
    19  C   -0.309673
    20  H    0.201023
    21  H    0.161092
    22  H    0.151822
 Sum of Mulliken atomic charges =   0.00000

 Dipole moment (field-independent basis, Debye):
    X=             -1.9669    Y=             -3.3380    Z=             -3.6619  Tot=              5.3310
 Quadrupole moment (field-independent basis, Debye-Ang):
   XX=            -62.9126   YY=            -57.2213   ZZ=            -60.3699
   XY=             -4.3880   XZ=              6.2019   YZ=             -1.1536

 Normal termination of Gaussian 09 at Fri Feb 10 18:42:34 2017.
