 Gaussian 09, Revision A.02,
 Gaussian 09:  EM64L-G09RevA.02 11-Jun-2009

 ----------------------------------------------------------------------
 # b3lyp/6-31G* Opt=(ModRedundant, maxcycles=1000, calcfc) geom=nocrowd
 ----------------------------------------------------------------------

 ------------------
 Phi Psi fixed scan
 ------------------
 Symbolic Z-matrix:
 Charge =  0 Multiplicity = 1

 SCF Done:  E(RB3LYP) =  -495.818161039     A.U. after   16 cycles

  Exact polarizability:   0.000   0.000   0.000   0.000   0.000   0.000
 Approx polarizability: 114.149  11.386 111.637 -10.883  -2.560 110.290

 SCF Done:  E(RB3LYP) =  -495.828399035     A.U. after   13 cycles
 SCF Done:  E(RB3LYP) =  -495.838748762     A.U. after   15 cycles
 SCF Done:  E(RB3LYP) =  -495.829211575     A.U. after   14 cycles
 SCF Done:  E(RB3LYP) =  -495.841537834     A.U. after   14 cycles
 SCF Done:  E(RB3LYP) =  -495.842212965     A.U. after   11 cycles
 SCF Done:  E(RB3LYP) =  -495.843061340     A.U. after   12 cycles
 SCF Done:  E(RB3LYP) =  -495.843284891     A.U. after   12 cycles
 SCF Done:  E(RB3LYP) =  -495.790288838     A.U. after   14 cycles
 SCF Done:  E(RB3LYP) =  -495.843300695     A.U. after   14 cycles
 SCF Done:  E(RB3LYP) =  -495.843662035     A.U. after   11 cycles
 SCF Done:  E(RB3LYP) =  -495.843728579     A.U. after   11 cycles
 SCF Done:  E(RB3LYP) =  -495.843747332     A.U. after   11 cycles
 SCF Done:  E(RB3LYP) =  -495.843770706     A.U. after   12 cycles
 SCF Done:  E(RB3LYP) =  -495.843777672     A.U. after   11 cycles
 SCF Done:  E(RB3LYP) =  -495.843780353     A.U. after   10 cycles
 SCF Done:  E(RB3LYP) =  -495.843781278     A.U. after    9 cycles
 SCF Done:  E(RB3LYP) =  -495.843782742     A.U. after   10 cycles
 SCF Done:  E(RB3LYP) =  -495.843783462     A.U. after    8 cycles
 SCF Done:  E(RB3LYP) =  -495.843783500     A.U. after    7 cycles
 Optimization completed.
    -- Stationary point found.

                         Standard orientation:
 ---------------------------------------------------------------------
 Center     Atomic      Atomic             Coordinates (Angstroms)
 Number     Number       Type             X           Y           Z
 ---------------------------------------------------------------------
      1          1           0       -3.648350   -1.634979   -0.015065
      2          6           0       -3.215658   -0.832038   -0.614852
      3          1           0       -3.953863   -0.023809   -0.680623
      4          1           0       -3.021530   -1.198483   -1.628598
      5          6           0       -1.966068   -0.314294    0.087740
      6          8           0       -1.849312   -0.345420    1.307073
      7          7           0       -0.987730    0.157623   -0.752772
      8          1           0       -1.194987    0.108774   -1.740824
      9          6           0        0.130388    1.053707   -0.412057
     10          1           0        0.248800    1.718723   -1.273962
     11          6           0       -0.089970    1.940760    0.821981
     12          1           0       -0.184134    1.351724    1.733808
     13          1           0        0.767288    2.614806    0.905186
     14          1           0       -0.998954    2.539352    0.704244
     15          6           0        1.492432    0.332202   -0.319767
     16          8           0        2.526136    0.940771   -0.573698
     17          7           0        1.443803   -0.969995    0.071216
     18          1           0        0.548598   -1.335586    0.366057
     19          6           0        2.642029   -1.747231    0.330486
     20          1           0        3.488453   -1.189740   -0.073246
     21          1           0        2.799656   -1.900445    1.405654
     22          1           0        2.583010   -2.725174   -0.159923
 ---------------------------------------------------------------------

 The electronic state is 1-A.
 Alpha  occ. eigenvalues --  -19.11882 -19.10500 -14.37068 -14.35694 -10.29809
 Alpha  occ. eigenvalues --  -10.27905 -10.24027 -10.21423 -10.20084 -10.17920
 Alpha  occ. eigenvalues --   -1.03848  -1.02432  -0.93253  -0.91193  -0.78267
 Alpha  occ. eigenvalues --   -0.73356  -0.70643  -0.64999  -0.58459  -0.57120
 Alpha  occ. eigenvalues --   -0.53313  -0.50833  -0.47254  -0.45374  -0.44865
 Alpha  occ. eigenvalues --   -0.44044  -0.42324  -0.41522  -0.40741  -0.40108
 Alpha  occ. eigenvalues --   -0.38630  -0.38091  -0.36933  -0.36097  -0.34629
 Alpha  occ. eigenvalues --   -0.27873  -0.25503  -0.24930  -0.23422
 Alpha virt. eigenvalues --    0.01528   0.03229   0.05730   0.10143   0.11555
 Alpha virt. eigenvalues --    0.12902   0.13963   0.14225   0.16170   0.16458
 Alpha virt. eigenvalues --    0.17183   0.17461   0.18286   0.18644   0.18861

 Mulliken atomic charges:
              1
     1  H    0.188976
     2  C   -0.541981
     3  H    0.184921
     4  H    0.151789
     5  C    0.589389
     6  O   -0.509425
     7  N   -0.612976
     8  H    0.328144
     9  C   -0.043296
    10  H    0.165495
    11  C   -0.451705
    12  H    0.191109
    13  H    0.170590
    14  H    0.149878
    15  C    0.594401
    16  O   -0.524837
    17  N   -0.581781
    18  H    0.346099
    19  C   -0.310281
    20  H    0.200652
    21  H    0.160854
    22  H    0.153985
 Sum of Mulliken atomic charges =   0.00000

 Dipole moment (field-independent basis, Debye):
    X=             -2.4819    Y=             -1.6298    Z=             -2.2387  Tot=              3.7186
 Quadrupole moment (field-independent basis, Debye-Ang):
   XX=            -63.8503   YY=            -56.7942   ZZ=            -60.6564
   XY=             -6.4508   XZ=              9.7740   YZ=              0.7624

 Normal termination of Gaussian 09 at Fri Feb 10 19:04:19 2017.
