 Gaussian 09, Revision A.02,
 Gaussian 09:  EM64L-G09RevA.02 11-Jun-2009

 ----------------------------------------------------------------------
 # b3lyp/6-31G* Opt=(ModRedundant, maxcycles=1000, calcfc) geom=nocrowd
 ----------------------------------------------------------------------

 ------------------
 Phi Psi fixed scan
 ------------------
 Symbolic Z-matrix:
 Charge =  0 Multiplicity = 1

 SCF Done:  E(RB3LYP) =  -495.810213004     A.U. after   15 cycles

  Exact polarizability:   0.000   0.000   0.000   0.000   0.000   0.000
 Approx polarizability: 107.963   2.214 127.116  -4.147 -20.733 101.411

 SCF Done:  E(RB3LYP) =  -495.820650240     A.U. after   14 cycles
 SCF Done:  E(RB3LYP) =  -495.830360531     A.U. after   16 cycles
 SCF Done:  E(RB3LYP) =  -495.823941779     A.U. after   14 cycles
 SCF Done:  E(RB3LYP) =  -495.833201336     A.U. after   14 cycles
 SCF Done:  E(RB3LYP) =  -495.834120097     A.U. after   12 cycles
 SCF Done:  E(RB3LYP) =  -495.835548970     A.U. after   12 cycles
 SCF Done:  E(RB3LYP) =  -495.836410356     A.U. after   13 cycles
 SCF Done:  E(RB3LYP) =  -495.836700290     A.U. after   12 cycles
 SCF Done:  E(RB3LYP) =  -495.836993471     A.U. after   12 cycles
 SCF Done:  E(RB3LYP) =  -495.837471418     A.U. after   11 cycles
 SCF Done:  E(RB3LYP) =  -495.837493162     A.U. after   11 cycles
 SCF Done:  E(RB3LYP) =  -495.837509068     A.U. after   11 cycles
 SCF Done:  E(RB3LYP) =  -495.837591796     A.U. after   12 cycles
 SCF Done:  E(RB3LYP) =  -495.837597592     A.U. after   11 cycles
 SCF Done:  E(RB3LYP) =  -495.837603240     A.U. after   11 cycles
 SCF Done:  E(RB3LYP) =  -495.837605854     A.U. after   10 cycles
 SCF Done:  E(RB3LYP) =  -495.837606264     A.U. after    8 cycles
 SCF Done:  E(RB3LYP) =  -495.837606407     A.U. after    7 cycles
 SCF Done:  E(RB3LYP) =  -495.837606402     A.U. after    6 cycles
 Optimization completed.
    -- Stationary point found.

                         Standard orientation:
 ---------------------------------------------------------------------
 Center     Atomic      Atomic             Coordinates (Angstroms)
 Number     Number       Type             X           Y           Z
 ---------------------------------------------------------------------
      1          1           0       -3.640163   -1.623306    0.775220
      2          6           0       -3.125256   -1.301561   -0.131785
      3          1           0       -3.851286   -0.776316   -0.764388
      4          1           0       -2.768055   -2.181064   -0.678454
      5          6           0       -2.004363   -0.343521    0.259590
      6          8           0       -2.067049    0.352849    1.258328
      7          7           0       -0.917800   -0.363603   -0.599143
      8          1           0       -1.100855   -0.859778   -1.462550
      9          6           0        0.085161    0.718917   -0.740435
     10          1           0        0.317530    0.741276   -1.813744
     11          6           0       -0.381951    2.115546   -0.332267
     12          1           0       -0.582133    2.174529    0.735863
     13          1           0        0.405403    2.830205   -0.582956
     14          1           0       -1.293067    2.382870   -0.877314
     15          6           0        1.425862    0.343634   -0.057040
     16          8           0        2.100019    1.168933    0.542172
     17          7           0        1.857800   -0.930187   -0.317424
     18          1           0        1.137783   -1.598395   -0.559496
     19          6           0        3.064538   -1.448171    0.309277
     20          1           0        3.784770   -0.632393    0.384532
     21          1           0        2.878858   -1.836552    1.319808
     22          1           0        3.483502   -2.247865   -0.308585
 ---------------------------------------------------------------------

 The electronic state is 1-A.
 Alpha  occ. eigenvalues --  -19.11738 -19.11119 -14.37023 -14.35733 -10.29542
 Alpha  occ. eigenvalues --  -10.28118 -10.24154 -10.21594 -10.19926 -10.16931
 Alpha  occ. eigenvalues --   -1.03730  -1.02887  -0.93208  -0.91240  -0.77954
 Alpha  occ. eigenvalues --   -0.73038  -0.70788  -0.64207  -0.58796  -0.56287
 Alpha  occ. eigenvalues --   -0.52843  -0.50743  -0.47200  -0.45569  -0.45169
 Alpha  occ. eigenvalues --   -0.44320  -0.41923  -0.41472  -0.40451  -0.39246
 Alpha  occ. eigenvalues --   -0.38484  -0.37583  -0.36474  -0.35686  -0.35224
 Alpha  occ. eigenvalues --   -0.28365  -0.25340  -0.24969  -0.23746
 Alpha virt. eigenvalues --    0.01616   0.01890   0.05575   0.10188   0.11181
 Alpha virt. eigenvalues --    0.12435   0.13618   0.14408   0.15541   0.16512
 Alpha virt. eigenvalues --    0.16925   0.17763   0.18071   0.19213   0.19322

 Mulliken atomic charges:
              1
     1  H    0.192493
     2  C   -0.547374
     3  H    0.181399
     4  H    0.150110
     5  C    0.592315
     6  O   -0.480843
     7  N   -0.617828
     8  H    0.320811
     9  C   -0.066739
    10  H    0.160724
    11  C   -0.436983
    12  H    0.203736
    13  H    0.163141
    14  H    0.132894
    15  C    0.622396
    16  O   -0.508408
    17  N   -0.586461
    18  H    0.322990
    19  C   -0.306179
    20  H    0.196438
    21  H    0.160995
    22  H    0.150373
 Sum of Mulliken atomic charges =   0.00000

 Dipole moment (field-independent basis, Debye):
    X=             -1.0768    Y=             -4.0008    Z=             -4.2031  Tot=              5.9018
 Quadrupole moment (field-independent basis, Debye-Ang):
   XX=            -60.4299   YY=            -57.5812   ZZ=            -60.8875
   XY=             -2.6459   XZ=              4.1820   YZ=             -1.9941

 Normal termination of Gaussian 09 at Fri Feb 10 18:58:07 2017.
