 Gaussian 09, Revision A.02,
 Gaussian 09:  EM64L-G09RevA.02 11-Jun-2009

 ----------------------------------------------------------------------
 # b3lyp/6-31G* Opt=(ModRedundant, maxcycles=1000, calcfc) geom=nocrowd
 ----------------------------------------------------------------------

 ------------------
 Phi Psi fixed scan
 ------------------
 Symbolic Z-matrix:
 Charge =  0 Multiplicity = 1

 SCF Done:  E(RB3LYP) =  -495.813885060     A.U. after   15 cycles

  Exact polarizability:   0.000   0.000   0.000   0.000   0.000   0.000
 Approx polarizability: 106.506   7.558 132.945  -3.647 -14.841  97.118

 SCF Done:  E(RB3LYP) =  -495.825539703     A.U. after   16 cycles
 SCF Done:  E(RB3LYP) =  -495.837529395     A.U. after   15 cycles
 SCF Done:  E(RB3LYP) =  -495.836147045     A.U. after   15 cycles
 SCF Done:  E(RB3LYP) =  -495.840102660     A.U. after   14 cycles
 SCF Done:  E(RB3LYP) =  -495.840846299     A.U. after   11 cycles
 SCF Done:  E(RB3LYP) =  -495.841745700     A.U. after   12 cycles
 SCF Done:  E(RB3LYP) =  -495.841906736     A.U. after   12 cycles
 SCF Done:  E(RB3LYP) =  -495.842147387     A.U. after   12 cycles
 SCF Done:  E(RB3LYP) =  -495.827925508     A.U. after   15 cycles
 SCF Done:  E(RB3LYP) =  -495.842331538     A.U. after   11 cycles
 SCF Done:  E(RB3LYP) =  -495.842350329     A.U. after   11 cycles
 SCF Done:  E(RB3LYP) =  -495.842355441     A.U. after   10 cycles
 SCF Done:  E(RB3LYP) =  -495.842358905     A.U. after   10 cycles
 SCF Done:  E(RB3LYP) =  -495.842360788     A.U. after   10 cycles
 SCF Done:  E(RB3LYP) =  -495.842362175     A.U. after    9 cycles
 SCF Done:  E(RB3LYP) =  -495.842362987     A.U. after    8 cycles
 SCF Done:  E(RB3LYP) =  -495.842362928     A.U. after    7 cycles
 SCF Done:  E(RB3LYP) =  -495.842362685     A.U. after    8 cycles
 SCF Done:  E(RB3LYP) =  -495.842362434     A.U. after    7 cycles
 Optimization completed.
    -- Stationary point found.

                         Standard orientation:
 ---------------------------------------------------------------------
 Center     Atomic      Atomic             Coordinates (Angstroms)
 Number     Number       Type             X           Y           Z
 ---------------------------------------------------------------------
      1          1           0        3.396775   -1.897130    0.361954
      2          6           0        3.173413   -0.881564    0.697268
      3          1           0        4.030503   -0.250595    0.435746
      4          1           0        3.060032   -0.876367    1.786116
      5          6           0        1.944941   -0.379245   -0.050637
      6          8           0        1.786293   -0.601556   -1.247583
      7          7           0        1.047138    0.314639    0.712127
      8          1           0        1.239611    0.403613    1.699422
      9          6           0       -0.080717    1.125609    0.218810
     10          1           0       -0.163977    1.953983    0.929809
     11          6           0        0.095235    1.735675   -1.173956
     12          1           0        0.176770    0.995354   -1.967998
     13          1           0       -0.758447    2.391995   -1.373799
     14          1           0        1.006647    2.341778   -1.199855
     15          6           0       -1.381680    0.328738    0.466649
     16          8           0       -2.003728    0.452528    1.515156
     17          7           0       -1.759888   -0.494480   -0.552918
     18          1           0       -1.076495   -0.674053   -1.277976
     19          6           0       -2.868360   -1.424487   -0.413424
     20          1           0       -3.562544   -1.011381    0.319575
     21          1           0       -3.378772   -1.543070   -1.374024
     22          1           0       -2.538370   -2.411383   -0.062279
 ---------------------------------------------------------------------

 The electronic state is 1-A.
 Alpha  occ. eigenvalues --  -19.11292 -19.10901 -14.36817 -14.35765 -10.29350
 Alpha  occ. eigenvalues --  -10.28061 -10.23910 -10.21474 -10.19627 -10.18446
 Alpha  occ. eigenvalues --   -1.03391  -1.02607  -0.92711  -0.91477  -0.78289
 Alpha  occ. eigenvalues --   -0.73183  -0.70355  -0.65511  -0.58640  -0.56799
 Alpha  occ. eigenvalues --   -0.53009  -0.50893  -0.46843  -0.45482  -0.44443
 Alpha  occ. eigenvalues --   -0.44326  -0.42101  -0.41615  -0.40492  -0.39570
 Alpha  occ. eigenvalues --   -0.39128  -0.38050  -0.37038  -0.35940  -0.35513
 Alpha  occ. eigenvalues --   -0.27287  -0.25181  -0.24949  -0.23591
 Alpha virt. eigenvalues --    0.01651   0.03322   0.06441   0.09264   0.11563
 Alpha virt. eigenvalues --    0.12501   0.13739   0.15354   0.15545   0.16346
 Alpha virt. eigenvalues --    0.17036   0.17597   0.18229   0.18993   0.19967

 Mulliken atomic charges:
              1
     1  H    0.187499
     2  C   -0.536609
     3  H    0.185058
     4  H    0.148734
     5  C    0.599047
     6  O   -0.523156
     7  N   -0.598294
     8  H    0.333837
     9  C   -0.050125
    10  H    0.165640
    11  C   -0.456223
    12  H    0.185853
    13  H    0.155101
    14  H    0.155701
    15  C    0.598862
    16  O   -0.518436
    17  N   -0.581107
    18  H    0.344312
    19  C   -0.307786
    20  H    0.197018
    21  H    0.155812
    22  H    0.159263
 Sum of Mulliken atomic charges =   0.00000

 Dipole moment (field-independent basis, Debye):
    X=              1.3986    Y=             -0.0628    Z=              0.2217  Tot=              1.4174
 Quadrupole moment (field-independent basis, Debye-Ang):
   XX=            -58.8670   YY=            -56.7499   ZZ=            -63.6059
   XY=              4.6004   XZ=             12.6795   YZ=             -1.4335

 Normal termination of Gaussian 09 at Fri Feb 10 18:59:39 2017.
