 Gaussian 09, Revision A.02,
 Gaussian 09:  EM64L-G09RevA.02 11-Jun-2009

 ----------------------------------------------------------------------
 # b3lyp/6-31G* Opt=(ModRedundant, maxcycles=1000, calcfc) geom=nocrowd
 ----------------------------------------------------------------------

 ------------------
 Phi Psi fixed scan
 ------------------
 Symbolic Z-matrix:
 Charge =  0 Multiplicity = 1

 SCF Done:  E(RB3LYP) =  -495.817100722     A.U. after   15 cycles

  Exact polarizability:   0.000   0.000   0.000   0.000   0.000   0.000
 Approx polarizability: 117.931  -9.314 113.619 -10.355  -1.701 103.593

 SCF Done:  E(RB3LYP) =  -495.825915040     A.U. after   13 cycles
 SCF Done:  E(RB3LYP) =  -495.836920067     A.U. after   13 cycles
 SCF Done:  E(RB3LYP) =  -495.836522522     A.U. after   15 cycles
 SCF Done:  E(RB3LYP) =  -495.837294379     A.U. after   13 cycles
 SCF Done:  E(RB3LYP) =  -495.837943836     A.U. after   11 cycles
 SCF Done:  E(RB3LYP) =  -495.838688512     A.U. after   13 cycles
 SCF Done:  E(RB3LYP) =  -495.837672185     A.U. after   13 cycles
 SCF Done:  E(RB3LYP) =  -495.839150243     A.U. after   12 cycles
 SCF Done:  E(RB3LYP) =  -495.839579823     A.U. after   12 cycles
 SCF Done:  E(RB3LYP) =  -495.808663957     A.U. after   14 cycles
 SCF Done:  E(RB3LYP) =  -495.839864475     A.U. after   13 cycles
 SCF Done:  E(RB3LYP) =  -495.839895863     A.U. after   11 cycles
 SCF Done:  E(RB3LYP) =  -495.839910265     A.U. after   10 cycles
 SCF Done:  E(RB3LYP) =  -495.839939758     A.U. after   12 cycles
 SCF Done:  E(RB3LYP) =  -495.839966309     A.U. after   10 cycles
 SCF Done:  E(RB3LYP) =  -495.839975459     A.U. after   11 cycles
 SCF Done:  E(RB3LYP) =  -495.839977647     A.U. after    8 cycles
 SCF Done:  E(RB3LYP) =  -495.839978139     A.U. after    9 cycles
 SCF Done:  E(RB3LYP) =  -495.839978196     A.U. after    7 cycles
 Optimization completed.
    -- Stationary point found.

                         Standard orientation:
 ---------------------------------------------------------------------
 Center     Atomic      Atomic             Coordinates (Angstroms)
 Number     Number       Type             X           Y           Z
 ---------------------------------------------------------------------
      1          1           0        4.122042   -1.005458   -0.303926
      2          6           0        3.128107   -1.279290    0.052942
      3          1           0        3.198198   -1.659011    1.078145
      4          1           0        2.737360   -2.084312   -0.581317
      5          6           0        2.216692   -0.061056   -0.057355
      6          8           0        2.487072    0.882546   -0.785333
      7          7           0        1.103558   -0.139535    0.753178
      8          1           0        0.934469   -1.069671    1.116129
      9          6           0       -0.130453    0.631597    0.648155
     10          1           0       -0.439577    0.878420    1.676018
     11          6           0       -0.019600    1.955716   -0.125585
     12          1           0        0.188053    1.792220   -1.182931
     13          1           0       -0.962588    2.506460   -0.028074
     14          1           0        0.783274    2.573429    0.279589
     15          6           0       -1.236401   -0.288203    0.064356
     16          8           0       -0.978251   -1.378174   -0.431808
     17          7           0       -2.506500    0.189130    0.207084
     18          1           0       -2.635053    1.112091    0.596703
     19          6           0       -3.672449   -0.511720   -0.303622
     20          1           0       -3.339424   -1.493327   -0.642772
     21          1           0       -4.425751   -0.637055    0.482205
     22          1           0       -4.126348    0.021807   -1.147821
 ---------------------------------------------------------------------

 The electronic state is 1-A.
 Alpha  occ. eigenvalues --  -19.11861 -19.10180 -14.36976 -14.35121 -10.28979
 Alpha  occ. eigenvalues --  -10.28107 -10.24205 -10.22397 -10.18492 -10.18184
 Alpha  occ. eigenvalues --   -1.03883  -1.01987  -0.92720  -0.91608  -0.78090
 Alpha  occ. eigenvalues --   -0.72390  -0.70839  -0.64983  -0.59338  -0.55338
 Alpha  occ. eigenvalues --   -0.53403  -0.50082  -0.47127  -0.45689  -0.44759
 Alpha  occ. eigenvalues --   -0.43789  -0.42513  -0.40827  -0.40246  -0.39631
 Alpha  occ. eigenvalues --   -0.38834  -0.37917  -0.37208  -0.36018  -0.34739
 Alpha  occ. eigenvalues --   -0.26093  -0.25989  -0.24755  -0.23442
 Alpha virt. eigenvalues --    0.02065   0.03585   0.05992   0.09261   0.11489
 Alpha virt. eigenvalues --    0.13435   0.14655   0.15000   0.15514   0.16065
 Alpha virt. eigenvalues --    0.16210   0.17059   0.18295   0.18899   0.19169

 Mulliken atomic charges:
              1
     1  H    0.182727
     2  C   -0.547825
     3  H    0.155436
     4  H    0.185920
     5  C    0.588268
     6  O   -0.502787
     7  N   -0.576714
     8  H    0.327690
     9  C   -0.044413
    10  H    0.148840
    11  C   -0.433604
    12  H    0.190719
    13  H    0.119190
    14  H    0.181854
    15  C    0.587174
    16  O   -0.516379
    17  N   -0.587827
    18  H    0.327570
    19  C   -0.310611
    20  H    0.205795
    21  H    0.157611
    22  H    0.161364
 Sum of Mulliken atomic charges =   0.00000

 Dipole moment (field-independent basis, Debye):
    X=             -3.4692    Y=              0.3412    Z=              2.6732  Tot=              4.3929
 Quadrupole moment (field-independent basis, Debye-Ang):
   XX=            -53.8669   YY=            -60.6461   ZZ=            -60.5462
   XY=             -9.5761   XZ=              2.4286   YZ=              0.3199

 Normal termination of Gaussian 09 at Fri Feb 10 18:50:50 2017.
