 Gaussian 09, Revision A.02,
 Gaussian 09:  EM64L-G09RevA.02 11-Jun-2009

 ----------------------------------------------------------------------
 # b3lyp/6-31G* Opt=(ModRedundant, maxcycles=1000, calcfc) geom=nocrowd
 ----------------------------------------------------------------------

 ------------------
 Phi Psi fixed scan
 ------------------
 Symbolic Z-matrix:
 Charge =  0 Multiplicity = 1

 SCF Done:  E(RB3LYP) =  -495.812844640     A.U. after   15 cycles

  Exact polarizability:   0.000   0.000   0.000   0.000   0.000   0.000
 Approx polarizability: 106.321  -2.074 133.165  -1.508  17.611  97.143

 SCF Done:  E(RB3LYP) =  -495.824464302     A.U. after   15 cycles
 SCF Done:  E(RB3LYP) =  -495.835836870     A.U. after   16 cycles
 SCF Done:  E(RB3LYP) =  -495.837969325     A.U. after   15 cycles
 SCF Done:  E(RB3LYP) =  -495.820873299     A.U. after   15 cycles
 SCF Done:  E(RB3LYP) =  -495.839968097     A.U. after   15 cycles
 SCF Done:  E(RB3LYP) =  -495.840471067     A.U. after   12 cycles
 SCF Done:  E(RB3LYP) =  -495.841004093     A.U. after   12 cycles
 SCF Done:  E(RB3LYP) =  -495.840658086     A.U. after   13 cycles
 SCF Done:  E(RB3LYP) =  -495.841061564     A.U. after   12 cycles
 SCF Done:  E(RB3LYP) =  -495.841573020     A.U. after   10 cycles
 SCF Done:  E(RB3LYP) =  -495.841582763     A.U. after   10 cycles
 SCF Done:  E(RB3LYP) =  -495.841616676     A.U. after   12 cycles
 SCF Done:  E(RB3LYP) =  -495.841619987     A.U. after   10 cycles
 SCF Done:  E(RB3LYP) =  -495.841625051     A.U. after   10 cycles
 SCF Done:  E(RB3LYP) =  -495.841627737     A.U. after   10 cycles
 SCF Done:  E(RB3LYP) =  -495.841629897     A.U. after   10 cycles
 SCF Done:  E(RB3LYP) =  -495.841630930     A.U. after   10 cycles
 SCF Done:  E(RB3LYP) =  -495.841630840     A.U. after    7 cycles
 SCF Done:  E(RB3LYP) =  -495.841630798     A.U. after    6 cycles
 Optimization completed.
    -- Stationary point found.

                         Standard orientation:
 ---------------------------------------------------------------------
 Center     Atomic      Atomic             Coordinates (Angstroms)
 Number     Number       Type             X           Y           Z
 ---------------------------------------------------------------------
      1          1           0       -4.058640   -0.737572    0.147510
      2          6           0       -3.088811   -1.239789    0.219682
      3          1           0       -2.984285   -1.928301   -0.624580
      4          1           0       -3.088339   -1.813628    1.151322
      5          6           0       -1.998558   -0.175957    0.301219
      6          8           0       -1.982488    0.644682    1.211768
      7          7           0       -1.081615   -0.226433   -0.713326
      8          1           0       -1.113170   -1.025538   -1.331009
      9          6           0        0.082632    0.645639   -0.932010
     10          1           0        0.175332    0.736560   -2.020400
     11          6           0       -0.046582    2.059069   -0.361737
     12          1           0       -0.168153    2.076695    0.721187
     13          1           0        0.837615    2.637772   -0.650761
     14          1           0       -0.929249    2.549438   -0.782481
     15          6           0        1.338584   -0.168658   -0.540306
     16          8           0        1.721398   -1.074229   -1.275337
     17          7           0        1.929668    0.148099    0.642496
     18          1           0        1.490082    0.845425    1.225548
     19          6           0        3.044915   -0.609087    1.184853
     20          1           0        3.429429   -1.245011    0.386516
     21          1           0        3.836786    0.065243    1.527792
     22          1           0        2.731858   -1.243676    2.023506
 ---------------------------------------------------------------------

 The electronic state is 1-A.
 Alpha  occ. eigenvalues --  -19.11055 -19.10617 -14.36509 -14.36379 -10.28886
 Alpha  occ. eigenvalues --  -10.28466 -10.24020 -10.21924 -10.19114 -10.18585
 Alpha  occ. eigenvalues --   -1.03273  -1.02455  -0.92428  -0.92003  -0.78263
 Alpha  occ. eigenvalues --   -0.72838  -0.70718  -0.65654  -0.59021  -0.56545
 Alpha  occ. eigenvalues --   -0.53229  -0.50951  -0.46550  -0.45766  -0.44707
 Alpha  occ. eigenvalues --   -0.44139  -0.42381  -0.41393  -0.40082  -0.39702
 Alpha  occ. eigenvalues --   -0.38907  -0.38362  -0.37411  -0.35937  -0.35260
 Alpha  occ. eigenvalues --   -0.26899  -0.25488  -0.24394  -0.23729
 Alpha virt. eigenvalues --    0.01805   0.03827   0.07061   0.08403   0.11387
 Alpha virt. eigenvalues --    0.12469   0.13962   0.15231   0.15883   0.16199
 Alpha virt. eigenvalues --    0.17091   0.17526   0.18212   0.18880   0.19629

 Mulliken atomic charges:
              1
     1  H    0.185709
     2  C   -0.534076
     3  H    0.145486
     4  H    0.184415
     5  C    0.593937
     6  O   -0.516863
     7  N   -0.596495
     8  H    0.335770
     9  C   -0.030989
    10  H    0.166805
    11  C   -0.471760
    12  H    0.186675
    13  H    0.149218
    14  H    0.166866
    15  C    0.597470
    16  O   -0.527975
    17  N   -0.585042
    18  H    0.339576
    19  C   -0.311502
    20  H    0.202970
    21  H    0.157713
    22  H    0.162090
 Sum of Mulliken atomic charges =   0.00000

 Dipole moment (field-independent basis, Debye):
    X=              0.2022    Y=              0.2000    Z=              0.1325  Tot=              0.3137
 Quadrupole moment (field-independent basis, Debye-Ang):
   XX=            -57.9338   YY=            -59.4079   ZZ=            -61.5491
   XY=              7.8503   XZ=             11.0286   YZ=             -3.8998

 Normal termination of Gaussian 09 at Fri Feb 10 18:54:14 2017.
