 Gaussian 09, Revision A.02,
 Gaussian 09:  EM64L-G09RevA.02 11-Jun-2009

 ----------------------------------------------------------------------
 # b3lyp/6-31G* Opt=(ModRedundant, maxcycles=1000, calcfc) geom=nocrowd
 ----------------------------------------------------------------------

 ------------------
 Phi Psi fixed scan
 ------------------
 Symbolic Z-matrix:
 Charge =  0 Multiplicity = 1

 SCF Done:  E(RB3LYP) =  -495.812557081     A.U. after   15 cycles

  Exact polarizability:   0.000   0.000   0.000   0.000   0.000   0.000
 Approx polarizability: 107.344  -3.120 132.577   0.134 -17.010  96.309

 SCF Done:  E(RB3LYP) =  -495.824086247     A.U. after   13 cycles
 SCF Done:  E(RB3LYP) =  -495.835156750     A.U. after   14 cycles
 SCF Done:  E(RB3LYP) =  -495.837473251     A.U. after   16 cycles
 SCF Done:  E(RB3LYP) =  -495.822322826     A.U. after   15 cycles
 SCF Done:  E(RB3LYP) =  -495.839645498     A.U. after   15 cycles
 SCF Done:  E(RB3LYP) =  -495.840219331     A.U. after   12 cycles
 SCF Done:  E(RB3LYP) =  -495.840928947     A.U. after   12 cycles
 SCF Done:  E(RB3LYP) =  -495.841084307     A.U. after   12 cycles
 SCF Done:  E(RB3LYP) =  -495.841035325     A.U. after   13 cycles
 SCF Done:  E(RB3LYP) =  -495.841897850     A.U. after   11 cycles
 SCF Done:  E(RB3LYP) =  -495.841933746     A.U. after   11 cycles
 SCF Done:  E(RB3LYP) =  -495.841954782     A.U. after   11 cycles
 SCF Done:  E(RB3LYP) =  -495.841959115     A.U. after   10 cycles
 SCF Done:  E(RB3LYP) =  -495.841959419     A.U. after    8 cycles
 SCF Done:  E(RB3LYP) =  -495.841959813     A.U. after    7 cycles
 SCF Done:  E(RB3LYP) =  -495.841960067     A.U. after    7 cycles
 SCF Done:  E(RB3LYP) =  -495.841960567     A.U. after    8 cycles
 SCF Done:  E(RB3LYP) =  -495.841961218     A.U. after    9 cycles
 SCF Done:  E(RB3LYP) =  -495.841961555     A.U. after    7 cycles
 Optimization completed.
    -- Stationary point found.

                         Standard orientation:
 ---------------------------------------------------------------------
 Center     Atomic      Atomic             Coordinates (Angstroms)
 Number     Number       Type             X           Y           Z
 ---------------------------------------------------------------------
      1          1           0       -4.078630   -0.761140    0.372220
      2          6           0       -3.083481   -1.214608    0.385848
      3          1           0       -3.015795   -1.951814   -0.420018
      4          1           0       -2.972167   -1.728383    1.346466
      5          6           0       -2.044577   -0.100408    0.303326
      6          8           0       -2.082717    0.857168    1.067018
      7          7           0       -1.112605   -0.273934   -0.685516
      8          1           0       -1.074710   -1.182643   -1.128205
      9          6           0        0.081941    0.536222   -0.960029
     10          1           0        0.195151    0.528846   -2.051866
     11          6           0       -0.008759    1.998100   -0.519074
     12          1           0       -0.110081    2.110977    0.560865
     13          1           0        0.880495    2.531109   -0.875207
     14          1           0       -0.888012    2.469716   -0.965486
     15          6           0        1.298574   -0.285216   -0.467768
     16          8           0        1.494944   -1.397989   -0.949797
     17          7           0        2.076636    0.267851    0.498606
     18          1           0        1.804061    1.159365    0.885035
     19          6           0        3.209542   -0.427950    1.085387
     20          1           0        3.368464   -1.339672    0.508339
     21          1           0        4.111404    0.192565    1.041655
     22          1           0        3.014351   -0.696604    2.130668
 ---------------------------------------------------------------------

 The electronic state is 1-A.
 Alpha  occ. eigenvalues --  -19.11231 -19.10342 -14.36875 -14.35936 -10.28722
 Alpha  occ. eigenvalues --  -10.28591 -10.24098 -10.22154 -10.18804 -10.18674
 Alpha  occ. eigenvalues --   -1.03445  -1.02230  -0.92516  -0.91954  -0.78231
 Alpha  occ. eigenvalues --   -0.72687  -0.70835  -0.65666  -0.59286  -0.56104
 Alpha  occ. eigenvalues --   -0.53311  -0.50876  -0.46515  -0.45857  -0.44874
 Alpha  occ. eigenvalues --   -0.44022  -0.42500  -0.41315  -0.39940  -0.39702
 Alpha  occ. eigenvalues --   -0.38775  -0.38602  -0.37508  -0.35868  -0.35058
 Alpha  occ. eigenvalues --   -0.26685  -0.25774  -0.24315  -0.23677
 Alpha virt. eigenvalues --    0.01931   0.03781   0.07277   0.08746   0.11258
 Alpha virt. eigenvalues --    0.12557   0.14368   0.15069   0.15710   0.16055
 Alpha virt. eigenvalues --    0.16695   0.17678   0.18207   0.18887   0.19286

 Mulliken atomic charges:
              1
     1  H    0.184826
     2  C   -0.534437
     3  H    0.147145
     4  H    0.183090
     5  C    0.592380
     6  O   -0.514850
     7  N   -0.591842
     8  H    0.336690
     9  C   -0.028599
    10  H    0.167412
    11  C   -0.477387
    12  H    0.187297
    13  H    0.142728
    14  H    0.173575
    15  C    0.602596
    16  O   -0.533058
    17  N   -0.589854
    18  H    0.338373
    19  C   -0.313278
    20  H    0.205090
    21  H    0.158861
    22  H    0.163241
 Sum of Mulliken atomic charges =   0.00000

 Dipole moment (field-independent basis, Debye):
    X=              1.2094    Y=              0.5181    Z=             -0.1029  Tot=              1.3197
 Quadrupole moment (field-independent basis, Debye-Ang):
   XX=            -56.3667   YY=            -61.1241   ZZ=            -60.4906
   XY=              9.8379   XZ=              8.6575   YZ=             -4.0178

 Normal termination of Gaussian 09 at Fri Feb 10 18:50:43 2017.
