 Gaussian 09, Revision A.02,
 Gaussian 09:  EM64L-G09RevA.02 11-Jun-2009

 ----------------------------------------------------------------------
 # b3lyp/6-31G* Opt=(ModRedundant, maxcycles=1000, calcfc) geom=nocrowd
 ----------------------------------------------------------------------

 ------------------
 Phi Psi fixed scan
 ------------------
 Symbolic Z-matrix:
 Charge =  0 Multiplicity = 1

 SCF Done:  E(RB3LYP) =  -495.812554079     A.U. after   16 cycles

  Exact polarizability:   0.000   0.000   0.000   0.000   0.000   0.000
 Approx polarizability: 113.734 -10.888 113.176 -11.790  20.330 110.455

 SCF Done:  E(RB3LYP) =  -495.821648040     A.U. after   14 cycles
 SCF Done:  E(RB3LYP) =  -495.834078425     A.U. after   13 cycles
 SCF Done:  E(RB3LYP) =  -495.833993335     A.U. after   15 cycles
 SCF Done:  E(RB3LYP) =  -495.834574411     A.U. after   14 cycles
 SCF Done:  E(RB3LYP) =  -495.835085433     A.U. after   12 cycles
 SCF Done:  E(RB3LYP) =  -495.835706905     A.U. after   13 cycles
 SCF Done:  E(RB3LYP) =  -495.830915929     A.U. after   13 cycles
 SCF Done:  E(RB3LYP) =  -495.835991258     A.U. after   13 cycles
 SCF Done:  E(RB3LYP) =  -495.836132896     A.U. after   11 cycles
 SCF Done:  E(RB3LYP) =  -495.835807606     A.U. after   12 cycles
 SCF Done:  E(RB3LYP) =  -495.836317376     A.U. after   12 cycles
 SCF Done:  E(RB3LYP) =  -495.836400133     A.U. after   12 cycles
 SCF Done:  E(RB3LYP) =  -495.836413728     A.U. after   10 cycles
 SCF Done:  E(RB3LYP) =  -495.836418125     A.U. after   10 cycles
 SCF Done:  E(RB3LYP) =  -495.836420332     A.U. after   10 cycles
 SCF Done:  E(RB3LYP) =  -495.836421441     A.U. after    9 cycles
 SCF Done:  E(RB3LYP) =  -495.836421679     A.U. after    8 cycles
 SCF Done:  E(RB3LYP) =  -495.836421786     A.U. after    7 cycles
 SCF Done:  E(RB3LYP) =  -495.836421847     A.U. after    7 cycles
 Optimization completed.
    -- Stationary point found.

                         Standard orientation:
 ---------------------------------------------------------------------
 Center     Atomic      Atomic             Coordinates (Angstroms)
 Number     Number       Type             X           Y           Z
 ---------------------------------------------------------------------
      1          1           0       -3.891009   -1.529600    0.007409
      2          6           0       -2.814155   -1.698484    0.075164
      3          1           0       -2.503623   -2.376049   -0.727411
      4          1           0       -2.612612   -2.184734    1.036714
      5          6           0       -2.110847   -0.342997    0.047886
      6          8           0       -2.593033    0.634207    0.597933
      7          7           0       -0.920026   -0.352560   -0.642965
      8          1           0       -0.616138   -1.257373   -0.976542
      9          6           0        0.111396    0.692791   -0.722604
     10          1           0        0.439211    0.712653   -1.773627
     11          6           0       -0.345731    2.098711   -0.338971
     12          1           0       -0.572679    2.156348    0.723948
     13          1           0        0.469007    2.795689   -0.567435
     14          1           0       -1.232023    2.391942   -0.904408
     15          6           0        1.307780    0.251470    0.156078
     16          8           0        1.359326    0.479511    1.355478
     17          7           0        2.251903   -0.486988   -0.510293
     18          1           0        2.216250   -0.511091   -1.519723
     19          6           0        3.450729   -0.984739    0.144437
     20          1           0        3.295702   -0.891094    1.220046
     21          1           0        3.621104   -2.036520   -0.109483
     22          1           0        4.338300   -0.403603   -0.135914
 ---------------------------------------------------------------------

 The electronic state is 1-A.
 Alpha  occ. eigenvalues --  -19.11522 -19.10236 -14.37169 -14.36241 -10.28750
 Alpha  occ. eigenvalues --  -10.28523 -10.24228 -10.22425 -10.18875 -10.17085
 Alpha  occ. eigenvalues --   -1.03601  -1.02230  -0.92914  -0.91880  -0.77922
 Alpha  occ. eigenvalues --   -0.72456  -0.71343  -0.64407  -0.59183  -0.56438
 Alpha  occ. eigenvalues --   -0.53310  -0.50310  -0.47460  -0.46221  -0.45158
 Alpha  occ. eigenvalues --   -0.43852  -0.42132  -0.40611  -0.39778  -0.39531
 Alpha  occ. eigenvalues --   -0.38497  -0.37179  -0.36625  -0.35774  -0.35193
 Alpha  occ. eigenvalues --   -0.27457  -0.26036  -0.23828  -0.23524
 Alpha virt. eigenvalues --    0.01236   0.04325   0.05125   0.08663   0.11595
 Alpha virt. eigenvalues --    0.12845   0.13842   0.14954   0.15525   0.15963
 Alpha virt. eigenvalues --    0.17203   0.17555   0.18396   0.19183   0.19554

 Mulliken atomic charges:
              1
     1  H    0.186817
     2  C   -0.541537
     3  H    0.141349
     4  H    0.186030
     5  C    0.599465
     6  O   -0.495792
     7  N   -0.592459
     8  H    0.316681
     9  C   -0.034899
    10  H    0.125756
    11  C   -0.433128
    12  H    0.206866
    13  H    0.134648
    14  H    0.161941
    15  C    0.601570
    16  O   -0.502408
    17  N   -0.594847
    18  H    0.321257
    19  C   -0.311631
    20  H    0.207504
    21  H    0.156099
    22  H    0.160719
 Sum of Mulliken atomic charges =   0.00000

 Dipole moment (field-independent basis, Debye):
    X=              2.9583    Y=             -3.3101    Z=             -4.4593  Tot=              6.2924
 Quadrupole moment (field-independent basis, Debye-Ang):
   XX=            -58.7463   YY=            -56.8627   ZZ=            -61.3039
   XY=              2.8341   XZ=             -2.3532   YZ=             -1.6269

 Normal termination of Gaussian 09 at Fri Feb 10 19:03:05 2017.
