 Gaussian 09, Revision A.02,
 Gaussian 09:  EM64L-G09RevA.02 11-Jun-2009

 ----------------------------------------------------------------------
 # b3lyp/6-31G* Opt=(ModRedundant, maxcycles=1000, calcfc) geom=nocrowd
 ----------------------------------------------------------------------

 ------------------
 Phi Psi fixed scan
 ------------------
 Symbolic Z-matrix:
 Charge =  0 Multiplicity = 1

 SCF Done:  E(RB3LYP) =  -495.812145398     A.U. after   15 cycles

  Exact polarizability:   0.000   0.000   0.000   0.000   0.000   0.000
 Approx polarizability: 109.566  -7.011 130.398   0.662 -14.689  95.873

 SCF Done:  E(RB3LYP) =  -495.823620062     A.U. after   13 cycles
 SCF Done:  E(RB3LYP) =  -495.834754339     A.U. after   16 cycles
 SCF Done:  E(RB3LYP) =  -495.836806354     A.U. after   15 cycles
 SCF Done:  E(RB3LYP) =  -495.820433693     A.U. after   16 cycles
 SCF Done:  E(RB3LYP) =  -495.839106983     A.U. after   16 cycles
 SCF Done:  E(RB3LYP) =  -495.839800073     A.U. after   12 cycles
 SCF Done:  E(RB3LYP) =  -495.840665500     A.U. after   12 cycles
 SCF Done:  E(RB3LYP) =  -495.841169250     A.U. after   12 cycles
 SCF Done:  E(RB3LYP) =  -495.841180798     A.U. after   12 cycles
 SCF Done:  E(RB3LYP) =  -495.842184196     A.U. after   12 cycles
 SCF Done:  E(RB3LYP) =  -495.842189748     A.U. after   10 cycles
 SCF Done:  E(RB3LYP) =  -495.842190521     A.U. after    8 cycles
 SCF Done:  E(RB3LYP) =  -495.842190725     A.U. after    7 cycles
 SCF Done:  E(RB3LYP) =  -495.842190795     A.U. after    6 cycles
 SCF Done:  E(RB3LYP) =  -495.842190910     A.U. after    7 cycles
 SCF Done:  E(RB3LYP) =  -495.842190992     A.U. after    6 cycles
 SCF Done:  E(RB3LYP) =  -495.842191081     A.U. after    6 cycles
 SCF Done:  E(RB3LYP) =  -495.842191138     A.U. after    7 cycles
 SCF Done:  E(RB3LYP) =  -495.842191149     A.U. after    6 cycles
 Optimization completed.
    -- Stationary point found.

                         Standard orientation:
 ---------------------------------------------------------------------
 Center     Atomic      Atomic             Coordinates (Angstroms)
 Number     Number       Type             X           Y           Z
 ---------------------------------------------------------------------
      1          1           0       -4.100769   -0.769405    0.489818
      2          6           0       -3.104021   -1.202830    0.376506
      3          1           0       -3.099000   -1.878890   -0.484001
      4          1           0       -2.892558   -1.785149    1.280506
      5          6           0       -2.091810   -0.066002    0.273552
      6          8           0       -2.167338    0.918914    0.998076
      7          7           0       -1.134970   -0.257834   -0.690189
      8          1           0       -1.050415   -1.195443   -1.062882
      9          6           0        0.085717    0.525400   -0.912266
     10          1           0        0.235253    0.533887   -2.001521
     11          6           0        0.017799    1.984267   -0.455292
     12          1           0       -0.061009    2.084793    0.627793
     13          1           0        0.905798    2.513313   -0.822257
     14          1           0       -0.861573    2.471589   -0.882288
     15          6           0        1.269330   -0.328844   -0.391065
     16          8           0        1.325920   -1.516432   -0.701424
     17          7           0        2.205827    0.295600    0.369361
     18          1           0        2.043648    1.252398    0.645442
     19          6           0        3.353610   -0.402151    0.925278
     20          1           0        3.373730   -1.400747    0.487498
     21          1           0        4.282965    0.122909    0.678722
     22          1           0        3.275516   -0.492506    2.015469
 ---------------------------------------------------------------------

 The electronic state is 1-A.
 Alpha  occ. eigenvalues --  -19.11457 -19.10201 -14.37062 -14.35517 -10.28919
 Alpha  occ. eigenvalues --  -10.28365 -10.24163 -10.22292 -10.18731 -10.18563
 Alpha  occ. eigenvalues --   -1.03648  -1.02073  -0.92695  -0.91731  -0.78196
 Alpha  occ. eigenvalues --   -0.72585  -0.70864  -0.65618  -0.59442  -0.55696
 Alpha  occ. eigenvalues --   -0.53373  -0.50720  -0.46608  -0.45840  -0.44907
 Alpha  occ. eigenvalues --   -0.43971  -0.42593  -0.41273  -0.39971  -0.39451
 Alpha  occ. eigenvalues --   -0.39122  -0.38514  -0.37439  -0.35832  -0.34884
 Alpha  occ. eigenvalues --   -0.26549  -0.25973  -0.24454  -0.23539
 Alpha virt. eigenvalues --    0.02050   0.03611   0.07264   0.09306   0.11221
 Alpha virt. eigenvalues --    0.12706   0.14807   0.14901   0.15410   0.15935
 Alpha virt. eigenvalues --    0.16495   0.17364   0.18060   0.18853   0.19411

 Mulliken atomic charges:
              1
     1  H    0.183823
     2  C   -0.536274
     3  H    0.149919
     4  H    0.182192
     5  C    0.590339
     6  O   -0.513206
     7  N   -0.587579
     8  H    0.337617
     9  C   -0.034955
    10  H    0.168798
    11  C   -0.476857
    12  H    0.187276
    13  H    0.136184
    14  H    0.178740
    15  C    0.609605
    16  O   -0.534403
    17  N   -0.594444
    18  H    0.338139
    19  C   -0.313571
    20  H    0.205815
    21  H    0.159158
    22  H    0.163685
 Sum of Mulliken atomic charges =   0.00000

 Dipole moment (field-independent basis, Debye):
    X=              1.9438    Y=              0.6491    Z=             -0.4388  Tot=              2.0958
 Quadrupole moment (field-independent basis, Debye-Ang):
   XX=            -55.2372   YY=            -61.7688   ZZ=            -60.2123
   XY=             10.2371   XZ=              7.2153   YZ=             -3.5634

 Normal termination of Gaussian 09 at Fri Feb 10 18:47:40 2017.
