 Gaussian 09, Revision A.02,
 Gaussian 09:  EM64L-G09RevA.02 11-Jun-2009

 ----------------------------------------------------------------------
 # b3lyp/6-31G* Opt=(ModRedundant, maxcycles=1000, calcfc) geom=nocrowd
 ----------------------------------------------------------------------

 ------------------
 Phi Psi fixed scan
 ------------------
 Symbolic Z-matrix:
 Charge =  0 Multiplicity = 1

 SCF Done:  E(RB3LYP) =  -495.818416366     A.U. after   15 cycles

  Exact polarizability:   0.000   0.000   0.000   0.000   0.000   0.000
 Approx polarizability: 113.248  10.805 106.922  12.875   7.030 115.564

 SCF Done:  E(RB3LYP) =  -495.828911509     A.U. after   16 cycles
 SCF Done:  E(RB3LYP) =  -495.840127455     A.U. after   15 cycles
 SCF Done:  E(RB3LYP) =  -495.828133055     A.U. after   13 cycles
 SCF Done:  E(RB3LYP) =  -495.842196146     A.U. after   13 cycles
 SCF Done:  E(RB3LYP) =  -495.842840226     A.U. after   11 cycles
 SCF Done:  E(RB3LYP) =  -495.843623284     A.U. after   12 cycles
 SCF Done:  E(RB3LYP) =  -495.843796832     A.U. after   12 cycles
 SCF Done:  E(RB3LYP) =  -495.844141898     A.U. after   12 cycles
 SCF Done:  E(RB3LYP) =  -495.830921125     A.U. after   14 cycles
 SCF Done:  E(RB3LYP) =  -495.844319303     A.U. after   12 cycles
 SCF Done:  E(RB3LYP) =  -495.844402676     A.U. after   12 cycles
 SCF Done:  E(RB3LYP) =  -495.844439997     A.U. after   11 cycles
 SCF Done:  E(RB3LYP) =  -495.844489707     A.U. after   12 cycles
 SCF Done:  E(RB3LYP) =  -495.844494968     A.U. after   10 cycles
 SCF Done:  E(RB3LYP) =  -495.844495291     A.U. after    7 cycles
 SCF Done:  E(RB3LYP) =  -495.844495420     A.U. after    7 cycles
 SCF Done:  E(RB3LYP) =  -495.844495510     A.U. after    7 cycles
 SCF Done:  E(RB3LYP) =  -495.844495582     A.U. after    7 cycles
 SCF Done:  E(RB3LYP) =  -495.844495616     A.U. after    7 cycles
 Optimization completed.
    -- Stationary point found.

                         Standard orientation:
 ---------------------------------------------------------------------
 Center     Atomic      Atomic             Coordinates (Angstroms)
 Number     Number       Type             X           Y           Z
 ---------------------------------------------------------------------
      1          1           0       -3.661479   -1.590520   -0.230618
      2          6           0       -3.240929   -0.689796   -0.681634
      3          1           0       -3.957746    0.127795   -0.538572
      4          1           0       -3.114440   -0.845935   -1.758267
      5          6           0       -1.938660   -0.346201    0.027768
      6          8           0       -1.743009   -0.638030    1.204726
      7          7           0       -0.993461    0.270259   -0.749116
      8          1           0       -1.256898    0.442513   -1.709831
      9          6           0        0.119134    1.113870   -0.270573
     10          1           0        0.222179    1.911361   -1.012456
     11          6           0       -0.093974    1.777433    1.096731
     12          1           0       -0.168351    1.047104    1.901778
     13          1           0        0.754321    2.443276    1.284325
     14          1           0       -1.010413    2.376961    1.091282
     15          6           0        1.474618    0.377963   -0.337537
     16          8           0        2.477459    0.941224   -0.761540
     17          7           0        1.444263   -0.900092    0.130560
     18          1           0        0.579407   -1.227858    0.544737
     19          6           0        2.635639   -1.721291    0.237883
     20          1           0        3.445094   -1.192398   -0.267522
     21          1           0        2.918632   -1.885824    1.285273
     22          1           0        2.483509   -2.695072   -0.241548
 ---------------------------------------------------------------------

 The electronic state is 1-A.
 Alpha  occ. eigenvalues --  -19.12123 -19.10462 -14.37054 -14.35300 -10.29904
 Alpha  occ. eigenvalues --  -10.27739 -10.23965 -10.21187 -10.20163 -10.18263
 Alpha  occ. eigenvalues --   -1.03987  -1.02281  -0.93186  -0.90970  -0.78359
 Alpha  occ. eigenvalues --   -0.73522  -0.70399  -0.65154  -0.58407  -0.56912
 Alpha  occ. eigenvalues --   -0.53135  -0.50817  -0.47211  -0.45518  -0.44584
 Alpha  occ. eigenvalues --   -0.43878  -0.42423  -0.41689  -0.40891  -0.40217
 Alpha  occ. eigenvalues --   -0.38649  -0.37955  -0.37064  -0.36110  -0.34898
 Alpha  occ. eigenvalues --   -0.27815  -0.25808  -0.24622  -0.23333
 Alpha virt. eigenvalues --    0.01187   0.03334   0.05788   0.10673   0.11514
 Alpha virt. eigenvalues --    0.12800   0.14008   0.14683   0.16121   0.16574
 Alpha virt. eigenvalues --    0.17025   0.17347   0.18345   0.18515   0.19398

 Mulliken atomic charges:
              1
     1  H    0.189794
     2  C   -0.541142
     3  H    0.184245
     4  H    0.154952
     5  C    0.595456
     6  O   -0.518517
     7  N   -0.596688
     8  H    0.328727
     9  C   -0.057177
    10  H    0.165152
    11  C   -0.454167
    12  H    0.191044
    13  H    0.166845
    14  H    0.150297
    15  C    0.595825
    16  O   -0.522789
    17  N   -0.582899
    18  H    0.348862
    19  C   -0.309688
    20  H    0.198974
    21  H    0.158396
    22  H    0.154497
 Sum of Mulliken atomic charges =   0.00000

 Dipole moment (field-independent basis, Debye):
    X=             -2.7403    Y=             -0.7351    Z=             -1.6112  Tot=              3.2627
 Quadrupole moment (field-independent basis, Debye-Ang):
   XX=            -62.4873   YY=            -57.4124   ZZ=            -60.6952
   XY=             -7.6168   XZ=             10.1544   YZ=              1.5950

 Normal termination of Gaussian 09 at Fri Feb 10 18:54:00 2017.
