 Gaussian 09, Revision A.02,
 Gaussian 09:  EM64L-G09RevA.02 11-Jun-2009

 ----------------------------------------------------------------------
 # b3lyp/6-31G* Opt=(ModRedundant, maxcycles=1000, calcfc) geom=nocrowd
 ----------------------------------------------------------------------

 ------------------
 Phi Psi fixed scan
 ------------------
 Symbolic Z-matrix:
 Charge =  0 Multiplicity = 1

 SCF Done:  E(RB3LYP) =  -495.811450014     A.U. after   16 cycles

  Exact polarizability:   0.000   0.000   0.000   0.000   0.000   0.000
 Approx polarizability: 108.677  -2.019 127.879  -3.254 -17.284 100.320

 SCF Done:  E(RB3LYP) =  -495.822119977     A.U. after   14 cycles
 SCF Done:  E(RB3LYP) =  -495.832774992     A.U. after   16 cycles
 SCF Done:  E(RB3LYP) =  -495.824728982     A.U. after   14 cycles
 SCF Done:  E(RB3LYP) =  -495.835247874     A.U. after   14 cycles
 SCF Done:  E(RB3LYP) =  -495.836499071     A.U. after   12 cycles
 SCF Done:  E(RB3LYP) =  -495.838261919     A.U. after   12 cycles
 SCF Done:  E(RB3LYP) =  -495.839079509     A.U. after   12 cycles
 SCF Done:  E(RB3LYP) =  -495.839585323     A.U. after   12 cycles
 SCF Done:  E(RB3LYP) =  -495.839855189     A.U. after   13 cycles
 SCF Done:  E(RB3LYP) =  -495.839213475     A.U. after   14 cycles
 SCF Done:  E(RB3LYP) =  -495.840032778     A.U. after   14 cycles
 SCF Done:  E(RB3LYP) =  -495.840095526     A.U. after   11 cycles
 SCF Done:  E(RB3LYP) =  -495.840106357     A.U. after   11 cycles
 SCF Done:  E(RB3LYP) =  -495.840119947     A.U. after   10 cycles
 SCF Done:  E(RB3LYP) =  -495.840133027     A.U. after   10 cycles
 SCF Done:  E(RB3LYP) =  -495.840145592     A.U. after   11 cycles
 SCF Done:  E(RB3LYP) =  -495.840146831     A.U. after    9 cycles
 SCF Done:  E(RB3LYP) =  -495.840147193     A.U. after    8 cycles
 SCF Done:  E(RB3LYP) =  -495.840147224     A.U. after    7 cycles
 Optimization completed.
    -- Stationary point found.

                         Standard orientation:
 ---------------------------------------------------------------------
 Center     Atomic      Atomic             Coordinates (Angstroms)
 Number     Number       Type             X           Y           Z
 ---------------------------------------------------------------------
      1          1           0       -3.656934   -1.614805    0.652407
      2          6           0       -3.141478   -1.221608   -0.225549
      3          1           0       -3.857196   -0.618042   -0.797120
      4          1           0       -2.814737   -2.053562   -0.858915
      5          6           0       -1.989016   -0.338129    0.240980
      6          8           0       -2.008423    0.240807    1.314000
      7          7           0       -0.925011   -0.280608   -0.644391
      8          1           0       -1.129435   -0.686136   -1.549335
      9          6           0        0.094511    0.792652   -0.692384
     10          1           0        0.305282    0.927062   -1.762249
     11          6           0       -0.342040    2.148670   -0.135110
     12          1           0       -0.555773    2.092873    0.931129
     13          1           0        0.469375    2.860763   -0.298255
     14          1           0       -1.239514    2.500141   -0.654507
     15          6           0        1.453756    0.344302   -0.097346
     16          8           0        2.262341    1.162205    0.321536
     17          7           0        1.725507   -0.987551   -0.229327
     18          1           0        0.924137   -1.590483   -0.360622
     19          6           0        2.944775   -1.566778    0.309319
     20          1           0        3.712203   -0.791463    0.310604
     21          1           0        2.814331   -1.926601    1.338647
     22          1           0        3.270384   -2.401393   -0.319508
 ---------------------------------------------------------------------

 The electronic state is 1-A.
 Alpha  occ. eigenvalues --  -19.11939 -19.10815 -14.37147 -14.35618 -10.29720
 Alpha  occ. eigenvalues --  -10.28030 -10.24175 -10.21510 -10.20059 -10.16955
 Alpha  occ. eigenvalues --   -1.03891  -1.02690  -0.93337  -0.91146  -0.77999
 Alpha  occ. eigenvalues --   -0.73136  -0.70795  -0.64283  -0.58753  -0.56357
 Alpha  occ. eigenvalues --   -0.52974  -0.50845  -0.47309  -0.45326  -0.45292
 Alpha  occ. eigenvalues --   -0.44342  -0.41920  -0.41535  -0.40577  -0.39193
 Alpha  occ. eigenvalues --   -0.38544  -0.37958  -0.36368  -0.35792  -0.34923
 Alpha  occ. eigenvalues --   -0.28399  -0.25315  -0.25042  -0.23675
 Alpha virt. eigenvalues --    0.01465   0.02262   0.05846   0.10325   0.11205
 Alpha virt. eigenvalues --    0.12838   0.13582   0.14221   0.15748   0.16367
 Alpha virt. eigenvalues --    0.17030   0.17862   0.18013   0.18984   0.19268

 Mulliken atomic charges:
              1
     1  H    0.192425
     2  C   -0.547547
     3  H    0.182116
     4  H    0.151178
     5  C    0.589664
     6  O   -0.480424
     7  N   -0.625059
     8  H    0.323981
     9  C   -0.056878
    10  H    0.164935
    11  C   -0.444208
    12  H    0.200026
    13  H    0.171960
    14  H    0.133295
    15  C    0.617727
    16  O   -0.516332
    17  N   -0.589778
    18  H    0.330490
    19  C   -0.307555
    20  H    0.198224
    21  H    0.160926
    22  H    0.150835
 Sum of Mulliken atomic charges =   0.00000

 Dipole moment (field-independent basis, Debye):
    X=             -1.6134    Y=             -3.6717    Z=             -3.9490  Tot=              5.6284
 Quadrupole moment (field-independent basis, Debye-Ang):
   XX=            -61.6430   YY=            -57.5096   ZZ=            -60.6016
   XY=             -3.6055   XZ=              5.1178   YZ=             -1.6817

 Normal termination of Gaussian 09 at Fri Feb 10 19:03:16 2017.
