 Gaussian 09, Revision A.02,
 Gaussian 09:  EM64L-G09RevA.02 11-Jun-2009

 ----------------------------------------------------------------------
 # b3lyp/6-31G* Opt=(ModRedundant, maxcycles=1000, calcfc) geom=nocrowd
 ----------------------------------------------------------------------

 ------------------
 Phi Psi fixed scan
 ------------------
 Symbolic Z-matrix:
 Charge =  0 Multiplicity = 1

 SCF Done:  E(RB3LYP) =  -495.817907710     A.U. after   16 cycles

  Exact polarizability:   0.000   0.000   0.000   0.000   0.000   0.000
 Approx polarizability: 113.776  10.788 117.196  -8.005   2.240 105.725

 SCF Done:  E(RB3LYP) =  -495.828347402     A.U. after   13 cycles
 SCF Done:  E(RB3LYP) =  -495.838276471     A.U. after   13 cycles
 SCF Done:  E(RB3LYP) =  -495.829217612     A.U. after   14 cycles
 SCF Done:  E(RB3LYP) =  -495.841015952     A.U. after   14 cycles
 SCF Done:  E(RB3LYP) =  -495.841867334     A.U. after   12 cycles
 SCF Done:  E(RB3LYP) =  -495.842890136     A.U. after   12 cycles
 SCF Done:  E(RB3LYP) =  -495.843089371     A.U. after   12 cycles
 SCF Done:  E(RB3LYP) =  -495.843356602     A.U. after   12 cycles
 SCF Done:  E(RB3LYP) =  -495.843218399     A.U. after   12 cycles
 SCF Done:  E(RB3LYP) =  -495.843407998     A.U. after   11 cycles
 SCF Done:  E(RB3LYP) =  -495.843456152     A.U. after   11 cycles
 SCF Done:  E(RB3LYP) =  -495.843471914     A.U. after   11 cycles
 SCF Done:  E(RB3LYP) =  -495.843477082     A.U. after   10 cycles
 SCF Done:  E(RB3LYP) =  -495.843479610     A.U. after   10 cycles
 SCF Done:  E(RB3LYP) =  -495.843480465     A.U. after    9 cycles
 SCF Done:  E(RB3LYP) =  -495.843480800     A.U. after    8 cycles
 SCF Done:  E(RB3LYP) =  -495.843481005     A.U. after    8 cycles
 SCF Done:  E(RB3LYP) =  -495.843481127     A.U. after    8 cycles
 Optimization completed.
    -- Stationary point found.

                         Standard orientation:
 ---------------------------------------------------------------------
 Center     Atomic      Atomic             Coordinates (Angstroms)
 Number     Number       Type             X           Y           Z
 ---------------------------------------------------------------------
      1          1           0       -3.615652   -1.674115    0.211936
      2          6           0       -3.173273   -0.988042   -0.512889
      3          1           0       -3.929401   -0.236937   -0.770918
      4          1           0       -2.915342   -1.538261   -1.424331
      5          6           0       -1.978631   -0.295357    0.135426
      6          8           0       -1.934857   -0.075046    1.336917
      7          7           0       -0.971847    0.039942   -0.743585
      8          1           0       -1.145614   -0.184693   -1.713733
      9          6           0        0.134124    0.987527   -0.524304
     10          1           0        0.271233    1.503977   -1.481609
     11          6           0       -0.125552    2.066265    0.536839
     12          1           0       -0.248368    1.634033    1.529343
     13          1           0        0.730524    2.745483    0.533278
     14          1           0       -1.030949    2.631092    0.293462
     15          6           0        1.501904    0.313413   -0.272033
     16          8           0        2.528040    0.980013   -0.353920
     17          7           0        1.471271   -1.011001    0.029713
     18          1           0        0.564137   -1.442129    0.134510
     19          6           0        2.664935   -1.759600    0.376384
     20          1           0        3.523704   -1.118020    0.173124
     21          1           0        2.670663   -2.036393    1.437919
     22          1           0        2.742581   -2.671602   -0.226389
 ---------------------------------------------------------------------

 The electronic state is 1-A.
 Alpha  occ. eigenvalues --  -19.11795 -19.10429 -14.37186 -14.35869 -10.29791
 Alpha  occ. eigenvalues --  -10.27974 -10.24085 -10.21562 -10.20082 -10.17517
 Alpha  occ. eigenvalues --   -1.03818  -1.02454  -0.93361  -0.91283  -0.78169
 Alpha  occ. eigenvalues --   -0.73248  -0.70835  -0.64795  -0.58597  -0.57098
 Alpha  occ. eigenvalues --   -0.53395  -0.50896  -0.47311  -0.45308  -0.45177
 Alpha  occ. eigenvalues --   -0.44131  -0.42149  -0.41417  -0.40654  -0.39935
 Alpha  occ. eigenvalues --   -0.38685  -0.38034  -0.36711  -0.36038  -0.34485
 Alpha  occ. eigenvalues --   -0.28025  -0.25317  -0.24951  -0.23547
 Alpha virt. eigenvalues --    0.01708   0.03247   0.05581   0.09945   0.11518
 Alpha virt. eigenvalues --    0.12992   0.13874   0.14001   0.16179   0.16423
 Alpha virt. eigenvalues --    0.17007   0.17651   0.18279   0.18697   0.18860

 Mulliken atomic charges:
              1
     1  H    0.189478
     2  C   -0.543358
     3  H    0.185568
     4  H    0.149053
     5  C    0.583538
     6  O   -0.494118
     7  N   -0.629123
     8  H    0.327558
     9  C   -0.033889
    10  H    0.165590
    11  C   -0.449724
    12  H    0.192171
    13  H    0.174161
    14  H    0.146689
    15  C    0.600156
    16  O   -0.527344
    17  N   -0.584520
    18  H    0.341042
    19  C   -0.310613
    20  H    0.202409
    21  H    0.161944
    22  H    0.153332
 Sum of Mulliken atomic charges =   0.00000

 Dipole moment (field-independent basis, Debye):
    X=             -2.2724    Y=             -2.5351    Z=             -2.8302  Tot=              4.4273
 Quadrupole moment (field-independent basis, Debye-Ang):
   XX=            -64.6014   YY=            -56.5085   ZZ=            -60.4763
   XY=             -5.3819   XZ=              8.7218   YZ=              0.0064

 Normal termination of Gaussian 09 at Fri Feb 10 18:53:18 2017.
