 Gaussian 09, Revision A.02,
 Gaussian 09:  EM64L-G09RevA.02 11-Jun-2009

 -------------------------------------------------------------------
 # HF/6-31G* Opt=(ModRedundant, maxcycles=1000, calcfc) geom=nocrowd
 -------------------------------------------------------------------

 ------------------
 Phi Psi fixed scan
 ------------------
 Symbolic Z-matrix:
 Charge =  0 Multiplicity = 1

 SCF Done:  E(RHF) =  -984.521806419     A.U. after   14 cycles

  Exact polarizability:   0.000   0.000   0.000   0.000   0.000   0.000
 Approx polarizability: 132.786   3.945 127.947   5.409   2.516 127.550

 SCF Done:  E(RHF) =  -984.534283515     A.U. after   16 cycles
 SCF Done:  E(RHF) =  -984.546176267     A.U. after   15 cycles
 SCF Done:  E(RHF) =  -984.549622640     A.U. after   15 cycles
 SCF Done:  E(RHF) =  -984.552273166     A.U. after   13 cycles
 SCF Done:  E(RHF) =  -984.555130971     A.U. after   15 cycles
 SCF Done:  E(RHF) =  -984.549034759     A.U. after   16 cycles
 SCF Done:  E(RHF) =  -984.556707313     A.U. after   16 cycles
 SCF Done:  E(RHF) =  -984.556391947     A.U. after   14 cycles
 SCF Done:  E(RHF) =  -984.529525981     A.U. after   16 cycles
 SCF Done:  E(RHF) =  -984.558235148     A.U. after   10 cycles
 SCF Done:  E(RHF) =  -984.558235659     A.U. after    9 cycles
 SCF Done:  E(RHF) =  -984.558235706     A.U. after    8 cycles
 SCF Done:  E(RHF) =  -984.558235722     A.U. after    7 cycles
 SCF Done:  E(RHF) =  -984.558235738     A.U. after    8 cycles
 SCF Done:  E(RHF) =  -984.558235753     A.U. after    7 cycles
 SCF Done:  E(RHF) =  -984.558235780     A.U. after    8 cycles
 SCF Done:  E(RHF) =  -984.558235814     A.U. after    8 cycles
 SCF Done:  E(RHF) =  -984.558235835     A.U. after    7 cycles
 SCF Done:  E(RHF) =  -984.558235858     A.U. after    8 cycles
 Optimization completed.
    -- Stationary point found.

                         Standard orientation:
 ---------------------------------------------------------------------
 Center     Atomic      Atomic             Coordinates (Angstroms)
 Number     Number       Type             X           Y           Z
 ---------------------------------------------------------------------
      1          1           0       -6.725524    2.425654   -0.870691
      2          6           0       -5.654118    2.355141   -1.000953
      3          1           0       -5.223075    3.319148   -0.752075
      4          1           0       -5.427206    2.130482   -2.036168
      5          6           0       -5.113227    1.321937   -0.036120
      6          8           0       -5.520980    1.237873    1.093353
      7          7           0       -4.137875    0.526037   -0.518077
      8          1           0       -3.782035    0.647203   -1.439522
      9          6           0       -3.454779   -0.438771    0.308173
     10          1           0       -3.294908    0.000760    1.285214
     11          6           0       -4.263738   -1.733151    0.468945
     12          1           0       -4.418174   -2.202686   -0.496746
     13          1           0       -3.756202   -2.438175    1.118450
     14          1           0       -5.226464   -1.496573    0.901696
     15          6           0       -2.104505   -0.729386   -0.346307
     16          8           0       -1.911926   -0.484533   -1.507488
     17          7           0       -1.208493   -1.328156    0.471520
     18          1           0       -1.390820   -1.233572    1.445148
     19          6           0        0.177769   -1.605673    0.155562
     20          1           0        0.467079   -2.412885    0.823852
     21          6           0        0.420814   -2.102696   -1.273914
     22          1           0        0.359095   -1.308410   -2.000073
     23          1           0        1.397214   -2.569852   -1.338131
     24          1           0       -0.318069   -2.851659   -1.526880
     25          6           0        1.049771   -0.410574    0.574173
     26          8           0        0.580082    0.543556    1.136155
     27          7           0        2.367962   -0.537568    0.335434
     28          1           0        2.736421   -1.306209   -0.178606
     29          6           0        3.313113    0.500076    0.676035
     30          1           0        2.855044    1.459819    0.471382
     31          6           0        3.720745    0.446321    2.154149
     32          1           0        4.196584   -0.501929    2.379054
     33          1           0        4.411564    1.245484    2.401648
     34          1           0        2.838650    0.552917    2.771528
     35          6           0        4.534021    0.310590   -0.220633
     36          8           0        4.775430   -0.751199   -0.734872
     37          7           0        5.330125    1.384988   -0.355645
     38          1           0        5.024411    2.259367    0.003644
     39          6           0        6.527284    1.348144   -1.171087
     40          1           0        7.122861    0.484502   -0.913059
     41          1           0        6.288904    1.298535   -2.227208
     42          1           0        7.102871    2.243657   -0.980407
 ---------------------------------------------------------------------

 The electronic state is 1-A.
 Alpha  occ. eigenvalues --  -20.54136 -20.53523 -20.53156 -20.50940 -15.60200
 Alpha  occ. eigenvalues --  -15.59136 -15.58817 -15.57255 -11.36073 -11.35491
 Alpha  occ. eigenvalues --  -11.35223 -11.33786 -11.29173 -11.28889 -11.27499
 Alpha  occ. eigenvalues --  -11.26968 -11.23059 -11.22713 -11.22341 -11.21784
 Alpha  occ. eigenvalues --   -1.41191  -1.40608  -1.39721  -1.37809  -1.24991
 Alpha  occ. eigenvalues --   -1.24764  -1.24566  -1.22913  -1.07652  -1.05057
 Alpha  occ. eigenvalues --   -1.02400  -0.98171  -0.96984  -0.91938  -0.89999
 Alpha  occ. eigenvalues --   -0.87202  -0.81728  -0.79630  -0.78659  -0.77679
 Alpha  occ. eigenvalues --   -0.74845  -0.72635  -0.68787  -0.68145  -0.66703
 Alpha  occ. eigenvalues --   -0.66072  -0.65008  -0.64431  -0.63535  -0.62831
 Alpha  occ. eigenvalues --   -0.61538  -0.60923  -0.60471  -0.59960  -0.58402
 Alpha  occ. eigenvalues --   -0.57005  -0.56716  -0.56667  -0.56197  -0.55709
 Alpha  occ. eigenvalues --   -0.54882  -0.54743  -0.54092  -0.53710  -0.52866
 Alpha  occ. eigenvalues --   -0.52411  -0.51931  -0.50231  -0.48914  -0.43878
 Alpha  occ. eigenvalues --   -0.43059  -0.42260  -0.40936  -0.40724  -0.39903
 Alpha  occ. eigenvalues --   -0.39217  -0.37700
 Alpha virt. eigenvalues --    0.17851   0.18988   0.19558   0.20648   0.21730
 Alpha virt. eigenvalues --    0.22291   0.24160   0.24702   0.25880   0.27417
 Alpha virt. eigenvalues --    0.27941   0.28696   0.28937   0.30030   0.30413

 Mulliken atomic charges:
              1
     1  H    0.206028
     2  C   -0.575896
     3  H    0.202303
     4  H    0.172379
     5  C    0.756412
     6  O   -0.623442
     7  N   -0.823108
     8  H    0.419060
     9  C   -0.034163
    10  H    0.219285
    11  C   -0.483177
    12  H    0.173146
    13  H    0.160250
    14  H    0.211726
    15  C    0.792600
    16  O   -0.632207
    17  N   -0.796645
    18  H    0.393339
    19  C   -0.050348
    20  H    0.206923
    21  C   -0.491987
    22  H    0.220839
    23  H    0.159960
    24  H    0.192709
    25  C    0.790074
    26  O   -0.629054
    27  N   -0.843239
    28  H    0.430451
    29  C   -0.029813
    30  H    0.215394
    31  C   -0.484669
    32  H    0.178987
    33  H    0.161157
    34  H    0.208821
    35  C    0.776060
    36  O   -0.631431
    37  N   -0.798839
    38  H    0.390848
    39  C   -0.273509
    40  H    0.203727
    41  H    0.185777
    42  H    0.173272
 Sum of Mulliken atomic charges =   0.00000

 Dipole moment (field-independent basis, Debye):
    X=              4.9818    Y=              0.4743    Z=             -0.5140  Tot=              5.0307
 Quadrupole moment (field-independent basis, Debye-Ang):
   XX=           -119.6279   YY=           -110.1446   ZZ=           -124.0857
   XY=             19.5267   XZ=             14.6463   YZ=            -10.0782

 Normal termination of Gaussian 09 at Tue Dec 27 19:16:45 2016.
