 Gaussian 09, Revision A.02,
 Gaussian 09:  EM64L-G09RevA.02 11-Jun-2009

 -------------------------------------------------------------------
 # HF/6-31G* Opt=(ModRedundant, maxcycles=1000, calcfc) geom=nocrowd
 -------------------------------------------------------------------

 ------------------
 Phi Psi fixed scan
 ------------------
 Symbolic Z-matrix:
 Charge =  0 Multiplicity = 1

 SCF Done:  E(RHF) =  -984.522424790     A.U. after   14 cycles

  Exact polarizability:   0.000   0.000   0.000   0.000   0.000   0.000
 Approx polarizability: 132.983  -4.734 126.677   0.034   3.665 128.600

 SCF Done:  E(RHF) =  -984.534638420     A.U. after   14 cycles
 SCF Done:  E(RHF) =  -984.546882642     A.U. after   15 cycles
 SCF Done:  E(RHF) =  -984.550267670     A.U. after   13 cycles
 SCF Done:  E(RHF) =  -984.552528185     A.U. after   13 cycles
 SCF Done:  E(RHF) =  -984.554341753     A.U. after   13 cycles
 SCF Done:  E(RHF) =  -984.555842268     A.U. after   13 cycles
 SCF Done:  E(RHF) =  -984.492004250     A.U. after   16 cycles
 SCF Done:  E(RHF) =  -984.556505822     A.U. after   16 cycles
 SCF Done:  E(RHF) =  -984.556636864     A.U. after   12 cycles
 SCF Done:  E(RHF) =  -984.557053556     A.U. after   11 cycles
 SCF Done:  E(RHF) =  -984.557056931     A.U. after   10 cycles
 SCF Done:  E(RHF) =  -984.557060445     A.U. after   11 cycles
 SCF Done:  E(RHF) =  -984.557062764     A.U. after   10 cycles
 SCF Done:  E(RHF) =  -984.557064709     A.U. after   11 cycles
 SCF Done:  E(RHF) =  -984.557065763     A.U. after    9 cycles
 SCF Done:  E(RHF) =  -984.557066609     A.U. after    9 cycles
 SCF Done:  E(RHF) =  -984.557066964     A.U. after    9 cycles
 SCF Done:  E(RHF) =  -984.557067035     A.U. after    8 cycles
 SCF Done:  E(RHF) =  -984.557067050     A.U. after    7 cycles
 Optimization completed.
    -- Stationary point found.

                         Standard orientation:
 ---------------------------------------------------------------------
 Center     Atomic      Atomic             Coordinates (Angstroms)
 Number     Number       Type             X           Y           Z
 ---------------------------------------------------------------------
      1          1           0       -7.007575   -1.900406    1.070528
      2          6           0       -5.968178   -1.765735    1.337130
      3          1           0       -5.543227   -2.744251    1.535149
      4          1           0       -5.897117   -1.168957    2.238497
      5          6           0       -5.238835   -1.152032    0.161555
      6          8           0       -5.480555   -1.476295   -0.972404
      7          7           0       -4.292987   -0.242884    0.471312
      8          1           0       -4.070214   -0.032716    1.418370
      9          6           0       -3.439616    0.347730   -0.529801
     10          1           0       -3.181828   -0.417312   -1.252001
     11          6           0       -4.128686    1.510310   -1.257413
     12          1           0       -4.378597    2.297887   -0.554681
     13          1           0       -3.492257    1.927589   -2.030797
     14          1           0       -5.038404    1.149427   -1.718207
     15          6           0       -2.172937    0.833373    0.176303
     16          8           0       -2.165341    1.037153    1.359649
     17          7           0       -1.131731    1.067201   -0.657124
     18          1           0       -1.227158    0.697543   -1.576164
     19          6           0        0.228922    1.397855   -0.284616
     20          1           0        0.635391    1.944181   -1.130518
     21          6           0        0.367158    2.300010    0.946972
     22          1           0        0.105163    1.781583    1.854883
     23          1           0        1.392919    2.646094    1.014425
     24          1           0       -0.278527    3.163076    0.847326
     25          6           0        1.058902    0.117339   -0.124688
     26          8           0        0.569864   -0.925930    0.214901
     27          7           0        2.368822    0.256679   -0.407601
     28          1           0        2.756444    1.142326   -0.648981
     29          6           0        3.319247   -0.810503   -0.201331
     30          1           0        3.037287   -1.350612    0.694291
     31          6           0        3.349297   -1.787974   -1.383539
     32          1           0        3.644257   -1.272435   -2.290978
     33          1           0        4.046558   -2.600239   -1.206947
     34          1           0        2.362028   -2.208178   -1.522523
     35          6           0        4.689294   -0.166553   -0.002397
     36          8           0        4.917393    0.953412   -0.381872
     37          7           0        5.618789   -0.942846    0.580161
     38          1           0        5.345877   -1.818848    0.961216
     39          6           0        6.965201   -0.466339    0.824474
     40          1           0        7.372990   -0.032473   -0.077074
     41          1           0        6.986539    0.283157    1.607012
     42          1           0        7.579689   -1.305092    1.121839
 ---------------------------------------------------------------------

 The electronic state is 1-A.
 Alpha  occ. eigenvalues --  -20.54240 -20.53270 -20.53045 -20.50924 -15.60287
 Alpha  occ. eigenvalues --  -15.59397 -15.58937 -15.57193 -11.36173 -11.35439
 Alpha  occ. eigenvalues --  -11.35056 -11.33746 -11.29159 -11.28968 -11.27494
 Alpha  occ. eigenvalues --  -11.27055 -11.23116 -11.22486 -11.22270 -11.21850
 Alpha  occ. eigenvalues --   -1.41254  -1.40457  -1.39603  -1.37773  -1.25079
 Alpha  occ. eigenvalues --   -1.24926  -1.24548  -1.22866  -1.07684  -1.05080
 Alpha  occ. eigenvalues --   -1.02486  -0.98138  -0.97061  -0.91914  -0.89948
 Alpha  occ. eigenvalues --   -0.87001  -0.81738  -0.79598  -0.78847  -0.77777
 Alpha  occ. eigenvalues --   -0.74838  -0.72452  -0.69236  -0.68169  -0.66530
 Alpha  occ. eigenvalues --   -0.65845  -0.65141  -0.64410  -0.63197  -0.62636
 Alpha  occ. eigenvalues --   -0.61512  -0.61156  -0.60523  -0.60071  -0.58503
 Alpha  occ. eigenvalues --   -0.57233  -0.56845  -0.56763  -0.56150  -0.55416
 Alpha  occ. eigenvalues --   -0.54866  -0.54244  -0.54168  -0.53605  -0.52816
 Alpha  occ. eigenvalues --   -0.52393  -0.51990  -0.50306  -0.48890  -0.44010
 Alpha  occ. eigenvalues --   -0.43400  -0.42023  -0.41003  -0.40696  -0.39549
 Alpha  occ. eigenvalues --   -0.39169  -0.37611
 Alpha virt. eigenvalues --    0.17752   0.18726   0.19851   0.20529   0.21478
 Alpha virt. eigenvalues --    0.21953   0.24129   0.24777   0.25768   0.27504
 Alpha virt. eigenvalues --    0.28404   0.28607   0.28871   0.30182   0.30534

 Mulliken atomic charges:
              1
     1  H    0.205905
     2  C   -0.576265
     3  H    0.202564
     4  H    0.173367
     5  C    0.755690
     6  O   -0.624439
     7  N   -0.821284
     8  H    0.420258
     9  C   -0.035621
    10  H    0.215350
    11  C   -0.482998
    12  H    0.175155
    13  H    0.156715
    14  H    0.211751
    15  C    0.804365
    16  O   -0.628262
    17  N   -0.810834
    18  H    0.387917
    19  C   -0.041387
    20  H    0.193477
    21  C   -0.485516
    22  H    0.226820
    23  H    0.164197
    24  H    0.189170
    25  C    0.776349
    26  O   -0.615342
    27  N   -0.834134
    28  H    0.422822
    29  C   -0.034135
    30  H    0.215621
    31  C   -0.483024
    32  H    0.178472
    33  H    0.160533
    34  H    0.210164
    35  C    0.776303
    36  O   -0.631762
    37  N   -0.798731
    38  H    0.391228
    39  C   -0.273154
    40  H    0.203454
    41  H    0.185695
    42  H    0.173545
 Sum of Mulliken atomic charges =   0.00000

 Dipole moment (field-independent basis, Debye):
    X=              5.2910    Y=             -0.1146    Z=              0.7245  Tot=              5.3416
 Quadrupole moment (field-independent basis, Debye-Ang):
   XX=           -113.3563   YY=           -119.8698   ZZ=           -118.8749
   XY=            -21.1283   XZ=             -2.9141   YZ=             -8.3202

 Normal termination of Gaussian 09 at Tue Dec 27 18:22:03 2016.
