 Gaussian 09, Revision A.02,
 Gaussian 09:  EM64L-G09RevA.02 11-Jun-2009

 -------------------------------------------------------------------
 # HF/6-31G* Opt=(ModRedundant, maxcycles=1000, calcfc) geom=nocrowd
 -------------------------------------------------------------------

 ------------------
 Phi Psi fixed scan
 ------------------
 Symbolic Z-matrix:
 Charge =  0 Multiplicity = 1

 SCF Done:  E(RHF) =  -984.523020706     A.U. after   15 cycles

  Exact polarizability:   0.000   0.000   0.000   0.000   0.000   0.000
 Approx polarizability: 132.330   4.255 128.892   1.893  10.103 127.324

 SCF Done:  E(RHF) =  -984.536209874     A.U. after   13 cycles
 SCF Done:  E(RHF) =  -984.549532315     A.U. after   14 cycles
 SCF Done:  E(RHF) =  -984.552524777     A.U. after   14 cycles
 SCF Done:  E(RHF) =  -984.555567574     A.U. after   13 cycles
 SCF Done:  E(RHF) =  -984.558511105     A.U. after   15 cycles
 SCF Done:  E(RHF) =  -984.554668996     A.U. after   15 cycles
 SCF Done:  E(RHF) =  -984.559357476     A.U. after   15 cycles
 SCF Done:  E(RHF) =  -984.559954908     A.U. after   13 cycles
 SCF Done:  E(RHF) =  -984.557753267     A.U. after   13 cycles
 SCF Done:  E(RHF) =  -984.560623798     A.U. after    9 cycles
 SCF Done:  E(RHF) =  -984.560624789     A.U. after   10 cycles
 SCF Done:  E(RHF) =  -984.560625112     A.U. after    9 cycles
 SCF Done:  E(RHF) =  -984.560625149     A.U. after    8 cycles
 SCF Done:  E(RHF) =  -984.560625165     A.U. after    7 cycles
 SCF Done:  E(RHF) =  -984.560625174     A.U. after    6 cycles
 SCF Done:  E(RHF) =  -984.560625188     A.U. after    6 cycles
 SCF Done:  E(RHF) =  -984.560625201     A.U. after    7 cycles
 SCF Done:  E(RHF) =  -984.560625239     A.U. after    8 cycles
 SCF Done:  E(RHF) =  -984.560625261     A.U. after    8 cycles
 Optimization completed.
    -- Stationary point found.

                         Standard orientation:
 ---------------------------------------------------------------------
 Center     Atomic      Atomic             Coordinates (Angstroms)
 Number     Number       Type             X           Y           Z
 ---------------------------------------------------------------------
      1          1           0        4.895908    3.413888    0.412820
      2          6           0        3.919118    2.976746    0.564912
      3          1           0        3.175346    3.654356    0.158018
      4          1           0        3.730291    2.859965    1.625383
      5          6           0        3.847124    1.666667   -0.188236
      6          8           0        4.446996    1.486416   -1.215837
      7          7           0        3.043560    0.727622    0.354484
      8          1           0        2.522111    0.912071    1.182415
      9          6           0        2.793438   -0.533474   -0.298122
     10          1           0        2.743480   -0.359345   -1.365655
     11          6           0        3.895114   -1.563264   -0.013156
     12          1           0        3.959637   -1.760904    1.051140
     13          1           0        3.704152   -2.499228   -0.528929
     14          1           0        4.843017   -1.170109   -0.355678
     15          6           0        1.450755   -1.051711    0.205270
     16          8           0        1.028664   -0.735711    1.289785
     17          7           0        0.796548   -1.877031   -0.633582
     18          1           0        1.192220   -2.024337   -1.533901
     19          6           0       -0.391014   -2.670350   -0.320868
     20          1           0       -0.398723   -3.466391   -1.051468
     21          6           0       -0.393530   -3.314269    1.067120
     22          1           0       -0.460389   -2.589428    1.862304
     23          1           0       -1.240819   -3.988579    1.129692
     24          1           0        0.512483   -3.894057    1.204190
     25          6           0       -1.683278   -1.901461   -0.612929
     26          8           0       -2.490486   -2.348713   -1.387435
     27          7           0       -1.861170   -0.751659    0.059884
     28          1           0       -1.151805   -0.400961    0.670870
     29          6           0       -3.032463    0.067840   -0.141958
     30          1           0       -3.353230   -0.060207   -1.167360
     31          6           0       -4.181252   -0.336212    0.791709
     32          1           0       -3.882312   -0.220683    1.827656
     33          1           0       -5.063780    0.270813    0.617642
     34          1           0       -4.437333   -1.373118    0.614377
     35          6           0       -2.644626    1.523343    0.099369
     36          8           0       -1.727413    1.822694    0.816784
     37          7           0       -3.429652    2.437818   -0.502712
     38          1           0       -4.097482    2.133436   -1.172156
     39          6           0       -3.192701    3.858549   -0.354877
     40          1           0       -2.306717    4.175414   -0.893597
     41          1           0       -4.049629    4.395072   -0.739536
     42          1           0       -3.063626    4.103178    0.689470
 ---------------------------------------------------------------------

 The electronic state is 1-A.
 Alpha  occ. eigenvalues --  -20.54526 -20.53160 -20.52447 -20.51625 -15.60693
 Alpha  occ. eigenvalues --  -15.59430 -15.57901 -15.57760 -11.36581 -11.35132
 Alpha  occ. eigenvalues --  -11.34522 -11.34365 -11.28937 -11.28481 -11.27993
 Alpha  occ. eigenvalues --  -11.26434 -11.22676 -11.22663 -11.22633 -11.22426
 Alpha  occ. eigenvalues --   -1.41517  -1.40203  -1.39060  -1.38477  -1.25880
 Alpha  occ. eigenvalues --   -1.24183  -1.23661  -1.23307  -1.07576  -1.04925
 Alpha  occ. eigenvalues --   -1.02903  -0.98731  -0.96372  -0.92001  -0.89726
 Alpha  occ. eigenvalues --   -0.87429  -0.81500  -0.79512  -0.78822  -0.78404
 Alpha  occ. eigenvalues --   -0.74712  -0.73334  -0.68844  -0.67375  -0.66410
 Alpha  occ. eigenvalues --   -0.66017  -0.64421  -0.64156  -0.63424  -0.62737
 Alpha  occ. eigenvalues --   -0.61940  -0.61563  -0.59815  -0.59493  -0.58760
 Alpha  occ. eigenvalues --   -0.57846  -0.57061  -0.56678  -0.56103  -0.55462
 Alpha  occ. eigenvalues --   -0.55216  -0.54734  -0.53584  -0.53142  -0.52973
 Alpha  occ. eigenvalues --   -0.52833  -0.51805  -0.50062  -0.49655  -0.44682
 Alpha  occ. eigenvalues --   -0.43343  -0.42637  -0.41349  -0.40037  -0.39328
 Alpha  occ. eigenvalues --   -0.38482  -0.38116
 Alpha virt. eigenvalues --    0.17353   0.19016   0.20299   0.20781   0.21220
 Alpha virt. eigenvalues --    0.21327   0.24216   0.26030   0.26172   0.27179
 Alpha virt. eigenvalues --    0.27876   0.29159   0.29700   0.30244   0.30964

 Mulliken atomic charges:
              1
     1  H    0.208129
     2  C   -0.577485
     3  H    0.203570
     4  H    0.177573
     5  C    0.752324
     6  O   -0.622017
     7  N   -0.818910
     8  H    0.422740
     9  C   -0.029130
    10  H    0.216798
    11  C   -0.486662
    12  H    0.180464
    13  H    0.157057
    14  H    0.213580
    15  C    0.799074
    16  O   -0.645207
    17  N   -0.832983
    18  H    0.398728
    19  C   -0.048683
    20  H    0.222418
    21  C   -0.501267
    22  H    0.218962
    23  H    0.181586
    24  H    0.175370
    25  C    0.781437
    26  O   -0.629855
    27  N   -0.837690
    28  H    0.460532
    29  C   -0.039482
    30  H    0.214266
    31  C   -0.481515
    32  H    0.182323
    33  H    0.160325
    34  H    0.200333
    35  C    0.772565
    36  O   -0.621930
    37  N   -0.799039
    38  H    0.388360
    39  C   -0.272083
    40  H    0.181378
    41  H    0.170849
    42  H    0.203194
 Sum of Mulliken atomic charges =   0.00000

 Dipole moment (field-independent basis, Debye):
    X=             -2.3598    Y=              0.5728    Z=              0.0999  Tot=              2.4304
 Quadrupole moment (field-independent basis, Debye-Ang):
   XX=           -121.4139   YY=           -109.1848   ZZ=           -125.8668
   XY=            -19.6136   XZ=              8.9753   YZ=             -2.3622

 Normal termination of Gaussian 09 at Tue Dec 27 18:25:08 2016.
