 Gaussian 09, Revision A.02,
 Gaussian 09:  EM64L-G09RevA.02 11-Jun-2009

 -------------------------------------------------------------------
 # HF/6-31G* Opt=(ModRedundant, maxcycles=1000, calcfc) geom=nocrowd
 -------------------------------------------------------------------

 ------------------
 Phi Psi fixed scan
 ------------------
 Symbolic Z-matrix:
 Charge =  0 Multiplicity = 1

 SCF Done:  E(RHF) =  -984.515774783     A.U. after   15 cycles

  Exact polarizability:   0.000   0.000   0.000   0.000   0.000   0.000
 Approx polarizability: 131.434  -6.598 125.371  -4.763   7.155 131.584

 SCF Done:  E(RHF) =  -984.530448261     A.U. after   13 cycles
 SCF Done:  E(RHF) =  -984.545912212     A.U. after   14 cycles
 SCF Done:  E(RHF) =  -984.550087568     A.U. after   15 cycles
 SCF Done:  E(RHF) =  -984.552829266     A.U. after   13 cycles
 SCF Done:  E(RHF) =  -984.556185176     A.U. after   16 cycles
 SCF Done:  E(RHF) =  -984.557108831     A.U. after   15 cycles
 SCF Done:  E(RHF) =  -984.470062510     A.U. after   15 cycles
 SCF Done:  E(RHF) =  -984.557518738     A.U. after   15 cycles
 SCF Done:  E(RHF) =  -984.554352071     A.U. after   13 cycles
 SCF Done:  E(RHF) =  -984.558533434     A.U. after   11 cycles
 SCF Done:  E(RHF) =  -984.558549112     A.U. after   11 cycles
 SCF Done:  E(RHF) =  -984.558569672     A.U. after   11 cycles
 SCF Done:  E(RHF) =  -984.558572597     A.U. after   11 cycles
 SCF Done:  E(RHF) =  -984.558584691     A.U. after   10 cycles
 SCF Done:  E(RHF) =  -984.558591548     A.U. after   11 cycles
 SCF Done:  E(RHF) =  -984.558592148     A.U. after    9 cycles
 SCF Done:  E(RHF) =  -984.558592274     A.U. after    9 cycles
 SCF Done:  E(RHF) =  -984.558592405     A.U. after    8 cycles
 SCF Done:  E(RHF) =  -984.558592419     A.U. after    6 cycles
 Optimization completed.
    -- Stationary point found.

                         Standard orientation:
 ---------------------------------------------------------------------
 Center     Atomic      Atomic             Coordinates (Angstroms)
 Number     Number       Type             X           Y           Z
 ---------------------------------------------------------------------
      1          1           0       -6.222729    2.975915   -0.269483
      2          6           0       -5.145171    2.886565   -0.223392
      3          1           0       -4.779211    3.646875    0.457621
      4          1           0       -4.725511    3.064194   -1.206042
      5          6           0       -4.795557    1.526759    0.342096
      6          8           0       -5.327776    1.102709    1.335076
      7          7           0       -3.847904    0.838745   -0.324947
      8          1           0       -3.396208    1.223754   -1.123561
      9          6           0       -3.360934   -0.440144    0.130919
     10          1           0       -3.274796   -0.407104    1.210088
     11          6           0       -4.302218   -1.588142   -0.258641
     12          1           0       -4.389759   -1.653446   -1.337995
     13          1           0       -3.940145   -2.538924    0.117064
     14          1           0       -5.281089   -1.400677    0.161883
     15          6           0       -1.979301   -0.651260   -0.486667
     16          8           0       -1.636052   -0.041279   -1.465408
     17          7           0       -1.234905   -1.600127    0.122581
     18          1           0       -1.490702   -1.822812    1.058148
     19          6           0        0.136685   -1.944485   -0.211453
     20          1           0        0.280496   -2.940887    0.197178
     21          6           0        0.419241   -2.037027   -1.711108
     22          1           0        0.469060   -1.070504   -2.186907
     23          1           0        1.351285   -2.569039   -1.870936
     24          1           0       -0.367468   -2.605956   -2.190033
     25          6           0        1.086021   -1.073572    0.627180
     26          8           0        0.765123   -0.750323    1.743185
     27          7           0        2.278582   -0.766890    0.094898
     28          1           0        2.493499   -0.964184   -0.856547
     29          6           0        3.251353    0.027481    0.809243
     30          1           0        2.726344    0.803459    1.352453
     31          6           0        4.063634   -0.814854    1.801327
     32          1           0        4.611390   -1.589923    1.276649
     33          1           0        4.772315   -0.202612    2.349027
     34          1           0        3.390830   -1.277712    2.511031
     35          6           0        4.170986    0.659478   -0.232289
     36          8           0        4.284924    0.190653   -1.335356
     37          7           0        4.866042    1.733501    0.180279
     38          1           0        4.648849    2.138444    1.061152
     39          6           0        5.779249    2.433223   -0.700586
     40          1           0        6.446922    1.728448   -1.174539
     41          1           0        5.249284    2.978019   -1.473264
     42          1           0        6.360959    3.129870   -0.112417
 ---------------------------------------------------------------------

 The electronic state is 1-A.
 Alpha  occ. eigenvalues --  -20.54056 -20.53756 -20.52817 -20.51062 -15.60113
 Alpha  occ. eigenvalues --  -15.59262 -15.58939 -15.57499 -11.35995 -11.35684
 Alpha  occ. eigenvalues --  -11.35209 -11.33969 -11.29125 -11.28815 -11.27699
 Alpha  occ. eigenvalues --  -11.26884 -11.23015 -11.22642 -11.22517 -11.21911
 Alpha  occ. eigenvalues --   -1.41117  -1.40720  -1.39608  -1.37968  -1.24913
 Alpha  occ. eigenvalues --   -1.24801  -1.24588  -1.23120  -1.07619  -1.05132
 Alpha  occ. eigenvalues --   -1.02498  -0.98343  -0.96907  -0.91925  -0.90078
 Alpha  occ. eigenvalues --   -0.87427  -0.81745  -0.79653  -0.78752  -0.77797
 Alpha  occ. eigenvalues --   -0.74784  -0.72971  -0.68422  -0.67976  -0.66967
 Alpha  occ. eigenvalues --   -0.66288  -0.64929  -0.64356  -0.63966  -0.62973
 Alpha  occ. eigenvalues --   -0.61489  -0.61024  -0.60491  -0.59652  -0.58405
 Alpha  occ. eigenvalues --   -0.57129  -0.56635  -0.56423  -0.56179  -0.55960
 Alpha  occ. eigenvalues --   -0.55014  -0.54809  -0.54036  -0.53780  -0.53006
 Alpha  occ. eigenvalues --   -0.52486  -0.52037  -0.50147  -0.49084  -0.43920
 Alpha  occ. eigenvalues --   -0.43046  -0.42489  -0.40883  -0.40870  -0.39854
 Alpha  occ. eigenvalues --   -0.39129  -0.37872
 Alpha virt. eigenvalues --    0.17693   0.18885   0.19660   0.20757   0.21546
 Alpha virt. eigenvalues --    0.22719   0.24294   0.24847   0.25962   0.27508
 Alpha virt. eigenvalues --    0.27724   0.28586   0.29117   0.29636   0.30497

 Mulliken atomic charges:
              1
     1  H    0.205577
     2  C   -0.574655
     3  H    0.203062
     4  H    0.171406
     5  C    0.757711
     6  O   -0.623269
     7  N   -0.825212
     8  H    0.418681
     9  C   -0.033144
    10  H    0.219852
    11  C   -0.483885
    12  H    0.173177
    13  H    0.162804
    14  H    0.211697
    15  C    0.788563
    16  O   -0.632796
    17  N   -0.800830
    18  H    0.401503
    19  C   -0.046670
    20  H    0.212296
    21  C   -0.518641
    22  H    0.224160
    23  H    0.165230
    24  H    0.193299
    25  C    0.803996
    26  O   -0.642693
    27  N   -0.849196
    28  H    0.439188
    29  C   -0.029356
    30  H    0.215954
    31  C   -0.484917
    32  H    0.179681
    33  H    0.161244
    34  H    0.209444
    35  C    0.775362
    36  O   -0.629410
    37  N   -0.798917
    38  H    0.390541
    39  C   -0.273623
    40  H    0.203816
    41  H    0.186030
    42  H    0.172940
 Sum of Mulliken atomic charges =   0.00000

 Dipole moment (field-independent basis, Debye):
    X=              4.4814    Y=              0.6439    Z=             -0.2848  Tot=              4.5363
 Quadrupole moment (field-independent basis, Debye-Ang):
   XX=           -121.0317   YY=           -101.5017   ZZ=           -131.9326
   XY=             11.8449   XZ=             21.6336   YZ=             -0.7585

 Normal termination of Gaussian 09 at Tue Dec 27 18:08:25 2016.
