 Gaussian 09, Revision A.02,
 Gaussian 09:  EM64L-G09RevA.02 11-Jun-2009

 -------------------------------------------------------------------
 # HF/6-31G* Opt=(ModRedundant, maxcycles=1000, calcfc) geom=nocrowd
 -------------------------------------------------------------------

 ------------------
 Phi Psi fixed scan
 ------------------
 Symbolic Z-matrix:
 Charge =  0 Multiplicity = 1

 SCF Done:  E(RHF) =  -984.520670336     A.U. after   15 cycles

  Exact polarizability:   0.000   0.000   0.000   0.000   0.000   0.000
 Approx polarizability: 127.383   4.208 129.940   4.568  12.669 131.171

 SCF Done:  E(RHF) =  -984.534331899     A.U. after   13 cycles
 SCF Done:  E(RHF) =  -984.548894668     A.U. after   14 cycles
 SCF Done:  E(RHF) =  -984.550221935     A.U. after   14 cycles
 SCF Done:  E(RHF) =  -984.543744777     A.U. after   14 cycles
 SCF Done:  E(RHF) =  -984.553041281     A.U. after   13 cycles
 SCF Done:  E(RHF) =  -984.554755933     A.U. after   12 cycles
 SCF Done:  E(RHF) =  -984.556066796     A.U. after   13 cycles
 SCF Done:  E(RHF) =  -984.557326234     A.U. after   13 cycles
 SCF Done:  E(RHF) =  -984.388778640     A.U. after   15 cycles
 SCF Done:  E(RHF) =  -984.559362524     A.U. after   10 cycles
 SCF Done:  E(RHF) =  -984.559363838     A.U. after   10 cycles
 SCF Done:  E(RHF) =  -984.559364342     A.U. after    9 cycles
 SCF Done:  E(RHF) =  -984.559364522     A.U. after    9 cycles
 SCF Done:  E(RHF) =  -984.559364746     A.U. after    9 cycles
 SCF Done:  E(RHF) =  -984.559365031     A.U. after    9 cycles
 SCF Done:  E(RHF) =  -984.559365209     A.U. after    9 cycles
 SCF Done:  E(RHF) =  -984.559365345     A.U. after    8 cycles
 SCF Done:  E(RHF) =  -984.559365417     A.U. after    8 cycles
 SCF Done:  E(RHF) =  -984.559365426     A.U. after    7 cycles
 Optimization completed.
    -- Stationary point found.

                         Standard orientation:
 ---------------------------------------------------------------------
 Center     Atomic      Atomic             Coordinates (Angstroms)
 Number     Number       Type             X           Y           Z
 ---------------------------------------------------------------------
      1          1           0       -5.685505   -2.899906    1.277301
      2          6           0       -4.693215   -2.525573    1.489469
      3          1           0       -4.061104   -3.373427    1.731220
      4          1           0       -4.729175   -1.863848    2.346393
      5          6           0       -4.148752   -1.858537    0.245344
      6          8           0       -4.312315   -2.329619   -0.849740
      7          7           0       -3.450802   -0.721422    0.447089
      8          1           0       -3.305609   -0.359265    1.362602
      9          6           0       -2.807475   -0.016737   -0.633188
     10          1           0       -2.369405   -0.745167   -1.304602
     11          6           0       -3.794696    0.857311   -1.420604
     12          1           0       -4.235025    1.607002   -0.772229
     13          1           0       -3.308291    1.361080   -2.250386
     14          1           0       -4.581097    0.230213   -1.817961
     15          6           0       -1.707047    0.849185   -0.027052
     16          8           0       -1.730285    1.177271    1.127536
     17          7           0       -0.715590    1.202673   -0.883524
     18          1           0       -0.845230    0.933099   -1.832851
     19          6           0        0.211223    2.313253   -0.663756
     20          1           0        0.576181    2.564433   -1.655223
     21          6           0       -0.416286    3.572899   -0.070936
     22          1           0       -0.729556    3.420905    0.949598
     23          1           0        0.311039    4.372002   -0.094059
     24          1           0       -1.276231    3.864887   -0.665001
     25          6           0        1.475149    1.887467    0.093759
     26          8           0        2.115880    2.690193    0.720175
     27          7           0        1.872809    0.618037   -0.096171
     28          1           0        1.269108   -0.040153   -0.534350
     29          6           0        3.066839    0.088669    0.516023
     30          1           0        3.849181    0.831359    0.424443
     31          6           0        2.866324   -0.247400    2.000376
     32          1           0        2.092560   -0.998627    2.114088
     33          1           0        3.781957   -0.625682    2.443565
     34          1           0        2.568879    0.645909    2.532964
     35          6           0        3.447870   -1.169499   -0.258253
     36          8           0        2.621192   -1.818867   -0.845286
     37          7           0        4.743847   -1.523062   -0.196528
     38          1           0        5.394335   -0.900825    0.223493
     39          6           0        5.242213   -2.710632   -0.859308
     40          1           0        4.622736   -3.560551   -0.611446
     41          1           0        5.248026   -2.592776   -1.936738
     42          1           0        6.251724   -2.898499   -0.519605
 ---------------------------------------------------------------------

 The electronic state is 1-A.
 Alpha  occ. eigenvalues --  -20.54681 -20.53544 -20.52323 -20.51672 -15.60574
 Alpha  occ. eigenvalues --  -15.59780 -15.58123 -15.58008 -11.36504 -11.35505
 Alpha  occ. eigenvalues --  -11.34645 -11.34509 -11.29150 -11.28578 -11.28268
 Alpha  occ. eigenvalues --  -11.26660 -11.22891 -11.22881 -11.22320 -11.21453
 Alpha  occ. eigenvalues --   -1.41631  -1.40545  -1.39134  -1.38587  -1.26102
 Alpha  occ. eigenvalues --   -1.24521  -1.23811  -1.23406  -1.07366  -1.04963
 Alpha  occ. eigenvalues --   -1.02818  -0.98886  -0.96595  -0.91928  -0.89962
 Alpha  occ. eigenvalues --   -0.86944  -0.81673  -0.79798  -0.78917  -0.78405
 Alpha  occ. eigenvalues --   -0.74707  -0.72993  -0.68947  -0.67373  -0.67001
 Alpha  occ. eigenvalues --   -0.66486  -0.64585  -0.64260  -0.63759  -0.63383
 Alpha  occ. eigenvalues --   -0.61721  -0.61254  -0.60202  -0.59234  -0.58696
 Alpha  occ. eigenvalues --   -0.58398  -0.56963  -0.56369  -0.56160  -0.55576
 Alpha  occ. eigenvalues --   -0.54976  -0.54715  -0.53360  -0.53317  -0.52840
 Alpha  occ. eigenvalues --   -0.52188  -0.51880  -0.50036  -0.49699  -0.44668
 Alpha  occ. eigenvalues --   -0.43256  -0.42938  -0.41446  -0.40390  -0.39566
 Alpha  occ. eigenvalues --   -0.38642  -0.38467
 Alpha virt. eigenvalues --    0.17503   0.18088   0.19102   0.20942   0.21011
 Alpha virt. eigenvalues --    0.22285   0.23954   0.25869   0.26642   0.26857
 Alpha virt. eigenvalues --    0.27682   0.28427   0.29369   0.29785   0.30960

 Mulliken atomic charges:
              1
     1  H    0.208241
     2  C   -0.576050
     3  H    0.204572
     4  H    0.173642
     5  C    0.756407
     6  O   -0.620748
     7  N   -0.823608
     8  H    0.419555
     9  C   -0.039560
    10  H    0.222332
    11  C   -0.489795
    12  H    0.179964
    13  H    0.152288
    14  H    0.218752
    15  C    0.794151
    16  O   -0.616808
    17  N   -0.851457
    18  H    0.395004
    19  C   -0.041741
    20  H    0.208510
    21  C   -0.489576
    22  H    0.222653
    23  H    0.196579
    24  H    0.156383
    25  C    0.808601
    26  O   -0.631889
    27  N   -0.832014
    28  H    0.428041
    29  C   -0.032999
    30  H    0.209929
    31  C   -0.488054
    32  H    0.181162
    33  H    0.158669
    34  H    0.214867
    35  C    0.779333
    36  O   -0.631579
    37  N   -0.800241
    38  H    0.390034
    39  C   -0.272319
    40  H    0.203124
    41  H    0.183915
    42  H    0.171731
 Sum of Mulliken atomic charges =   0.00000

 Dipole moment (field-independent basis, Debye):
    X=              3.1558    Y=              0.0998    Z=             -0.5004  Tot=              3.1968
 Quadrupole moment (field-independent basis, Debye-Ang):
   XX=            -99.3594   YY=           -132.8908   ZZ=           -118.4087
   XY=            -17.5590   XZ=             -7.7118   YZ=            -18.0187

 Normal termination of Gaussian 09 at Tue Dec 27 18:11:45 2016.
