 Gaussian 09, Revision A.02,
 Gaussian 09:  EM64L-G09RevA.02 11-Jun-2009

 -------------------------------------------------------------------
 # HF/6-31G* Opt=(ModRedundant, maxcycles=1000, calcfc) geom=nocrowd
 -------------------------------------------------------------------

 ------------------
 Phi Psi fixed scan
 ------------------
 Symbolic Z-matrix:
 Charge =  0 Multiplicity = 1

 SCF Done:  E(RHF) =  -984.521978220     A.U. after   15 cycles

  Exact polarizability:   0.000   0.000   0.000   0.000   0.000   0.000
 Approx polarizability: 135.004   7.697 127.119  -0.855   3.335 126.316

 SCF Done:  E(RHF) =  -984.535508055     A.U. after   13 cycles
 SCF Done:  E(RHF) =  -984.549759473     A.U. after   13 cycles
 SCF Done:  E(RHF) =  -984.551823830     A.U. after   14 cycles
 SCF Done:  E(RHF) =  -984.555499994     A.U. after   13 cycles
 SCF Done:  E(RHF) =  -984.558357808     A.U. after   13 cycles
 SCF Done:  E(RHF) =  -984.557050532     A.U. after   14 cycles
 SCF Done:  E(RHF) =  -984.560038959     A.U. after   14 cycles
 SCF Done:  E(RHF) =  -984.371183391     A.U. after   15 cycles
 SCF Done:  E(RHF) =  -984.560268869     A.U. after   15 cycles
 SCF Done:  E(RHF) =  -984.560751569     A.U. after   10 cycles
 SCF Done:  E(RHF) =  -984.560751767     A.U. after    8 cycles
 SCF Done:  E(RHF) =  -984.560751849     A.U. after    8 cycles
 SCF Done:  E(RHF) =  -984.560751880     A.U. after    8 cycles
 SCF Done:  E(RHF) =  -984.560751907     A.U. after    7 cycles
 SCF Done:  E(RHF) =  -984.560751928     A.U. after    7 cycles
 SCF Done:  E(RHF) =  -984.560751959     A.U. after    7 cycles
 SCF Done:  E(RHF) =  -984.560752010     A.U. after    7 cycles
 SCF Done:  E(RHF) =  -984.560752055     A.U. after    8 cycles
 SCF Done:  E(RHF) =  -984.560752065     A.U. after    7 cycles
 Optimization completed.
    -- Stationary point found.

                         Standard orientation:
 ---------------------------------------------------------------------
 Center     Atomic      Atomic             Coordinates (Angstroms)
 Number     Number       Type             X           Y           Z
 ---------------------------------------------------------------------
      1          1           0        4.894053    3.450697    0.723235
      2          6           0        3.966740    2.935390    0.929244
      3          1           0        3.145412    3.623110    0.754278
      4          1           0        3.939476    2.630125    1.968712
      5          6           0        3.834358    1.765967   -0.021135
      6          8           0        4.331111    1.771034   -1.116962
      7          7           0        3.097480    0.729667    0.433764
      8          1           0        2.657326    0.764276    1.325985
      9          6           0        2.784402   -0.406003   -0.396946
     10          1           0        2.627934   -0.053024   -1.408550
     11          6           0        3.910915   -1.448435   -0.402609
     12          1           0        4.082040   -1.823751    0.600325
     13          1           0        3.671880   -2.286155   -1.050403
     14          1           0        4.819009   -0.984200   -0.763509
     15          6           0        1.499407   -1.029328    0.137829
     16          8           0        1.177489   -0.904784    1.292174
     17          7           0        0.771319   -1.714417   -0.767294
     18          1           0        1.088760   -1.691149   -1.709402
     19          6           0       -0.336949   -2.625025   -0.496887
     20          1           0       -0.389092   -3.275563   -1.359282
     21          6           0       -0.147985   -3.513993    0.736735
     22          1           0       -0.161629   -2.942560    1.652145
     23          1           0       -0.948018   -4.243284    0.757652
     24          1           0        0.798419   -4.039107    0.670827
     25          6           0       -1.714192   -1.957216   -0.464523
     26          8           0       -2.682406   -2.602393   -0.780059
     27          7           0       -1.775552   -0.677661   -0.068408
     28          1           0       -0.969469   -0.214283    0.289918
     29          6           0       -3.031831    0.022317    0.053339
     30          1           0       -3.663632   -0.288301   -0.768241
     31          6           0       -3.745126   -0.284515    1.377096
     32          1           0       -3.126150    0.015062    2.215541
     33          1           0       -4.692670    0.240477    1.442993
     34          1           0       -3.936072   -1.347792    1.442554
     35          6           0       -2.737106    1.515652   -0.048588
     36          8           0       -1.676073    1.970928    0.289779
     37          7           0       -3.753740    2.280833   -0.487166
     38          1           0       -4.566690    1.840546   -0.850452
     39          6           0       -3.624663    3.717727   -0.614007
     40          1           0       -2.968410    3.989016   -1.433012
     41          1           0       -4.604713    4.139020   -0.792804
     42          1           0       -3.223094    4.134369    0.298468
 ---------------------------------------------------------------------

 The electronic state is 1-A.
 Alpha  occ. eigenvalues --  -20.54544 -20.53318 -20.52213 -20.51613 -15.60582
 Alpha  occ. eigenvalues --  -15.59608 -15.58079 -15.57853 -11.36560 -11.35299
 Alpha  occ. eigenvalues --  -11.34601 -11.34321 -11.29026 -11.28448 -11.28177
 Alpha  occ. eigenvalues --  -11.26531 -11.22658 -11.22618 -11.22402 -11.22353
 Alpha  occ. eigenvalues --   -1.41515  -1.40341  -1.39022  -1.38456  -1.25982
 Alpha  occ. eigenvalues --   -1.24345  -1.23687  -1.23407  -1.07457  -1.04905
 Alpha  occ. eigenvalues --   -1.03010  -0.98687  -0.96496  -0.91930  -0.89798
 Alpha  occ. eigenvalues --   -0.87340  -0.81489  -0.79635  -0.78847  -0.78667
 Alpha  occ. eigenvalues --   -0.74730  -0.73243  -0.69093  -0.67297  -0.66602
 Alpha  occ. eigenvalues --   -0.66090  -0.64340  -0.64281  -0.63357  -0.62621
 Alpha  occ. eigenvalues --   -0.61961  -0.61439  -0.59833  -0.59320  -0.58891
 Alpha  occ. eigenvalues --   -0.58107  -0.57181  -0.56655  -0.56223  -0.55403
 Alpha  occ. eigenvalues --   -0.55303  -0.54710  -0.53517  -0.53313  -0.52831
 Alpha  occ. eigenvalues --   -0.52588  -0.51738  -0.49676  -0.49601  -0.44650
 Alpha  occ. eigenvalues --   -0.43374  -0.42817  -0.41315  -0.40217  -0.39539
 Alpha  occ. eigenvalues --   -0.38515  -0.38051
 Alpha virt. eigenvalues --    0.17683   0.18574   0.19948   0.21022   0.21159
 Alpha virt. eigenvalues --    0.21235   0.24163   0.26040   0.26256   0.27033
 Alpha virt. eigenvalues --    0.27898   0.29300   0.29656   0.30307   0.30972

 Mulliken atomic charges:
              1
     1  H    0.208638
     2  C   -0.579609
     3  H    0.205975
     4  H    0.176513
     5  C    0.753229
     6  O   -0.621064
     7  N   -0.817267
     8  H    0.419707
     9  C   -0.032341
    10  H    0.217816
    11  C   -0.486418
    12  H    0.180109
    13  H    0.156421
    14  H    0.213866
    15  C    0.790838
    16  O   -0.639758
    17  N   -0.837367
    18  H    0.397302
    19  C   -0.026650
    20  H    0.217206
    21  C   -0.506606
    22  H    0.217975
    23  H    0.195815
    24  H    0.172660
    25  C    0.779912
    26  O   -0.637072
    27  N   -0.829660
    28  H    0.446761
    29  C   -0.039452
    30  H    0.212550
    31  C   -0.487928
    32  H    0.184873
    33  H    0.160830
    34  H    0.206143
    35  C    0.779209
    36  O   -0.627362
    37  N   -0.799909
    38  H    0.389128
    39  C   -0.272409
    40  H    0.183815
    41  H    0.171180
    42  H    0.202401
 Sum of Mulliken atomic charges =   0.00000

 Dipole moment (field-independent basis, Debye):
    X=             -2.5676    Y=              0.5535    Z=             -0.1111  Tot=              2.6289
 Quadrupole moment (field-independent basis, Debye-Ang):
   XX=           -116.8545   YY=           -117.3012   ZZ=           -120.8448
   XY=            -23.2708   XZ=              9.1859   YZ=              4.0019

 Normal termination of Gaussian 09 at Tue Dec 27 18:40:25 2016.
