 Gaussian 09, Revision A.02,
 Gaussian 09:  EM64L-G09RevA.02 11-Jun-2009

 -------------------------------------------------------------------
 # HF/6-31G* Opt=(ModRedundant, maxcycles=1000, calcfc) geom=nocrowd
 -------------------------------------------------------------------

 ------------------
 Phi Psi fixed scan
 ------------------
 Symbolic Z-matrix:
 Charge =  0 Multiplicity = 1

 SCF Done:  E(RHF) =  -984.518217124     A.U. after   15 cycles

  Exact polarizability:   0.000   0.000   0.000   0.000   0.000   0.000
 Approx polarizability: 128.418   2.412 121.972  -2.763 -11.096 138.204

 SCF Done:  E(RHF) =  -984.530793599     A.U. after   13 cycles
 SCF Done:  E(RHF) =  -984.543645230     A.U. after   15 cycles
 SCF Done:  E(RHF) =  -984.547287582     A.U. after   13 cycles
 SCF Done:  E(RHF) =  -984.549583136     A.U. after   13 cycles
 SCF Done:  E(RHF) =  -984.551470832     A.U. after   15 cycles
 SCF Done:  E(RHF) =  -984.552879309     A.U. after   15 cycles
 SCF Done:  E(RHF) =  -984.492052699     A.U. after   15 cycles
 SCF Done:  E(RHF) =  -984.553506176     A.U. after   15 cycles
 SCF Done:  E(RHF) =  -984.553621164     A.U. after   12 cycles
 SCF Done:  E(RHF) =  -984.554195960     A.U. after    8 cycles
 SCF Done:  E(RHF) =  -984.554196038     A.U. after    7 cycles
 SCF Done:  E(RHF) =  -984.554196098     A.U. after    7 cycles
 SCF Done:  E(RHF) =  -984.554196161     A.U. after    8 cycles
 SCF Done:  E(RHF) =  -984.554196220     A.U. after    8 cycles
 SCF Done:  E(RHF) =  -984.554196306     A.U. after    7 cycles
 SCF Done:  E(RHF) =  -984.554196438     A.U. after    9 cycles
 SCF Done:  E(RHF) =  -984.554196473     A.U. after    9 cycles
 SCF Done:  E(RHF) =  -984.554196477     A.U. after    7 cycles
 SCF Done:  E(RHF) =  -984.554196478     A.U. after    6 cycles
 Optimization completed.
    -- Stationary point found.

                         Standard orientation:
 ---------------------------------------------------------------------
 Center     Atomic      Atomic             Coordinates (Angstroms)
 Number     Number       Type             X           Y           Z
 ---------------------------------------------------------------------
      1          1           0        6.563658   -2.283548   -0.813693
      2          6           0        5.606664   -1.976894   -1.215039
      3          1           0        5.172291   -2.830056   -1.724393
      4          1           0        5.753563   -1.178740   -1.932278
      5          6           0        4.700613   -1.590620   -0.066194
      6          8           0        4.597611   -2.280558    0.915257
      7          7           0        4.009887   -0.443800   -0.222176
      8          1           0        4.080779    0.094178   -1.056586
      9          6           0        3.056455    0.017107    0.756274
     10          1           0        2.528527   -0.844497    1.145847
     11          6           0        3.735173    0.753332    1.919466
     12          1           0        4.260798    1.628904    1.554287
     13          1           0        3.012179    1.070826    2.664028
     14          1           0        4.445618    0.088797    2.392853
     15          6           0        2.077632    0.947065    0.037446
     16          8           0        2.389949    1.503736   -0.978335
     17          7           0        0.894469    1.103147    0.676047
     18          1           0        0.737313    0.515926    1.463321
     19          6           0       -0.246505    1.920687    0.268247
     20          1           0       -0.764567    2.155899    1.192003
     21          6           0        0.116440    3.233056   -0.416466
     22          1           0        0.526843    3.063423   -1.396921
     23          1           0       -0.781953    3.835144   -0.507512
     24          1           0        0.835740    3.779251    0.181972
     25          6           0       -1.180709    1.072055   -0.605468
     26          8           0       -1.047070    0.986625   -1.795545
     27          7           0       -2.136589    0.404142    0.072184
     28          1           0       -2.285891    0.550046    1.045772
     29          6           0       -3.093835   -0.450415   -0.588940
     30          1           0       -3.389645    0.022550   -1.517642
     31          6           0       -2.510999   -1.835551   -0.898921
     32          1           0       -2.226157   -2.338861    0.018626
     33          1           0       -3.228553   -2.457588   -1.423571
     34          1           0       -1.635569   -1.721488   -1.524266
     35          6           0       -4.304545   -0.570325    0.333321
     36          8           0       -4.224221   -0.326761    1.510350
     37          7           0       -5.438741   -0.997719   -0.246265
     38          1           0       -5.469147   -1.095370   -1.234446
     39          6           0       -6.662548   -1.171301    0.509847
     40          1           0       -6.472795   -1.767022    1.391166
     41          1           0       -7.075895   -0.219077    0.820904
     42          1           0       -7.383483   -1.682594   -0.113268
 ---------------------------------------------------------------------

 The electronic state is 1-A.
 Alpha  occ. eigenvalues --  -20.54266 -20.53566 -20.52773 -20.51261 -15.60301
 Alpha  occ. eigenvalues --  -15.60172 -15.58957 -15.57686 -11.36193 -11.35821
 Alpha  occ. eigenvalues --  -11.34923 -11.34148 -11.29179 -11.28891 -11.27985
 Alpha  occ. eigenvalues --  -11.27077 -11.23039 -11.22593 -11.22286 -11.21463
 Alpha  occ. eigenvalues --   -1.41256  -1.40673  -1.39536  -1.38150  -1.25511
 Alpha  occ. eigenvalues --   -1.25090  -1.24221  -1.23302  -1.07490  -1.05221
 Alpha  occ. eigenvalues --   -1.02697  -0.98496  -0.97067  -0.92053  -0.89921
 Alpha  occ. eigenvalues --   -0.86855  -0.81735  -0.79748  -0.79093  -0.78311
 Alpha  occ. eigenvalues --   -0.74802  -0.72721  -0.69232  -0.68166  -0.66842
 Alpha  occ. eigenvalues --   -0.66071  -0.65129  -0.64405  -0.63810  -0.62714
 Alpha  occ. eigenvalues --   -0.62114  -0.61128  -0.60901  -0.59045  -0.58907
 Alpha  occ. eigenvalues --   -0.57775  -0.56848  -0.56674  -0.56504  -0.54955
 Alpha  occ. eigenvalues --   -0.54646  -0.54306  -0.53765  -0.53335  -0.52655
 Alpha  occ. eigenvalues --   -0.52421  -0.51747  -0.50863  -0.49294  -0.44845
 Alpha  occ. eigenvalues --   -0.43569  -0.42300  -0.41064  -0.41019  -0.39221
 Alpha  occ. eigenvalues --   -0.38964  -0.37923
 Alpha virt. eigenvalues --    0.17273   0.18441   0.20175   0.20481   0.20923
 Alpha virt. eigenvalues --    0.21734   0.24322   0.24854   0.25681   0.27301
 Alpha virt. eigenvalues --    0.27684   0.28470   0.28959   0.29622   0.30760

 Mulliken atomic charges:
              1
     1  H    0.205936
     2  C   -0.574751
     3  H    0.203420
     4  H    0.173828
     5  C    0.756350
     6  O   -0.625017
     7  N   -0.822815
     8  H    0.421011
     9  C   -0.036307
    10  H    0.212564
    11  C   -0.484064
    12  H    0.178441
    13  H    0.156227
    14  H    0.211818
    15  C    0.802321
    16  O   -0.616309
    17  N   -0.837481
    18  H    0.389412
    19  C   -0.034754
    20  H    0.189373
    21  C   -0.487792
    22  H    0.244356
    23  H    0.161452
    24  H    0.172763
    25  C    0.802325
    26  O   -0.612279
    27  N   -0.845049
    28  H    0.418784
    29  C   -0.031430
    30  H    0.215713
    31  C   -0.485066
    32  H    0.177604
    33  H    0.160066
    34  H    0.214203
    35  C    0.776535
    36  O   -0.633586
    37  N   -0.799116
    38  H    0.391670
    39  C   -0.272688
    40  H    0.202809
    41  H    0.185896
    42  H    0.173625
 Sum of Mulliken atomic charges =   0.00000

 Dipole moment (field-independent basis, Debye):
    X=             -4.6237    Y=              0.0281    Z=             -0.1504  Tot=              4.6262
 Quadrupole moment (field-independent basis, Debye-Ang):
   XX=            -97.6481   YY=           -124.6878   ZZ=           -127.3146
   XY=             12.7646   XZ=              3.4239   YZ=             14.5015

 Normal termination of Gaussian 09 at Tue Dec 27 19:22:12 2016.
