 Gaussian 09, Revision A.02,
 Gaussian 09:  EM64L-G09RevA.02 11-Jun-2009

 ----------------------------------------------------------------------
 # b3lyp/6-31G* Opt=(ModRedundant, maxcycles=1000, calcfc) geom=nocrowd
 ----------------------------------------------------------------------

 ------------------
 Phi Psi fixed scan
 ------------------
 Symbolic Z-matrix:
 Charge =  0 Multiplicity = 1

 SCF Done:  E(RB3LYP) =  -495.838797707     A.U. after   16 cycles

  Exact polarizability:   0.000   0.000   0.000   0.000   0.000   0.000
 Approx polarizability: 110.708  -6.757 107.274  -0.709  15.979 118.560

 SCF Done:  E(RB3LYP) =  -495.842465514     A.U. after   12 cycles
 SCF Done:  E(RB3LYP) =  -495.846700069     A.U. after   13 cycles
 SCF Done:  E(RB3LYP) =  -495.847829040     A.U. after   13 cycles
 SCF Done:  E(RB3LYP) =  -495.844484791     A.U. after   13 cycles
 SCF Done:  E(RB3LYP) =  -495.847859724     A.U. after   13 cycles
 SCF Done:  E(RB3LYP) =  -495.848148196     A.U. after   12 cycles
 SCF Done:  E(RB3LYP) =  -495.847543427     A.U. after   13 cycles
 SCF Done:  E(RB3LYP) =  -495.848347455     A.U. after   13 cycles
 SCF Done:  E(RB3LYP) =  -495.848331244     A.U. after   11 cycles
 SCF Done:  E(RB3LYP) =  -495.848351818     A.U. after   11 cycles
 SCF Done:  E(RB3LYP) =  -495.848394271     A.U. after   11 cycles
 SCF Done:  E(RB3LYP) =  -495.848401834     A.U. after   10 cycles
 SCF Done:  E(RB3LYP) =  -495.848408325     A.U. after   10 cycles
 SCF Done:  E(RB3LYP) =  -495.848419395     A.U. after   10 cycles
 SCF Done:  E(RB3LYP) =  -495.848434064     A.U. after   11 cycles
 SCF Done:  E(RB3LYP) =  -495.848435632     A.U. after   10 cycles
 SCF Done:  E(RB3LYP) =  -495.848435730     A.U. after    7 cycles
 SCF Done:  E(RB3LYP) =  -495.848435761     A.U. after    7 cycles
 Optimization completed.
    -- Stationary point found.

                         Standard orientation:
 ---------------------------------------------------------------------
 Center     Atomic      Atomic             Coordinates (Angstroms)
 Number     Number       Type             X           Y           Z
 ---------------------------------------------------------------------
      1          1           0        3.485800   -1.855578   -0.099585
      2          6           0        3.206430   -0.895530   -0.541288
      3          1           0        2.987308   -1.038833   -1.604366
      4          1           0        4.070959   -0.229135   -0.447706
      5          6           0        2.045604   -0.312055    0.251733
      6          8           0        2.037446   -0.288032    1.472444
      7          7           0        1.001694    0.177784   -0.507934
      8          1           0        1.167107    0.293986   -1.499910
      9          6           0       -0.069157    0.981931    0.082504
     10          1           0        0.258297    1.233097    1.095362
     11          6           0       -0.306947    2.268426   -0.717324
     12          1           0       -0.591256    2.043646   -1.753572
     13          1           0       -1.122619    2.832255   -0.258971
     14          1           0        0.594566    2.889725   -0.728143
     15          6           0       -1.404848    0.230172    0.261872
     16          8           0       -2.306692    0.739743    0.916421
     17          7           0       -1.523834   -0.942940   -0.420537
     18          1           0       -0.668483   -1.337549   -0.787326
     19          6           0       -2.696919   -1.789547   -0.295360
     20          1           0       -3.500796   -1.178028    0.117061
     21          1           0       -2.997599   -2.173986   -1.275875
     22          1           0       -2.519318   -2.637579    0.378585
 ---------------------------------------------------------------------

 The electronic state is 1-A.
 Alpha  occ. eigenvalues --  -19.11842 -19.10479 -14.37165 -14.35828 -10.29696
 Alpha  occ. eigenvalues --  -10.27914 -10.23412 -10.21573 -10.20159 -10.19161
 Alpha  occ. eigenvalues --   -1.03951  -1.02469  -0.93455  -0.91248  -0.78318
 Alpha  occ. eigenvalues --   -0.73534  -0.70982  -0.64448  -0.59565  -0.57689
 Alpha  occ. eigenvalues --   -0.53334  -0.49322  -0.48243  -0.45753  -0.45159
 Alpha  occ. eigenvalues --   -0.43883  -0.42502  -0.41850  -0.40826  -0.40158
 Alpha  occ. eigenvalues --   -0.39025  -0.38399  -0.37568  -0.36043  -0.34483
 Alpha  occ. eigenvalues --   -0.28106  -0.25693  -0.25037  -0.23597
 Alpha virt. eigenvalues --    0.01783   0.03142   0.05861   0.10179   0.11389
 Alpha virt. eigenvalues --    0.12234   0.13427   0.14699   0.14971   0.16013
 Alpha virt. eigenvalues --    0.16466   0.17455   0.17591   0.18174   0.19582

 Mulliken atomic charges:
              1
     1  H    0.191249
     2  C   -0.539851
     3  H    0.143824
     4  H    0.189067
     5  C    0.582461
     6  O   -0.485799
     7  N   -0.626102
     8  H    0.323662
     9  C   -0.034788
    10  H    0.205291
    11  C   -0.468093
    12  H    0.142146
    13  H    0.193684
    14  H    0.156111
    15  C    0.603610
    16  O   -0.523928
    17  N   -0.587572
    18  H    0.329922
    19  C   -0.309959
    20  H    0.202108
    21  H    0.152315
    22  H    0.160643
 Sum of Mulliken atomic charges =   0.00000

 Dipole moment (field-independent basis, Debye):
    X=              1.8758    Y=             -1.4211    Z=             -5.0972  Tot=              5.6142
 Quadrupole moment (field-independent basis, Debye-Ang):
   XX=            -62.5212   YY=            -55.2700   ZZ=            -63.7262
   XY=              5.0063   XZ=             -2.8145   YZ=              0.0400

 Normal termination of Gaussian 09 at Fri Feb 10 22:57:26 2017.
