 Gaussian 09, Revision A.02,
 Gaussian 09:  EM64L-G09RevA.02 11-Jun-2009

 ----------------------------------------------------------------------
 # b3lyp/6-31G* Opt=(ModRedundant, maxcycles=1000, calcfc) geom=nocrowd
 ----------------------------------------------------------------------

 ------------------
 Phi Psi fixed scan
 ------------------
 Symbolic Z-matrix:
 Charge =  0 Multiplicity = 1

 SCF Done:  E(RB3LYP) =  -495.842968963     A.U. after   15 cycles

  Exact polarizability:   0.000   0.000   0.000   0.000   0.000   0.000
 Approx polarizability: 116.235 -15.322 112.079   4.716  -1.701 107.851

 SCF Done:  E(RB3LYP) =  -495.845980883     A.U. after   12 cycles
 SCF Done:  E(RB3LYP) =  -495.849132640     A.U. after   12 cycles
 SCF Done:  E(RB3LYP) =  -495.849600525     A.U. after   12 cycles
 SCF Done:  E(RB3LYP) =  -495.711276507     A.U. after   14 cycles
 SCF Done:  E(RB3LYP) =  -495.740858932     A.U. after   12 cycles
 SCF Done:  E(RB3LYP) =  -495.766122948     A.U. after   12 cycles
 SCF Done:  E(RB3LYP) =  -495.787435172     A.U. after   12 cycles
 SCF Done:  E(RB3LYP) =  -495.805127586     A.U. after   12 cycles
 SCF Done:  E(RB3LYP) =  -495.819511393     A.U. after   12 cycles
 SCF Done:  E(RB3LYP) =  -495.849750835     A.U. after   13 cycles
 SCF Done:  E(RB3LYP) =  -495.849789100     A.U. after   11 cycles
 SCF Done:  E(RB3LYP) =  -495.849815045     A.U. after   11 cycles
 SCF Done:  E(RB3LYP) =  -495.849838243     A.U. after   11 cycles
 SCF Done:  E(RB3LYP) =  -495.849851593     A.U. after   11 cycles
 SCF Done:  E(RB3LYP) =  -495.849852964     A.U. after    9 cycles
 SCF Done:  E(RB3LYP) =  -495.849853565     A.U. after   10 cycles
 SCF Done:  E(RB3LYP) =  -495.849854085     A.U. after    9 cycles
 SCF Done:  E(RB3LYP) =  -495.849854236     A.U. after    8 cycles
 SCF Done:  E(RB3LYP) =  -495.849854244     A.U. after    6 cycles
 Optimization completed.
    -- Stationary point found.

                         Standard orientation:
 ---------------------------------------------------------------------
 Center     Atomic      Atomic             Coordinates (Angstroms)
 Number     Number       Type             X           Y           Z
 ---------------------------------------------------------------------
      1          1           0        3.464159   -1.736287   -0.510983
      2          6           0        3.196872   -0.690868   -0.684499
      3          1           0        3.038943   -0.530295   -1.755764
      4          1           0        4.045628   -0.077643   -0.361886
      5          6           0        1.987904   -0.342655    0.171035
      6          8           0        1.895387   -0.692767    1.342308
      7          7           0        1.010451    0.385369   -0.456554
      8          1           0        1.152530    0.659018   -1.419493
      9          6           0       -0.113684    0.995936    0.250838
     10          1           0        0.130973    0.898680    1.315510
     11          6           0       -0.259970    2.473198   -0.116221
     12          1           0       -0.423554    2.598050   -1.193827
     13          1           0       -1.126675    2.895672    0.394707
     14          1           0        0.639626    3.027160    0.168983
     15          6           0       -1.451725    0.242781    0.050030
     16          8           0       -2.524835    0.833832    0.097975
     17          7           0       -1.336025   -1.098746   -0.154576
     18          1           0       -0.419406   -1.509362   -0.047404
     19          6           0       -2.492244   -1.975860   -0.201834
     20          1           0       -3.374875   -1.350363   -0.341887
     21          1           0       -2.407909   -2.679053   -1.037540
     22          1           0       -2.607757   -2.545653    0.729137
 ---------------------------------------------------------------------

 The electronic state is 1-A.
 Alpha  occ. eigenvalues --  -19.11780 -19.10783 -14.37102 -14.35748 -10.29702
 Alpha  occ. eigenvalues --  -10.28106 -10.23587 -10.21495 -10.20160 -10.18363
 Alpha  occ. eigenvalues --   -1.03909  -1.02643  -0.93381  -0.91257  -0.78208
 Alpha  occ. eigenvalues --   -0.73378  -0.71044  -0.64105  -0.59765  -0.57754
 Alpha  occ. eigenvalues --   -0.53495  -0.49093  -0.48291  -0.45942  -0.45150
 Alpha  occ. eigenvalues --   -0.44071  -0.42167  -0.42001  -0.40478  -0.39476
 Alpha  occ. eigenvalues --   -0.38774  -0.38451  -0.37203  -0.36181  -0.35031
 Alpha  occ. eigenvalues --   -0.27962  -0.25760  -0.25110  -0.23481
 Alpha virt. eigenvalues --    0.01814   0.02984   0.06686   0.09850   0.11445
 Alpha virt. eigenvalues --    0.12626   0.13294   0.14669   0.15421   0.15952
 Alpha virt. eigenvalues --    0.16892   0.17210   0.17595   0.18553   0.19377

 Mulliken atomic charges:
              1
     1  H    0.187663
     2  C   -0.537508
     3  H    0.146979
     4  H    0.189838
     5  C    0.580588
     6  O   -0.508980
     7  N   -0.601992
     8  H    0.325128
     9  C   -0.060009
    10  H    0.205359
    11  C   -0.453399
    12  H    0.143464
    13  H    0.190522
    14  H    0.149064
    15  C    0.605725
    16  O   -0.524122
    17  N   -0.586032
    18  H    0.342490
    19  C   -0.310193
    20  H    0.200834
    21  H    0.153270
    22  H    0.161310
 Sum of Mulliken atomic charges =   0.00000

 Dipole moment (field-independent basis, Debye):
    X=              2.3138    Y=             -0.8877    Z=             -3.1031  Tot=              3.9712
 Quadrupole moment (field-independent basis, Debye-Ang):
   XX=            -64.3635   YY=            -56.0905   ZZ=            -61.4393
   XY=              7.3430   XZ=             -6.0565   YZ=              1.7223

 Normal termination of Gaussian 09 at Fri Feb 10 23:00:36 2017.
