 Gaussian 09, Revision A.02,
 Gaussian 09:  EM64L-G09RevA.02 11-Jun-2009

 ----------------------------------------------------------------------
 # b3lyp/6-31G* Opt=(ModRedundant, maxcycles=1000, calcfc) geom=nocrowd
 ----------------------------------------------------------------------

 ------------------
 Phi Psi fixed scan
 ------------------
 Symbolic Z-matrix:
 Charge =  0 Multiplicity = 1

 SCF Done:  E(RB3LYP) =  -495.835293513     A.U. after   15 cycles

  Exact polarizability:   0.000   0.000   0.000   0.000   0.000   0.000
 Approx polarizability: 118.570 -12.784 104.979  -1.760   3.000 111.371

 SCF Done:  E(RB3LYP) =  -495.839250118     A.U. after   12 cycles
 SCF Done:  E(RB3LYP) =  -495.843793969     A.U. after   12 cycles
 SCF Done:  E(RB3LYP) =  -495.845481601     A.U. after   15 cycles
 SCF Done:  E(RB3LYP) =  -495.846468996     A.U. after   13 cycles
 SCF Done:  E(RB3LYP) =  -495.846298466     A.U. after   14 cycles
 SCF Done:  E(RB3LYP) =  -495.846600481     A.U. after   12 cycles
 SCF Done:  E(RB3LYP) =  -495.846892529     A.U. after   12 cycles
 SCF Done:  E(RB3LYP) =  -495.845603065     A.U. after   15 cycles
 SCF Done:  E(RB3LYP) =  -495.847001750     A.U. after   13 cycles
 SCF Done:  E(RB3LYP) =  -495.847122019     A.U. after   12 cycles
 SCF Done:  E(RB3LYP) =  -495.847129048     A.U. after   11 cycles
 SCF Done:  E(RB3LYP) =  -495.847136073     A.U. after   10 cycles
 SCF Done:  E(RB3LYP) =  -495.847138620     A.U. after   10 cycles
 SCF Done:  E(RB3LYP) =  -495.847139448     A.U. after    9 cycles
 SCF Done:  E(RB3LYP) =  -495.847139548     A.U. after    7 cycles
 SCF Done:  E(RB3LYP) =  -495.847139568     A.U. after    7 cycles
 SCF Done:  E(RB3LYP) =  -495.847139577     A.U. after    6 cycles
 Optimization completed.
    -- Stationary point found.

                         Standard orientation:
 ---------------------------------------------------------------------
 Center     Atomic      Atomic             Coordinates (Angstroms)
 Number     Number       Type             X           Y           Z
 ---------------------------------------------------------------------
      1          1           0        4.183796   -0.922509    0.031581
      2          6           0        3.225052   -0.990517   -0.485087
      3          1           0        2.883426   -2.032209   -0.448408
      4          1           0        3.350990   -0.710865   -1.536318
      5          6           0        2.213717   -0.108278    0.227548
      6          8           0        2.336635    0.225934    1.397507
      7          7           0        1.154124    0.303048   -0.559741
      8          1           0        0.984997   -0.274392   -1.375882
      9          6           0       -0.058717    0.796909    0.074406
     10          1           0        0.194003    0.919584    1.134619
     11          6           0       -0.466552    2.160428   -0.509072
     12          1           0       -0.767802    2.073438   -1.558933
     13          1           0       -1.292317    2.623253    0.044216
     14          1           0        0.386500    2.842118   -0.452667
     15          6           0       -1.149135   -0.296375   -0.034048
     16          8           0       -0.869323   -1.441788   -0.372757
     17          7           0       -2.426501    0.108943    0.219424
     18          1           0       -2.577222    1.043477    0.569156
     19          6           0       -3.546812   -0.817541    0.238282
     20          1           0       -3.230222   -1.728136   -0.271216
     21          1           0       -3.847884   -1.072969    1.262266
     22          1           0       -4.405437   -0.385657   -0.286371
 ---------------------------------------------------------------------

 The electronic state is 1-A.
 Alpha  occ. eigenvalues --  -19.11729 -19.10723 -14.36891 -14.34882 -10.28995
 Alpha  occ. eigenvalues --  -10.28140 -10.23293 -10.22298 -10.19304 -10.18456
 Alpha  occ. eigenvalues --   -1.03855  -1.02388  -0.92602  -0.91538  -0.77922
 Alpha  occ. eigenvalues --   -0.72657  -0.70903  -0.64545  -0.58991  -0.57364
 Alpha  occ. eigenvalues --   -0.53674  -0.47604  -0.46716  -0.46179  -0.45434
 Alpha  occ. eigenvalues --   -0.44012  -0.42735  -0.41852  -0.40169  -0.39662
 Alpha  occ. eigenvalues --   -0.39224  -0.38002  -0.37798  -0.35924  -0.34336
 Alpha  occ. eigenvalues --   -0.26085  -0.25620  -0.25463  -0.24188
 Alpha virt. eigenvalues --    0.02230   0.03184   0.06333   0.09565   0.11601
 Alpha virt. eigenvalues --    0.13188   0.14203   0.14605   0.15425   0.16043
 Alpha virt. eigenvalues --    0.16398   0.16550   0.17956   0.18754   0.20117

 Mulliken atomic charges:
              1
     1  H    0.183744
     2  C   -0.546454
     3  H    0.187705
     4  H    0.158148
     5  C    0.583708
     6  O   -0.498136
     7  N   -0.565972
     8  H    0.328188
     9  C   -0.074330
    10  H    0.204048
    11  C   -0.446974
    12  H    0.154888
    13  H    0.132281
    14  H    0.174751
    15  C    0.594883
    16  O   -0.521959
    17  N   -0.590556
    18  H    0.328532
    19  C   -0.309976
    20  H    0.204477
    21  H    0.162089
    22  H    0.156913
 Sum of Mulliken atomic charges =   0.00000

 Dipole moment (field-independent basis, Debye):
    X=             -3.0919    Y=              1.5760    Z=             -1.7475  Tot=              3.8855
 Quadrupole moment (field-independent basis, Debye-Ang):
   XX=            -52.1803   YY=            -60.7492   ZZ=            -62.2420
   XY=             -5.5703   XZ=             -8.9069   YZ=             -0.0057

 Normal termination of Gaussian 09 at Fri Feb 10 22:55:32 2017.
