 Gaussian 09, Revision A.02,
 Gaussian 09:  EM64L-G09RevA.02 11-Jun-2009

 ----------------------------------------------------------------------
 # b3lyp/6-31G* Opt=(ModRedundant, maxcycles=1000, calcfc) geom=nocrowd
 ----------------------------------------------------------------------

 ------------------
 Phi Psi fixed scan
 ------------------
 Symbolic Z-matrix:
 Charge =  0 Multiplicity = 1

 SCF Done:  E(RB3LYP) =  -495.829466887     A.U. after   15 cycles

  Exact polarizability:   0.000   0.000   0.000   0.000   0.000   0.000
 Approx polarizability: 121.767 -15.082 108.532   7.618  -6.261 106.776

 SCF Done:  E(RB3LYP) =  -495.834746943     A.U. after   12 cycles
 SCF Done:  E(RB3LYP) =  -495.840890782     A.U. after   12 cycles
 SCF Done:  E(RB3LYP) =  -495.842751030     A.U. after   15 cycles
 SCF Done:  E(RB3LYP) =  -495.843372789     A.U. after   13 cycles
 SCF Done:  E(RB3LYP) =  -495.809043688     A.U. after   13 cycles
 SCF Done:  E(RB3LYP) =  -495.843378867     A.U. after   14 cycles
 SCF Done:  E(RB3LYP) =  -495.843819828     A.U. after   12 cycles
 SCF Done:  E(RB3LYP) =  -495.843522377     A.U. after   12 cycles
 SCF Done:  E(RB3LYP) =  -495.844066518     A.U. after   12 cycles
 SCF Done:  E(RB3LYP) =  -495.844074024     A.U. after   12 cycles
 SCF Done:  E(RB3LYP) =  -495.844101249     A.U. after   12 cycles
 SCF Done:  E(RB3LYP) =  -495.844109539     A.U. after    9 cycles
 SCF Done:  E(RB3LYP) =  -495.844110929     A.U. after    8 cycles
 SCF Done:  E(RB3LYP) =  -495.844112012     A.U. after    9 cycles
 SCF Done:  E(RB3LYP) =  -495.844113122     A.U. after    7 cycles
 SCF Done:  E(RB3LYP) =  -495.844116027     A.U. after   10 cycles
 SCF Done:  E(RB3LYP) =  -495.844118058     A.U. after    9 cycles
 SCF Done:  E(RB3LYP) =  -495.844118396     A.U. after    7 cycles
 SCF Done:  E(RB3LYP) =  -495.844118404     A.U. after    6 cycles
 Optimization completed.
    -- Stationary point found.

                         Standard orientation:
 ---------------------------------------------------------------------
 Center     Atomic      Atomic             Coordinates (Angstroms)
 Number     Number       Type             X           Y           Z
 ---------------------------------------------------------------------
      1          1           0        4.187111   -0.848163   -0.351312
      2          6           0        3.174215   -0.955447   -0.743245
      3          1           0        2.884313   -2.010231   -0.665095
      4          1           0        3.157746   -0.673093   -1.801393
      5          6           0        2.226275   -0.118413    0.099576
      6          8           0        2.456288    0.166534    1.265427
      7          7           0        1.091654    0.309424   -0.560910
      8          1           0        0.885453   -0.155984   -1.436086
      9          6           0       -0.058363    0.790128    0.195861
     10          1           0        0.293096    0.842643    1.232725
     11          6           0       -0.473521    2.195790   -0.259150
     12          1           0       -0.836747    2.202475   -1.294127
     13          1           0       -1.250476    2.619121    0.389754
     14          1           0        0.392828    2.860520   -0.204985
     15          6           0       -1.152642   -0.304354    0.167447
     16          8           0       -0.852885   -1.481253    0.330484
     17          7           0       -2.429026    0.109077   -0.085392
     18          1           0       -2.614382    1.095618   -0.179956
     19          6           0       -3.557560   -0.806431   -0.077829
     20          1           0       -3.156191   -1.817683   -0.003009
     21          1           0       -4.220210   -0.621185    0.776578
     22          1           0       -4.138586   -0.713434   -1.002229
 ---------------------------------------------------------------------

 The electronic state is 1-A.
 Alpha  occ. eigenvalues --  -19.11093 -19.10608 -14.36810 -14.35382 -10.28710
 Alpha  occ. eigenvalues --  -10.28190 -10.23298 -10.22184 -10.19482 -10.18603
 Alpha  occ. eigenvalues --   -1.03438  -1.02325  -0.92397  -0.91711  -0.78038
 Alpha  occ. eigenvalues --   -0.72732  -0.70844  -0.64883  -0.58790  -0.57948
 Alpha  occ. eigenvalues --   -0.53659  -0.47608  -0.47285  -0.46122  -0.45056
 Alpha  occ. eigenvalues --   -0.43940  -0.42615  -0.41904  -0.39937  -0.39380
 Alpha  occ. eigenvalues --   -0.39125  -0.38686  -0.37677  -0.35916  -0.34375
 Alpha  occ. eigenvalues --   -0.26148  -0.25442  -0.24715  -0.24182
 Alpha virt. eigenvalues --    0.01797   0.03838   0.07080   0.08946   0.11452
 Alpha virt. eigenvalues --    0.13199   0.13956   0.14314   0.15424   0.15714
 Alpha virt. eigenvalues --    0.16288   0.16426   0.18151   0.18716   0.19656

 Mulliken atomic charges:
              1
     1  H    0.185148
     2  C   -0.547324
     3  H    0.190155
     4  H    0.152024
     5  C    0.597095
     6  O   -0.496671
     7  N   -0.571768
     8  H    0.321919
     9  C   -0.046705
    10  H    0.211346
    11  C   -0.475733
    12  H    0.146826
    13  H    0.144033
    14  H    0.178877
    15  C    0.576600
    16  O   -0.512323
    17  N   -0.596025
    18  H    0.331036
    19  C   -0.312182
    20  H    0.206964
    21  H    0.160402
    22  H    0.156307
 Sum of Mulliken atomic charges =   0.00000

 Dipole moment (field-independent basis, Debye):
    X=             -3.2424    Y=              1.9677    Z=             -3.3577  Tot=              5.0655
 Quadrupole moment (field-independent basis, Debye-Ang):
   XX=            -53.0648   YY=            -60.8807   ZZ=            -61.4578
   XY=             -5.3520   XZ=             -6.4413   YZ=              1.7853

 Normal termination of Gaussian 09 at Fri Feb 10 22:50:32 2017.
