 Gaussian 09, Revision A.02,
 Gaussian 09:  EM64L-G09RevA.02 11-Jun-2009

 ----------------------------------------------------------------------
 # b3lyp/6-31G* Opt=(ModRedundant, maxcycles=1000, calcfc) geom=nocrowd
 ----------------------------------------------------------------------

 ------------------
 Phi Psi fixed scan
 ------------------
 Symbolic Z-matrix:
 Charge =  0 Multiplicity = 1

 SCF Done:  E(RB3LYP) =  -495.833234876     A.U. after   15 cycles

  Exact polarizability:   0.000   0.000   0.000   0.000   0.000   0.000
 Approx polarizability: 108.059   1.488  91.825   8.746   9.351 136.574

 SCF Done:  E(RB3LYP) =  -495.836633305     A.U. after   12 cycles
 SCF Done:  E(RB3LYP) =  -495.840263381     A.U. after   13 cycles
 SCF Done:  E(RB3LYP) =  -495.840766399     A.U. after   13 cycles
 SCF Done:  E(RB3LYP) =  -495.835774832     A.U. after   14 cycles
 SCF Done:  E(RB3LYP) =  -495.840819981     A.U. after   13 cycles
 SCF Done:  E(RB3LYP) =  -495.840845229     A.U. after   12 cycles
 SCF Done:  E(RB3LYP) =  -495.840919929     A.U. after   12 cycles
 SCF Done:  E(RB3LYP) =  -495.841036358     A.U. after   13 cycles
 SCF Done:  E(RB3LYP) =  -495.841057146     A.U. after   11 cycles
 SCF Done:  E(RB3LYP) =  -495.841099194     A.U. after   12 cycles
 SCF Done:  E(RB3LYP) =  -495.841119322     A.U. after   11 cycles
 SCF Done:  E(RB3LYP) =  -495.841148373     A.U. after   11 cycles
 SCF Done:  E(RB3LYP) =  -495.841160279     A.U. after   11 cycles
 SCF Done:  E(RB3LYP) =  -495.841164889     A.U. after   10 cycles
 SCF Done:  E(RB3LYP) =  -495.841168204     A.U. after   10 cycles
 SCF Done:  E(RB3LYP) =  -495.841170882     A.U. after   10 cycles
 SCF Done:  E(RB3LYP) =  -495.841170687     A.U. after    8 cycles
 SCF Done:  E(RB3LYP) =  -495.841170650     A.U. after    7 cycles
 SCF Done:  E(RB3LYP) =  -495.841170641     A.U. after    7 cycles
 Optimization completed on the basis of negligible forces.
    -- Stationary point found.

                         Standard orientation:
 ---------------------------------------------------------------------
 Center     Atomic      Atomic             Coordinates (Angstroms)
 Number     Number       Type             X           Y           Z
 ---------------------------------------------------------------------
      1          1           0        4.117492   -0.459427   -0.628870
      2          6           0        3.185815   -1.032830   -0.666035
      3          1           0        3.385819   -2.007716   -0.211790
      4          1           0        2.900772   -1.181881   -1.712611
      5          6           0        2.133674   -0.314875    0.168378
      6          8           0        2.278468   -0.121035    1.365068
      7          7           0        1.010462    0.084042   -0.523461
      8          1           0        1.049996    0.043086   -1.533262
      9          6           0       -0.024609    0.918249    0.087333
     10          1           0        0.377110    1.236212    1.051422
     11          6           0       -0.342414    2.137418   -0.786348
     12          1           0       -0.703882    1.844096   -1.780167
     13          1           0       -1.123026    2.745072   -0.318134
     14          1           0        0.551047    2.757905   -0.912087
     15          6           0       -1.300881    0.122910    0.444230
     16          8           0       -1.762227    0.134913    1.575911
     17          7           0       -1.929799   -0.485932   -0.611731
     18          1           0       -1.394532   -0.622397   -1.458113
     19          6           0       -3.094548   -1.334586   -0.415674
     20          1           0       -3.610110   -0.987662    0.480556
     21          1           0       -3.764970   -1.253767   -1.276969
     22          1           0       -2.822505   -2.389039   -0.272761
 ---------------------------------------------------------------------

 The electronic state is 1-A.
 Alpha  occ. eigenvalues --  -19.11097 -19.11014 -14.36778 -14.36256 -10.29088
 Alpha  occ. eigenvalues --  -10.28171 -10.23320 -10.21861 -10.19732 -10.19675
 Alpha  occ. eigenvalues --   -1.03390  -1.02758  -0.93057  -0.91526  -0.78376
 Alpha  occ. eigenvalues --   -0.73299  -0.70842  -0.64908  -0.59350  -0.58200
 Alpha  occ. eigenvalues --   -0.53227  -0.49006  -0.47822  -0.45384  -0.45255
 Alpha  occ. eigenvalues --   -0.43967  -0.42728  -0.41947  -0.40844  -0.39888
 Alpha  occ. eigenvalues --   -0.39481  -0.38265  -0.37141  -0.35996  -0.35290
 Alpha  occ. eigenvalues --   -0.27640  -0.25241  -0.25015  -0.23561
 Alpha virt. eigenvalues --    0.02111   0.02888   0.04504   0.09220   0.11476
 Alpha virt. eigenvalues --    0.12322   0.13311   0.14657   0.15193   0.15710
 Alpha virt. eigenvalues --    0.16556   0.16978   0.17652   0.18831   0.19389

 Mulliken atomic charges:
              1
     1  H    0.187267
     2  C   -0.536731
     3  H    0.191381
     4  H    0.138327
     5  C    0.593056
     6  O   -0.487573
     7  N   -0.606595
     8  H    0.312080
     9  C   -0.061093
    10  H    0.207772
    11  C   -0.461676
    12  H    0.135694
    13  H    0.178651
    14  H    0.163850
    15  C    0.612089
    16  O   -0.502083
    17  N   -0.582083
    18  H    0.311699
    19  C   -0.307985
    20  H    0.202539
    21  H    0.152339
    22  H    0.159074
 Sum of Mulliken atomic charges =   0.00000

 Dipole moment (field-independent basis, Debye):
    X=             -0.0982    Y=             -0.5696    Z=             -6.5151  Tot=              6.5407
 Quadrupole moment (field-independent basis, Debye-Ang):
   XX=            -59.1766   YY=            -55.9473   ZZ=            -64.8474
   XY=              1.3977   XZ=             -1.5139   YZ=              1.1127

 Normal termination of Gaussian 09 at Fri Feb 10 22:56:05 2017.
