 Gaussian 09, Revision A.02,
 Gaussian 09:  EM64L-G09RevA.02 11-Jun-2009

 ----------------------------------------------------------------------
 # b3lyp/6-31G* Opt=(ModRedundant, maxcycles=1000, calcfc) geom=nocrowd
 ----------------------------------------------------------------------

 ------------------
 Phi Psi fixed scan
 ------------------
 Symbolic Z-matrix:
 Charge =  0 Multiplicity = 1

 SCF Done:  E(RB3LYP) =  -495.841349316     A.U. after   16 cycles

  Exact polarizability:   0.000   0.000   0.000   0.000   0.000   0.000
 Approx polarizability: 113.310 -10.236 109.678  -0.334  11.118 113.694

 SCF Done:  E(RB3LYP) =  -495.844678968     A.U. after   12 cycles
 SCF Done:  E(RB3LYP) =  -495.848295867     A.U. after   12 cycles
 SCF Done:  E(RB3LYP) =  -495.849023359     A.U. after   13 cycles
 SCF Done:  E(RB3LYP) =  -495.840832065     A.U. after   14 cycles
 SCF Done:  E(RB3LYP) =  -495.849064108     A.U. after   13 cycles
 SCF Done:  E(RB3LYP) =  -495.849249301     A.U. after   12 cycles
 SCF Done:  E(RB3LYP) =  -495.848641118     A.U. after   13 cycles
 SCF Done:  E(RB3LYP) =  -495.849395449     A.U. after   13 cycles
 SCF Done:  E(RB3LYP) =  -495.849463982     A.U. after   11 cycles
 SCF Done:  E(RB3LYP) =  -495.849478858     A.U. after   11 cycles
 SCF Done:  E(RB3LYP) =  -495.849487093     A.U. after   10 cycles
 SCF Done:  E(RB3LYP) =  -495.849491124     A.U. after   10 cycles
 SCF Done:  E(RB3LYP) =  -495.849501152     A.U. after   10 cycles
 SCF Done:  E(RB3LYP) =  -495.849513746     A.U. after   10 cycles
 SCF Done:  E(RB3LYP) =  -495.849515426     A.U. after   10 cycles
 SCF Done:  E(RB3LYP) =  -495.849515585     A.U. after    7 cycles
 SCF Done:  E(RB3LYP) =  -495.849515594     A.U. after    6 cycles
 Optimization completed.
    -- Stationary point found.

                         Standard orientation:
 ---------------------------------------------------------------------
 Center     Atomic      Atomic             Coordinates (Angstroms)
 Number     Number       Type             X           Y           Z
 ---------------------------------------------------------------------
      1          1           0        3.472532   -1.830163   -0.191804
      2          6           0        3.194522   -0.844927   -0.574755
      3          1           0        2.988901   -0.919655   -1.647547
      4          1           0        4.055186   -0.182804   -0.428913
      5          6           0        2.022298   -0.315459    0.239073
      6          8           0        1.989739   -0.388014    1.458273
      7          7           0        1.002714    0.249042   -0.497857
      8          1           0        1.161508    0.401739   -1.485453
      9          6           0       -0.089409    0.995278    0.125242
     10          1           0        0.205895    1.140195    1.169557
     11          6           0       -0.288052    2.358529   -0.546103
     12          1           0       -0.509503    2.245201   -1.615518
     13          1           0       -1.134216    2.868226   -0.081119
     14          1           0        0.609453    2.975901   -0.439398
     15          6           0       -1.433062    0.235370    0.185907
     16          8           0       -2.420295    0.781148    0.666658
     17          7           0       -1.435426   -1.018384   -0.340879
     18          1           0       -0.542213   -1.399234   -0.619200
     19          6           0       -2.594990   -1.888070   -0.269825
     20          1           0       -3.442346   -1.277979    0.046650
     21          1           0       -2.810174   -2.328372   -1.249876
     22          1           0       -2.449447   -2.697062    0.457096
 ---------------------------------------------------------------------

 The electronic state is 1-A.
 Alpha  occ. eigenvalues --  -19.11833 -19.10445 -14.37207 -14.35854 -10.29734
 Alpha  occ. eigenvalues --  -10.27968 -10.23471 -10.21574 -10.20198 -10.18828
 Alpha  occ. eigenvalues --   -1.03961  -1.02458  -0.93487  -0.91269  -0.78257
 Alpha  occ. eigenvalues --   -0.73486  -0.71070  -0.64329  -0.59676  -0.57787
 Alpha  occ. eigenvalues --   -0.53489  -0.49277  -0.48279  -0.45737  -0.45216
 Alpha  occ. eigenvalues --   -0.44033  -0.42371  -0.41832  -0.40668  -0.40073
 Alpha  occ. eigenvalues --   -0.38946  -0.38492  -0.37347  -0.36084  -0.34514
 Alpha  occ. eigenvalues --   -0.28112  -0.25711  -0.24987  -0.23574
 Alpha virt. eigenvalues --    0.01827   0.03308   0.06004   0.10039   0.11435
 Alpha virt. eigenvalues --    0.12447   0.13406   0.14615   0.14980   0.16053
 Alpha virt. eigenvalues --    0.16607   0.17391   0.17547   0.18371   0.19497

 Mulliken atomic charges:
              1
     1  H    0.190260
     2  C   -0.539594
     3  H    0.144340
     4  H    0.189748
     5  C    0.580345
     6  O   -0.488917
     7  N   -0.627127
     8  H    0.324425
     9  C   -0.036188
    10  H    0.208224
    11  C   -0.465579
    12  H    0.140212
    13  H    0.195914
    14  H    0.153950
    15  C    0.607213
    16  O   -0.527677
    17  N   -0.588568
    18  H    0.332498
    19  C   -0.310302
    20  H    0.202921
    21  H    0.152674
    22  H    0.161227
 Sum of Mulliken atomic charges =   0.00000

 Dipole moment (field-independent basis, Debye):
    X=              2.1321    Y=             -1.3612    Z=             -4.5963  Tot=              5.2464
 Quadrupole moment (field-independent basis, Debye-Ang):
   XX=            -63.6539   YY=            -55.3840   ZZ=            -62.8740
   XY=              5.7804   XZ=             -3.6585   YZ=              0.6268

 Normal termination of Gaussian 09 at Fri Feb 10 22:40:08 2017.
