 Gaussian 09, Revision A.02,
 Gaussian 09:  EM64L-G09RevA.02 11-Jun-2009

 ----------------------------------------------------------------------
 # b3lyp/6-31G* Opt=(ModRedundant, maxcycles=1000, calcfc) geom=nocrowd
 ----------------------------------------------------------------------

 ------------------
 Phi Psi fixed scan
 ------------------
 Symbolic Z-matrix:
 Charge =  0 Multiplicity = 1

 SCF Done:  E(RB3LYP) =  -495.845631123     A.U. after   15 cycles

  Exact polarizability:   0.000   0.000   0.000   0.000   0.000   0.000
 Approx polarizability: 110.085 -11.826 116.886   8.433 -20.289 109.704

 SCF Done:  E(RB3LYP) =  -495.848634621     A.U. after   12 cycles
 SCF Done:  E(RB3LYP) =  -495.851833438     A.U. after   12 cycles
 SCF Done:  E(RB3LYP) =  -495.852350622     A.U. after   12 cycles
 SCF Done:  E(RB3LYP) =  -495.782351645     A.U. after   14 cycles
 SCF Done:  E(RB3LYP) =  -495.803974385     A.U. after   12 cycles
 SCF Done:  E(RB3LYP) =  -495.820554865     A.U. after   12 cycles
 SCF Done:  E(RB3LYP) =  -495.832940875     A.U. after   12 cycles
 SCF Done:  E(RB3LYP) =  -495.842078883     A.U. after   13 cycles
 SCF Done:  E(RB3LYP) =  -495.847349251     A.U. after   12 cycles
 SCF Done:  E(RB3LYP) =  -495.848251750     A.U. after   15 cycles
 SCF Done:  E(RB3LYP) =  -495.852481486     A.U. after   16 cycles
 SCF Done:  E(RB3LYP) =  -495.852539134     A.U. after   11 cycles
 SCF Done:  E(RB3LYP) =  -495.852596607     A.U. after   11 cycles
 SCF Done:  E(RB3LYP) =  -495.852624990     A.U. after   10 cycles
 SCF Done:  E(RB3LYP) =  -495.852635327     A.U. after   11 cycles
 SCF Done:  E(RB3LYP) =  -495.852635488     A.U. after    7 cycles
 SCF Done:  E(RB3LYP) =  -495.852635499     A.U. after    7 cycles
 SCF Done:  E(RB3LYP) =  -495.852635503     A.U. after    6 cycles
 SCF Done:  E(RB3LYP) =  -495.852635518     A.U. after    6 cycles
 Optimization completed.
    -- Stationary point found.

                         Standard orientation:
 ---------------------------------------------------------------------
 Center     Atomic      Atomic             Coordinates (Angstroms)
 Number     Number       Type             X           Y           Z
 ---------------------------------------------------------------------
      1          1           0        3.316944   -1.689388   -0.978146
      2          6           0        3.179040   -0.622321   -0.783444
      3          1           0        3.154886   -0.082712   -1.735299
      4          1           0        4.045519   -0.280570   -0.207236
      5          6           0        1.928415   -0.432726    0.057713
      6          8           0        1.728200   -1.085040    1.081961
      7          7           0        1.028553    0.485961   -0.399954
      8          1           0        1.238911    1.014165   -1.235884
      9          6           0       -0.084758    0.954320    0.432199
     10          1           0        0.132159    0.597339    1.442672
     11          6           0       -0.188011    2.476364    0.405176
     12          1           0       -0.430572    2.830932   -0.601493
     13          1           0       -0.993354    2.811344    1.065195
     14          1           0        0.751030    2.930051    0.738078
     15          6           0       -1.391585    0.295022   -0.065043
     16          8           0       -2.231788    0.898179   -0.722262
     17          7           0       -1.487438   -1.015114    0.298297
     18          1           0       -0.686327   -1.426052    0.766095
     19          6           0       -2.565693   -1.876974   -0.149521
     20          1           0       -3.334934   -1.241413   -0.590860
     21          1           0       -2.224368   -2.596464   -0.905198
     22          1           0       -2.993446   -2.430377    0.693607
 ---------------------------------------------------------------------

 The electronic state is 1-A.
 Alpha  occ. eigenvalues --  -19.11875 -19.10789 -14.37068 -14.35302 -10.29696
 Alpha  occ. eigenvalues --  -10.27847 -10.23373 -10.21227 -10.20070 -10.18408
 Alpha  occ. eigenvalues --   -1.03880  -1.02458  -0.93089  -0.91126  -0.78218
 Alpha  occ. eigenvalues --   -0.73397  -0.70916  -0.63883  -0.59704  -0.57318
 Alpha  occ. eigenvalues --   -0.52951  -0.48964  -0.48490  -0.46078  -0.44967
 Alpha  occ. eigenvalues --   -0.44060  -0.41967  -0.41948  -0.40577  -0.39563
 Alpha  occ. eigenvalues --   -0.38601  -0.37692  -0.37000  -0.36234  -0.35648
 Alpha  occ. eigenvalues --   -0.27583  -0.25915  -0.24581  -0.23752
 Alpha virt. eigenvalues --    0.01410   0.03413   0.07085   0.10301   0.11686
 Alpha virt. eigenvalues --    0.12377   0.13495   0.14976   0.15982   0.16277
 Alpha virt. eigenvalues --    0.16970   0.17427   0.17655   0.18801   0.20114

 Mulliken atomic charges:
              1
     1  H    0.188953
     2  C   -0.533262
     3  H    0.148511
     4  H    0.188870
     5  C    0.595057
     6  O   -0.525266
     7  N   -0.580420
     8  H    0.329026
     9  C   -0.068744
    10  H    0.184623
    11  C   -0.454909
    12  H    0.165781
    13  H    0.168976
    14  H    0.145810
    15  C    0.613303
    16  O   -0.523619
    17  N   -0.592280
    18  H    0.349108
    19  C   -0.310531
    20  H    0.198043
    21  H    0.155677
    22  H    0.157294
 Sum of Mulliken atomic charges =   0.00000

 Dipole moment (field-independent basis, Debye):
    X=              2.1890    Y=             -0.0850    Z=             -1.0869  Tot=              2.4454
 Quadrupole moment (field-independent basis, Debye-Ang):
   XX=            -60.7898   YY=            -57.7340   ZZ=            -61.0074
   XY=              8.5649   XZ=             -8.5610   YZ=              3.1217

 Normal termination of Gaussian 09 at Fri Feb 10 23:20:41 2017.
