 Gaussian 09, Revision A.02,
 Gaussian 09:  EM64L-G09RevA.02 11-Jun-2009

 ----------------------------------------------------------------------
 # b3lyp/6-31G* Opt=(ModRedundant, maxcycles=1000, calcfc) geom=nocrowd
 ----------------------------------------------------------------------

 ------------------
 Phi Psi fixed scan
 ------------------
 Symbolic Z-matrix:
 Charge =  0 Multiplicity = 1

 SCF Done:  E(RB3LYP) =  -495.828259099     A.U. after   15 cycles

  Exact polarizability:   0.000   0.000   0.000   0.000   0.000   0.000
 Approx polarizability: 118.080  12.297 107.626  13.701  16.422 112.191

 SCF Done:  E(RB3LYP) =  -495.833486472     A.U. after   13 cycles
 SCF Done:  E(RB3LYP) =  -495.839552516     A.U. after   13 cycles
 SCF Done:  E(RB3LYP) =  -495.841178504     A.U. after   14 cycles
 SCF Done:  E(RB3LYP) =  -495.841335471     A.U. after   13 cycles
 SCF Done:  E(RB3LYP) =  -495.774735074     A.U. after   16 cycles
 SCF Done:  E(RB3LYP) =  -495.841336330     A.U. after   16 cycles
 SCF Done:  E(RB3LYP) =  -495.841705947     A.U. after   12 cycles
 SCF Done:  E(RB3LYP) =  -495.840902134     A.U. after   12 cycles
 SCF Done:  E(RB3LYP) =  -495.841920859     A.U. after   12 cycles
 SCF Done:  E(RB3LYP) =  -495.841951730     A.U. after   10 cycles
 SCF Done:  E(RB3LYP) =  -495.841961429     A.U. after   10 cycles
 SCF Done:  E(RB3LYP) =  -495.841973010     A.U. after   10 cycles
 SCF Done:  E(RB3LYP) =  -495.841987720     A.U. after   10 cycles
 SCF Done:  E(RB3LYP) =  -495.841992607     A.U. after   11 cycles
 SCF Done:  E(RB3LYP) =  -495.841997972     A.U. after   10 cycles
 SCF Done:  E(RB3LYP) =  -495.841998419     A.U. after   10 cycles
 SCF Done:  E(RB3LYP) =  -495.841998843     A.U. after    7 cycles
 SCF Done:  E(RB3LYP) =  -495.841998986     A.U. after    7 cycles
 SCF Done:  E(RB3LYP) =  -495.841999001     A.U. after    6 cycles
 Optimization completed.
    -- Stationary point found.

                         Standard orientation:
 ---------------------------------------------------------------------
 Center     Atomic      Atomic             Coordinates (Angstroms)
 Number     Number       Type             X           Y           Z
 ---------------------------------------------------------------------
      1          1           0       -4.123137   -0.775057    0.728980
      2          6           0       -3.073637   -0.974065    0.955634
      3          1           0       -2.891741   -2.043291    0.795541
      4          1           0       -2.878065   -0.743882    2.008340
      5          6           0       -2.204212   -0.176744   -0.004625
      6          8           0       -2.532357    0.037794   -1.161330
      7          7           0       -1.027398    0.296420    0.536939
      8          1           0       -0.768240   -0.039538    1.455575
      9          6           0        0.044678    0.817989   -0.307252
     10          1           0       -0.381368    0.845794   -1.313418
     11          6           0        0.445538    2.235876    0.116533
     12          1           0        0.768305    2.280003    1.165304
     13          1           0        1.252071    2.627070   -0.514650
     14          1           0       -0.416092    2.902142    0.016965
     15          6           0        1.176959   -0.234291   -0.370122
     16          8           0        1.021786   -1.280034   -0.985838
     17          7           0        2.298710    0.036303    0.366697
     18          1           0        2.409506    0.957846    0.762264
     19          6           0        3.446500   -0.855519    0.378706
     20          1           0        3.120821   -1.812694   -0.030145
     21          1           0        4.268395   -0.469841   -0.238011
     22          1           0        3.809964   -0.999163    1.401904
 ---------------------------------------------------------------------

 The electronic state is 1-A.
 Alpha  occ. eigenvalues --  -19.10991 -19.10585 -14.36767 -14.35951 -10.28572
 Alpha  occ. eigenvalues --  -10.28417 -10.23296 -10.22178 -10.19611 -10.18918
 Alpha  occ. eigenvalues --   -1.03327  -1.02403  -0.92481  -0.91843  -0.78170
 Alpha  occ. eigenvalues --   -0.72881  -0.70907  -0.65051  -0.58763  -0.58426
 Alpha  occ. eigenvalues --   -0.53619  -0.48119  -0.47319  -0.46292  -0.44874
 Alpha  occ. eigenvalues --   -0.43928  -0.42553  -0.41944  -0.40344  -0.39633
 Alpha  occ. eigenvalues --   -0.39140  -0.38628  -0.37296  -0.35914  -0.34838
 Alpha  occ. eigenvalues --   -0.26831  -0.25576  -0.24483  -0.23696
 Alpha virt. eigenvalues --    0.01331   0.04212   0.06567   0.08527   0.11326
 Alpha virt. eigenvalues --    0.13037   0.13773   0.14437   0.15428   0.15722
 Alpha virt. eigenvalues --    0.16284   0.16526   0.18162   0.18545   0.19580

 Mulliken atomic charges:
              1
     1  H    0.186874
     2  C   -0.543051
     3  H    0.189570
     4  H    0.145664
     5  C    0.600574
     6  O   -0.493544
     7  N   -0.584965
     8  H    0.318741
     9  C   -0.037515
    10  H    0.210592
    11  C   -0.475037
    12  H    0.135363
    13  H    0.155468
    14  H    0.177731
    15  C    0.572073
    16  O   -0.502646
    17  N   -0.594771
    18  H    0.329139
    19  C   -0.311077
    20  H    0.206146
    21  H    0.160329
    22  H    0.154342
 Sum of Mulliken atomic charges =   0.00000

 Dipole moment (field-independent basis, Debye):
    X=              2.9844    Y=              1.9701    Z=              4.7152  Tot=              5.9179
 Quadrupole moment (field-independent basis, Debye-Ang):
   XX=            -55.4563   YY=            -59.6860   ZZ=            -61.9525
   XY=              4.5138   XZ=             -4.1396   YZ=             -3.3395

 Normal termination of Gaussian 09 at Fri Feb 10 23:06:38 2017.
