 Gaussian 09, Revision A.02,
 Gaussian 09:  EM64L-G09RevA.02 11-Jun-2009

 ----------------------------------------------------------------------
 # b3lyp/6-31G* Opt=(ModRedundant, maxcycles=1000, calcfc) geom=nocrowd
 ----------------------------------------------------------------------

 ------------------
 Phi Psi fixed scan
 ------------------
 Symbolic Z-matrix:
 Charge =  0 Multiplicity = 1

 SCF Done:  E(RB3LYP) =  -495.844189741     A.U. after   14 cycles

  Exact polarizability:   0.000   0.000   0.000   0.000   0.000   0.000
 Approx polarizability: 107.148  -1.156  99.959  -5.359  18.250 127.034

 SCF Done:  E(RB3LYP) =  -495.846717512     A.U. after   11 cycles
 SCF Done:  E(RB3LYP) =  -495.849496069     A.U. after   12 cycles
 SCF Done:  E(RB3LYP) =  -495.850447169     A.U. after   13 cycles
 SCF Done:  E(RB3LYP) =  -495.838064136     A.U. after   14 cycles
 SCF Done:  E(RB3LYP) =  -495.843141864     A.U. after   12 cycles
 SCF Done:  E(RB3LYP) =  -495.846326039     A.U. after   11 cycles
 SCF Done:  E(RB3LYP) =  -495.848406782     A.U. after   12 cycles
 SCF Done:  E(RB3LYP) =  -495.848343789     A.U. after   12 cycles
 SCF Done:  E(RB3LYP) =  -495.849268706     A.U. after   11 cycles
 SCF Done:  E(RB3LYP) =  -495.850986011     A.U. after   12 cycles
 SCF Done:  E(RB3LYP) =  -495.851009095     A.U. after   11 cycles
 SCF Done:  E(RB3LYP) =  -495.851019479     A.U. after    9 cycles
 SCF Done:  E(RB3LYP) =  -495.851033357     A.U. after   11 cycles
 SCF Done:  E(RB3LYP) =  -495.851048288     A.U. after   11 cycles
 SCF Done:  E(RB3LYP) =  -495.851051000     A.U. after   10 cycles
 SCF Done:  E(RB3LYP) =  -495.851051937     A.U. after   10 cycles
 SCF Done:  E(RB3LYP) =  -495.851052438     A.U. after   10 cycles
 SCF Done:  E(RB3LYP) =  -495.851052453     A.U. after    7 cycles
 SCF Done:  E(RB3LYP) =  -495.851052435     A.U. after    6 cycles
 Optimization completed.
    -- Stationary point found.

                         Standard orientation:
 ---------------------------------------------------------------------
 Center     Atomic      Atomic             Coordinates (Angstroms)
 Number     Number       Type             X           Y           Z
 ---------------------------------------------------------------------
      1          1           0       -4.152990   -0.728631    0.273395
      2          6           0       -3.178390   -0.878086    0.746173
      3          1           0       -3.052884   -1.954646    0.904615
      4          1           0       -3.168095   -0.374019    1.717296
      5          6           0       -2.095051   -0.390468   -0.203590
      6          8           0       -2.067982   -0.723372   -1.382681
      7          7           0       -1.175406    0.465935    0.351269
      8          1           0       -1.101302    0.502452    1.361221
      9          6           0        0.044297    0.831319   -0.356376
     10          1           0       -0.109048    0.519803   -1.393006
     11          6           0        0.297302    2.343775   -0.285455
     12          1           0        0.434813    2.658046    0.754509
     13          1           0        1.201141    2.613000   -0.843740
     14          1           0       -0.552600    2.886363   -0.709905
     15          6           0        1.220558    0.074747    0.284543
     16          8           0        1.348908    0.044547    1.505896
     17          7           0        2.093570   -0.502652   -0.584788
     18          1           0        1.856281   -0.507521   -1.566697
     19          6           0        3.260891   -1.250400   -0.148037
     20          1           0        3.353436   -1.110549    0.929693
     21          1           0        3.152453   -2.320871   -0.360367
     22          1           0        4.166595   -0.881128   -0.641657
 ---------------------------------------------------------------------

 The electronic state is 1-A.
 Alpha  occ. eigenvalues --  -19.11575 -19.10588 -14.37039 -14.35487 -10.28798
 Alpha  occ. eigenvalues --  -10.28452 -10.23272 -10.22265 -10.18858 -10.18634
 Alpha  occ. eigenvalues --   -1.03676  -1.02409  -0.92630  -0.91830  -0.77907
 Alpha  occ. eigenvalues --   -0.72748  -0.71331  -0.64010  -0.59239  -0.57861
 Alpha  occ. eigenvalues --   -0.53630  -0.48045  -0.46939  -0.46207  -0.45405
 Alpha  occ. eigenvalues --   -0.44305  -0.42395  -0.41699  -0.40652  -0.39543
 Alpha  occ. eigenvalues --   -0.39375  -0.37828  -0.36702  -0.36014  -0.34813
 Alpha  occ. eigenvalues --   -0.26559  -0.25976  -0.25048  -0.23869
 Alpha virt. eigenvalues --    0.02027   0.03389   0.07196   0.08994   0.12007
 Alpha virt. eigenvalues --    0.12555   0.13494   0.15413   0.15909   0.16207
 Alpha virt. eigenvalues --    0.16715   0.16979   0.17786   0.18772   0.19884

 Mulliken atomic charges:
              1
     1  H    0.185558
     2  C   -0.534776
     3  H    0.183501
     4  H    0.149635
     5  C    0.588133
     6  O   -0.510900
     7  N   -0.578150
     8  H    0.334742
     9  C   -0.062587
    10  H    0.170363
    11  C   -0.442629
    12  H    0.164392
    13  H    0.148720
    14  H    0.164298
    15  C    0.613672
    16  O   -0.535720
    17  N   -0.587395
    18  H    0.334117
    19  C   -0.313013
    20  H    0.205107
    21  H    0.163537
    22  H    0.159393
 Sum of Mulliken atomic charges =   0.00000

 Dipole moment (field-independent basis, Debye):
    X=              1.5314    Y=              0.2974    Z=             -0.2617  Tot=              1.5818
 Quadrupole moment (field-independent basis, Debye-Ang):
   XX=            -54.6101   YY=            -58.0256   ZZ=            -64.0600
   XY=             -3.4317   XZ=            -12.4406   YZ=             -1.8485

 Normal termination of Gaussian 09 at Fri Feb 10 22:46:51 2017.
