 Gaussian 09, Revision A.02,
 Gaussian 09:  EM64L-G09RevA.02 11-Jun-2009

 ----------------------------------------------------------------------
 # b3lyp/6-31G* Opt=(ModRedundant, maxcycles=1000, calcfc) geom=nocrowd
 ----------------------------------------------------------------------

 ------------------
 Phi Psi fixed scan
 ------------------
 Symbolic Z-matrix:
 Charge =  0 Multiplicity = 1

 SCF Done:  E(RB3LYP) =  -495.838933096     A.U. after   15 cycles

  Exact polarizability:   0.000   0.000   0.000   0.000   0.000   0.000
 Approx polarizability: 115.404 -10.199 101.039  -5.566   5.172 117.457

 SCF Done:  E(RB3LYP) =  -495.842187475     A.U. after   12 cycles
 SCF Done:  E(RB3LYP) =  -495.845933538     A.U. after   13 cycles
 SCF Done:  E(RB3LYP) =  -495.847462047     A.U. after   13 cycles
 SCF Done:  E(RB3LYP) =  -495.844222294     A.U. after   15 cycles
 SCF Done:  E(RB3LYP) =  -495.847622522     A.U. after   13 cycles
 SCF Done:  E(RB3LYP) =  -495.848277732     A.U. after   12 cycles
 SCF Done:  E(RB3LYP) =  -495.848242582     A.U. after   13 cycles
 SCF Done:  E(RB3LYP) =  -495.848724905     A.U. after   12 cycles
 SCF Done:  E(RB3LYP) =  -495.848709319     A.U. after   11 cycles
 SCF Done:  E(RB3LYP) =  -495.848725296     A.U. after   11 cycles
 SCF Done:  E(RB3LYP) =  -495.848869003     A.U. after   11 cycles
 SCF Done:  E(RB3LYP) =  -495.848887652     A.U. after   11 cycles
 SCF Done:  E(RB3LYP) =  -495.848892514     A.U. after   10 cycles
 SCF Done:  E(RB3LYP) =  -495.848896343     A.U. after   10 cycles
 SCF Done:  E(RB3LYP) =  -495.848899322     A.U. after   10 cycles
 SCF Done:  E(RB3LYP) =  -495.848899594     A.U. after    8 cycles
 SCF Done:  E(RB3LYP) =  -495.848899583     A.U. after    6 cycles
 Optimization completed.
    -- Stationary point found.

                         Standard orientation:
 ---------------------------------------------------------------------
 Center     Atomic      Atomic             Coordinates (Angstroms)
 Number     Number       Type             X           Y           Z
 ---------------------------------------------------------------------
      1          1           0        4.184004   -0.913168    0.120057
      2          6           0        3.233098   -1.005655   -0.407677
      3          1           0        2.911077   -2.052948   -0.355767
      4          1           0        3.368005   -0.742633   -1.461795
      5          6           0        2.198391   -0.129651    0.279457
      6          8           0        2.276316    0.178453    1.460978
      7          7           0        1.176826    0.307026   -0.542579
      8          1           0        1.020191   -0.260254   -1.369615
      9          6           0       -0.054602    0.807300    0.045740
     10          1           0        0.153739    0.942600    1.112989
     11          6           0       -0.453047    2.157133   -0.577333
     12          1           0       -0.663069    2.047851   -1.647294
     13          1           0       -1.343222    2.584508   -0.102755
     14          1           0        0.370120    2.867593   -0.460374
     15          6           0       -1.154838   -0.265975   -0.122414
     16          8           0       -0.944854   -1.309921   -0.732460
     17          7           0       -2.375185    0.066613    0.386143
     18          1           0       -2.444146    0.893700    0.961998
     19          6           0       -3.508594   -0.843648    0.357345
     20          1           0       -3.286099   -1.623735   -0.371395
     21          1           0       -3.679378   -1.312620    1.334631
     22          1           0       -4.416856   -0.311642    0.055528
 ---------------------------------------------------------------------

 The electronic state is 1-A.
 Alpha  occ. eigenvalues --  -19.11993 -19.10714 -14.36993 -14.34796 -10.29083
 Alpha  occ. eigenvalues --  -10.28170 -10.23262 -10.22379 -10.19127 -10.18481
 Alpha  occ. eigenvalues --   -1.04015  -1.02393  -0.92738  -0.91527  -0.77900
 Alpha  occ. eigenvalues --   -0.72674  -0.71000  -0.64321  -0.59138  -0.57238
 Alpha  occ. eigenvalues --   -0.53670  -0.47753  -0.46511  -0.46120  -0.45701
 Alpha  occ. eigenvalues --   -0.44071  -0.42749  -0.41817  -0.40395  -0.39762
 Alpha  occ. eigenvalues --   -0.39212  -0.37972  -0.37504  -0.35940  -0.34399
 Alpha  occ. eigenvalues --   -0.26258  -0.25903  -0.25475  -0.24094
 Alpha virt. eigenvalues --    0.02191   0.03036   0.06365   0.09729   0.11674
 Alpha virt. eigenvalues --    0.13231   0.14357   0.14744   0.15476   0.15946
 Alpha virt. eigenvalues --    0.16431   0.16562   0.17918   0.18769   0.19461

 Mulliken atomic charges:
              1
     1  H    0.183599
     2  C   -0.543823
     3  H    0.185571
     4  H    0.158483
     5  C    0.579639
     6  O   -0.499759
     7  N   -0.567252
     8  H    0.332110
     9  C   -0.082972
    10  H    0.193993
    11  C   -0.436119
    12  H    0.155236
    13  H    0.134674
    14  H    0.171568
    15  C    0.603060
    16  O   -0.524731
    17  N   -0.586758
    18  H    0.328843
    19  C   -0.310197
    20  H    0.204310
    21  H    0.162715
    22  H    0.157808
 Sum of Mulliken atomic charges =   0.00000

 Dipole moment (field-independent basis, Debye):
    X=             -2.8805    Y=              1.3105    Z=             -1.0133  Tot=              3.3229
 Quadrupole moment (field-independent basis, Debye-Ang):
   XX=            -52.4341   YY=            -60.2917   ZZ=            -62.8053
   XY=             -5.0157   XZ=            -10.1566   YZ=             -0.6896

 Normal termination of Gaussian 09 at Fri Feb 10 22:46:23 2017.
