 Gaussian 09, Revision A.02,
 Gaussian 09:  EM64L-G09RevA.02 11-Jun-2009

 ----------------------------------------------------------------------
 # b3lyp/6-31G* Opt=(ModRedundant, maxcycles=1000, calcfc) geom=nocrowd
 ----------------------------------------------------------------------

 ------------------
 Phi Psi fixed scan
 ------------------
 Symbolic Z-matrix:
 Charge =  0 Multiplicity = 1

 SCF Done:  E(RB3LYP) =  -495.843009785     A.U. after   14 cycles

  Exact polarizability:   0.000   0.000   0.000   0.000   0.000   0.000
 Approx polarizability: 109.447   1.665  94.258  -8.138   7.331 129.737

 SCF Done:  E(RB3LYP) =  -495.845692255     A.U. after   12 cycles
 SCF Done:  E(RB3LYP) =  -495.848750475     A.U. after   12 cycles
 SCF Done:  E(RB3LYP) =  -495.849987986     A.U. after   16 cycles
 SCF Done:  E(RB3LYP) =  -495.847604264     A.U. after   14 cycles
 SCF Done:  E(RB3LYP) =  -495.849994907     A.U. after   14 cycles
 SCF Done:  E(RB3LYP) =  -495.850563669     A.U. after   12 cycles
 SCF Done:  E(RB3LYP) =  -495.850481573     A.U. after   13 cycles
 SCF Done:  E(RB3LYP) =  -495.850800226     A.U. after   13 cycles
 SCF Done:  E(RB3LYP) =  -495.850880691     A.U. after   11 cycles
 SCF Done:  E(RB3LYP) =  -495.850894503     A.U. after   10 cycles
 SCF Done:  E(RB3LYP) =  -495.850898134     A.U. after   10 cycles
 SCF Done:  E(RB3LYP) =  -495.850903061     A.U. after   10 cycles
 SCF Done:  E(RB3LYP) =  -495.850906236     A.U. after   11 cycles
 SCF Done:  E(RB3LYP) =  -495.850907941     A.U. after   10 cycles
 SCF Done:  E(RB3LYP) =  -495.850909253     A.U. after   10 cycles
 SCF Done:  E(RB3LYP) =  -495.850910275     A.U. after   10 cycles
 SCF Done:  E(RB3LYP) =  -495.850910276     A.U. after    7 cycles
 Optimization completed.
    -- Stationary point found.

                         Standard orientation:
 ---------------------------------------------------------------------
 Center     Atomic      Atomic             Coordinates (Angstroms)
 Number     Number       Type             X           Y           Z
 ---------------------------------------------------------------------
      1          1           0        4.185131   -0.795699   -0.093794
      2          6           0        3.212933   -0.959189   -0.565375
      3          1           0        3.030637   -2.039819   -0.581126
      4          1           0        3.242543   -0.594126   -1.596479
      5          6           0        2.139909   -0.289307    0.278784
      6          8           0        2.142481   -0.349689    1.502216
      7          7           0        1.188791    0.405030   -0.433860
      8          1           0        1.079744    0.169694   -1.414643
      9          6           0       -0.047315    0.836289    0.200160
     10          1           0        0.111624    0.726358    1.276891
     11          6           0       -0.368130    2.300769   -0.140745
     12          1           0       -0.504600    2.421694   -1.220991
     13          1           0       -1.288351    2.627105    0.356507
     14          1           0        0.453861    2.946698    0.181430
     15          6           0       -1.189895   -0.078769   -0.278535
     16          8           0       -1.187314   -0.547735   -1.413638
     17          7           0       -2.203036   -0.259814    0.612250
     18          1           0       -2.077263    0.084282    1.553811
     19          6           0       -3.374633   -1.068802    0.319801
     20          1           0       -3.337081   -1.326274   -0.739337
     21          1           0       -3.380765   -1.992916    0.910349
     22          1           0       -4.294314   -0.510059    0.525491
 ---------------------------------------------------------------------

 The electronic state is 1-A.
 Alpha  occ. eigenvalues --  -19.11818 -19.10571 -14.37089 -14.35146 -10.28948
 Alpha  occ. eigenvalues --  -10.28307 -10.23261 -10.22353 -10.18834 -10.18686
 Alpha  occ. eigenvalues --   -1.03857  -1.02357  -0.92744  -0.91673  -0.77913
 Alpha  occ. eigenvalues --   -0.72717  -0.71259  -0.64069  -0.59296  -0.57542
 Alpha  occ. eigenvalues --   -0.53651  -0.47990  -0.46731  -0.46081  -0.45614
 Alpha  occ. eigenvalues --   -0.44232  -0.42599  -0.41769  -0.40617  -0.39648
 Alpha  occ. eigenvalues --   -0.39273  -0.37898  -0.36962  -0.35975  -0.34612
 Alpha  occ. eigenvalues --   -0.26410  -0.26108  -0.25189  -0.23905
 Alpha virt. eigenvalues --    0.02148   0.03152   0.06898   0.09386   0.11900
 Alpha virt. eigenvalues --    0.12713   0.13721   0.15432   0.15729   0.15955
 Alpha virt. eigenvalues --    0.16470   0.17062   0.17552   0.19022   0.19536

 Mulliken atomic charges:
              1
     1  H    0.184681
     2  C   -0.536775
     3  H    0.183584
     4  H    0.152299
     5  C    0.584657
     6  O   -0.507247
     7  N   -0.574910
     8  H    0.335333
     9  C   -0.072040
    10  H    0.175079
    11  C   -0.437867
    12  H    0.160486
    13  H    0.145334
    14  H    0.167643
    15  C    0.610642
    16  O   -0.531278
    17  N   -0.586671
    18  H    0.331477
    19  C   -0.312308
    20  H    0.205238
    21  H    0.163503
    22  H    0.159139
 Sum of Mulliken atomic charges =   0.00000

 Dipole moment (field-independent basis, Debye):
    X=             -2.1155    Y=              0.7628    Z=              0.0610  Tot=              2.2497
 Quadrupole moment (field-independent basis, Debye-Ang):
   XX=            -53.5378   YY=            -58.3092   ZZ=            -64.3268
   XY=             -0.3388   XZ=            -12.4498   YZ=              0.1412

 Normal termination of Gaussian 09 at Fri Feb 10 22:54:57 2017.
