 Gaussian 09, Revision A.02,
 Gaussian 09:  EM64L-G09RevA.02 11-Jun-2009

 ----------------------------------------------------------------------
 # b3lyp/6-31G* Opt=(ModRedundant, maxcycles=1000, calcfc) geom=nocrowd
 ----------------------------------------------------------------------

 ------------------
 Phi Psi fixed scan
 ------------------
 Symbolic Z-matrix:
 Charge =  0 Multiplicity = 1

 SCF Done:  E(RB3LYP) =  -495.828724878     A.U. after   15 cycles

  Exact polarizability:   0.000   0.000   0.000   0.000   0.000   0.000
 Approx polarizability: 120.704  14.527 108.731  11.327  11.707 108.193

 SCF Done:  E(RB3LYP) =  -495.834022943     A.U. after   12 cycles
 SCF Done:  E(RB3LYP) =  -495.840178373     A.U. after   13 cycles
 SCF Done:  E(RB3LYP) =  -495.841883470     A.U. after   15 cycles
 SCF Done:  E(RB3LYP) =  -495.842209365     A.U. after   13 cycles
 SCF Done:  E(RB3LYP) =  -495.762449033     A.U. after   16 cycles
 SCF Done:  E(RB3LYP) =  -495.842211564     A.U. after   15 cycles
 SCF Done:  E(RB3LYP) =  -495.842625346     A.U. after   12 cycles
 SCF Done:  E(RB3LYP) =  -495.841848223     A.U. after   13 cycles
 SCF Done:  E(RB3LYP) =  -495.842844829     A.U. after   12 cycles
 SCF Done:  E(RB3LYP) =  -495.842865951     A.U. after   11 cycles
 SCF Done:  E(RB3LYP) =  -495.842869879     A.U. after    9 cycles
 SCF Done:  E(RB3LYP) =  -495.842872409     A.U. after    9 cycles
 SCF Done:  E(RB3LYP) =  -495.842877426     A.U. after    9 cycles
 SCF Done:  E(RB3LYP) =  -495.842885490     A.U. after   10 cycles
 SCF Done:  E(RB3LYP) =  -495.842888560     A.U. after   10 cycles
 SCF Done:  E(RB3LYP) =  -495.842889107     A.U. after    9 cycles
 SCF Done:  E(RB3LYP) =  -495.842889173     A.U. after    8 cycles
 SCF Done:  E(RB3LYP) =  -495.842889182     A.U. after    6 cycles
 SCF Done:  E(RB3LYP) =  -495.842889187     A.U. after    6 cycles
 Optimization completed.
    -- Stationary point found.

                         Standard orientation:
 ---------------------------------------------------------------------
 Center     Atomic      Atomic             Coordinates (Angstroms)
 Number     Number       Type             X           Y           Z
 ---------------------------------------------------------------------
      1          1           0       -4.166934   -0.789780    0.565001
      2          6           0       -3.130669   -0.947348    0.870076
      3          1           0       -2.900239   -2.013141    0.754563
      4          1           0       -3.016078   -0.682898    1.926719
      5          6           0       -2.220028   -0.143502   -0.044374
      6          8           0       -2.502581    0.095933   -1.208506
      7          7           0       -1.058481    0.307962    0.547800
      8          1           0       -0.827353   -0.077717    1.454526
      9          6           0        0.052888    0.796882   -0.261986
     10          1           0       -0.340206    0.824514   -1.283128
     11          6           0        0.462685    2.214212    0.156651
     12          1           0        0.802325    2.254714    1.199652
     13          1           0        1.257210    2.608876   -0.488322
     14          1           0       -0.399673    2.880621    0.067251
     15          6           0        1.163125   -0.281547   -0.272129
     16          8           0        0.916648   -1.416197   -0.660501
     17          7           0        2.381042    0.086313    0.227422
     18          1           0        2.534499    1.050447    0.480204
     19          6           0        3.518645   -0.817856    0.239635
     20          1           0        3.148975   -1.809768   -0.022938
     21          1           0        4.281038   -0.517470   -0.489976
     22          1           0        3.976094   -0.851243    1.234714
 ---------------------------------------------------------------------

 The electronic state is 1-A.
 Alpha  occ. eigenvalues --  -19.10958 -19.10564 -14.36793 -14.35684 -10.28611
 Alpha  occ. eigenvalues --  -10.28287 -10.23292 -10.22175 -10.19541 -10.18755
 Alpha  occ. eigenvalues --   -1.03335  -1.02333  -0.92387  -0.91814  -0.78101
 Alpha  occ. eigenvalues --   -0.72804  -0.70866  -0.64983  -0.58761  -0.58230
 Alpha  occ. eigenvalues --   -0.53639  -0.47888  -0.47294  -0.46187  -0.44964
 Alpha  occ. eigenvalues --   -0.43920  -0.42552  -0.41926  -0.40072  -0.39498
 Alpha  occ. eigenvalues --   -0.38995  -0.38805  -0.37528  -0.35887  -0.34557
 Alpha  occ. eigenvalues --   -0.26459  -0.25476  -0.24492  -0.23958
 Alpha virt. eigenvalues --    0.01525   0.04085   0.07000   0.08709   0.11374
 Alpha virt. eigenvalues --    0.13177   0.13851   0.14796   0.14877   0.15724
 Alpha virt. eigenvalues --    0.16219   0.16474   0.18188   0.18668   0.19510

 Mulliken atomic charges:
              1
     1  H    0.186011
     2  C   -0.545199
     3  H    0.190127
     4  H    0.148254
     5  C    0.600655
     6  O   -0.495458
     7  N   -0.578290
     8  H    0.320073
     9  C   -0.040156
    10  H    0.211015
    11  C   -0.478094
    12  H    0.140741
    13  H    0.150177
    14  H    0.178602
    15  C    0.572504
    16  O   -0.507199
    17  N   -0.595336
    18  H    0.330955
    19  C   -0.312137
    20  H    0.207012
    21  H    0.160287
    22  H    0.155454
 Sum of Mulliken atomic charges =   0.00000

 Dipole moment (field-independent basis, Debye):
    X=              3.1620    Y=              2.0616    Z=              4.0747  Tot=              5.5544
 Quadrupole moment (field-independent basis, Debye-Ang):
   XX=            -54.1241   YY=            -60.5129   ZZ=            -61.4616
   XY=              4.9232   XZ=             -5.3381   YZ=             -2.6780

 Normal termination of Gaussian 09 at Fri Feb 10 22:52:33 2017.
