 Gaussian 09, Revision A.02,
 Gaussian 09:  EM64L-G09RevA.02 11-Jun-2009

 ----------------------------------------------------------------------
 # b3lyp/6-31G* Opt=(ModRedundant, maxcycles=1000, calcfc) geom=nocrowd
 ----------------------------------------------------------------------

 ------------------
 Phi Psi fixed scan
 ------------------
 Symbolic Z-matrix:
 Charge =  0 Multiplicity = 1

 SCF Done:  E(RB3LYP) =  -495.845720399     A.U. after   15 cycles

  Exact polarizability:   0.000   0.000   0.000   0.000   0.000   0.000
 Approx polarizability: 107.201   7.342 116.629   6.251  24.109 112.838

 SCF Done:  E(RB3LYP) =  -495.848446914     A.U. after   11 cycles
 SCF Done:  E(RB3LYP) =  -495.851303847     A.U. after   12 cycles
 SCF Done:  E(RB3LYP) =  -495.851729438     A.U. after   12 cycles
 SCF Done:  E(RB3LYP) =  -495.765593324     A.U. after   16 cycles
 SCF Done:  E(RB3LYP) =  -495.788365820     A.U. after   12 cycles
 SCF Done:  E(RB3LYP) =  -495.806712501     A.U. after   12 cycles
 SCF Done:  E(RB3LYP) =  -495.821203740     A.U. after   16 cycles
 SCF Done:  E(RB3LYP) =  -495.832438773     A.U. after   12 cycles
 SCF Done:  E(RB3LYP) =  -495.841088270     A.U. after   12 cycles
 SCF Done:  E(RB3LYP) =  -495.850484594     A.U. after   12 cycles
 SCF Done:  E(RB3LYP) =  -495.851732553     A.U. after   12 cycles
 SCF Done:  E(RB3LYP) =  -495.851845622     A.U. after   11 cycles
 SCF Done:  E(RB3LYP) =  -495.846598716     A.U. after   13 cycles
 SCF Done:  E(RB3LYP) =  -495.851885832     A.U. after   12 cycles
 SCF Done:  E(RB3LYP) =  -495.851964589     A.U. after   11 cycles
 SCF Done:  E(RB3LYP) =  -495.852014982     A.U. after   11 cycles
 SCF Done:  E(RB3LYP) =  -495.852035324     A.U. after   11 cycles
 SCF Done:  E(RB3LYP) =  -495.852036806     A.U. after    9 cycles
 SCF Done:  E(RB3LYP) =  -495.852036868     A.U. after    7 cycles
 Optimization completed.
    -- Stationary point found.

                         Standard orientation:
 ---------------------------------------------------------------------
 Center     Atomic      Atomic             Coordinates (Angstroms)
 Number     Number       Type             X           Y           Z
 ---------------------------------------------------------------------
      1          1           0       -3.231897   -1.752192    1.068488
      2          6           0       -3.159179   -0.686879    0.831805
      3          1           0       -3.134568   -0.112889    1.763372
      4          1           0       -4.060673   -0.414249    0.273311
      5          6           0       -1.947909   -0.462081   -0.057931
      6          8           0       -1.771039   -1.106469   -1.089955
      7          7           0       -1.066867    0.492607    0.363789
      8          1           0       -1.225829    0.981146    1.233984
      9          6           0        0.062942    0.917661   -0.463601
     10          1           0       -0.131920    0.507783   -1.457063
     11          6           0        0.166120    2.440504   -0.516656
     12          1           0        0.404165    2.842918    0.472766
     13          1           0        0.972145    2.742263   -1.193195
     14          1           0       -0.772183    2.875624   -0.874747
     15          6           0        1.349849    0.297615    0.120289
     16          8           0        2.018845    0.862961    0.977748
     17          7           0        1.645470   -0.926421   -0.404001
     18          1           0        0.937275   -1.360374   -0.984440
     19          6           0        2.725343   -1.751206    0.109631
     20          1           0        3.395557   -1.102889    0.675827
     21          1           0        2.355379   -2.542317    0.774972
     22          1           0        3.276876   -2.213743   -0.715363
 ---------------------------------------------------------------------

 The electronic state is 1-A.
 Alpha  occ. eigenvalues --  -19.11469 -19.10976 -14.36823 -14.35785 -10.29395
 Alpha  occ. eigenvalues --  -10.28055 -10.23302 -10.21466 -10.19791 -10.18337
 Alpha  occ. eigenvalues --   -1.03591  -1.02633  -0.92835  -0.91490  -0.78122
 Alpha  occ. eigenvalues --   -0.73206  -0.71016  -0.63915  -0.59542  -0.57659
 Alpha  occ. eigenvalues --   -0.53130  -0.48518  -0.48283  -0.46261  -0.44814
 Alpha  occ. eigenvalues --   -0.44246  -0.42033  -0.41755  -0.40359  -0.39893
 Alpha  occ. eigenvalues --   -0.38794  -0.37751  -0.36542  -0.36126  -0.35727
 Alpha  occ. eigenvalues --   -0.27286  -0.25554  -0.25052  -0.23779
 Alpha virt. eigenvalues --    0.01564   0.03570   0.07366   0.09552   0.11852
 Alpha virt. eigenvalues --    0.12462   0.13061   0.15143   0.16083   0.16470
 Alpha virt. eigenvalues --    0.16840   0.17488   0.17763   0.18675   0.20073

 Mulliken atomic charges:
              1
     1  H    0.187555
     2  C   -0.532927
     3  H    0.147038
     4  H    0.188231
     5  C    0.595657
     6  O   -0.524650
     7  N   -0.584374
     8  H    0.330917
     9  C   -0.061142
    10  H    0.179558
    11  C   -0.455550
    12  H    0.169418
    13  H    0.162712
    14  H    0.149143
    15  C    0.614190
    16  O   -0.525459
    17  N   -0.589213
    18  H    0.345239
    19  C   -0.311075
    20  H    0.198970
    21  H    0.158202
    22  H    0.157557
 Sum of Mulliken atomic charges =   0.00000

 Dipole moment (field-independent basis, Debye):
    X=             -1.4444    Y=             -0.1695    Z=              0.6652  Tot=              1.5992
 Quadrupole moment (field-independent basis, Debye-Ang):
   XX=            -59.2700   YY=            -58.0364   ZZ=            -61.6473
   XY=             -8.3373   XZ=             -9.4749   YZ=             -3.3727

 Normal termination of Gaussian 09 at Fri Feb 10 23:06:36 2017.
