 Gaussian 09, Revision A.02,
 Gaussian 09:  EM64L-G09RevA.02 11-Jun-2009

 ----------------------------------------------------------------------
 # b3lyp/6-31G* Opt=(ModRedundant, maxcycles=1000, calcfc) geom=nocrowd
 ----------------------------------------------------------------------

 ------------------
 Phi Psi fixed scan
 ------------------
 Symbolic Z-matrix:
 Charge =  0 Multiplicity = 1

 SCF Done:  E(RB3LYP) =  -495.829106837     A.U. after   16 cycles

  Exact polarizability:   0.000   0.000   0.000   0.000   0.000   0.000
 Approx polarizability: 114.298   8.501 103.235  14.501  18.523 120.158

 SCF Done:  E(RB3LYP) =  -495.833943241     A.U. after   12 cycles
 SCF Done:  E(RB3LYP) =  -495.839492971     A.U. after   16 cycles
 SCF Done:  E(RB3LYP) =  -495.840889128     A.U. after   15 cycles
 SCF Done:  E(RB3LYP) =  -495.839955419     A.U. after   12 cycles
 SCF Done:  E(RB3LYP) =  -495.840920053     A.U. after   12 cycles
 SCF Done:  E(RB3LYP) =  -495.841160151     A.U. after   13 cycles
 SCF Done:  E(RB3LYP) =  -495.836205799     A.U. after   15 cycles
 SCF Done:  E(RB3LYP) =  -495.841309385     A.U. after   14 cycles
 SCF Done:  E(RB3LYP) =  -495.841431279     A.U. after   12 cycles
 SCF Done:  E(RB3LYP) =  -495.841504219     A.U. after   10 cycles
 SCF Done:  E(RB3LYP) =  -495.841510235     A.U. after   11 cycles
 SCF Done:  E(RB3LYP) =  -495.841512703     A.U. after   10 cycles
 SCF Done:  E(RB3LYP) =  -495.841514625     A.U. after   10 cycles
 SCF Done:  E(RB3LYP) =  -495.841516479     A.U. after   10 cycles
 SCF Done:  E(RB3LYP) =  -495.841519845     A.U. after   10 cycles
 SCF Done:  E(RB3LYP) =  -495.841521224     A.U. after   10 cycles
 SCF Done:  E(RB3LYP) =  -495.841521151     A.U. after    8 cycles
 SCF Done:  E(RB3LYP) =  -495.841521220     A.U. after    7 cycles
 SCF Done:  E(RB3LYP) =  -495.841521189     A.U. after    6 cycles
 Optimization completed.
    -- Stationary point found.

                         Standard orientation:
 ---------------------------------------------------------------------
 Center     Atomic      Atomic             Coordinates (Angstroms)
 Number     Number       Type             X           Y           Z
 ---------------------------------------------------------------------
      1          1           0        4.069157   -0.870323   -0.774056
      2          6           0        3.010947   -1.069850   -0.955658
      3          1           0        2.827300   -2.128255   -0.736721
      4          1           0        2.782788   -0.890043   -2.011600
      5          6           0        2.182238   -0.216391   -0.006735
      6          8           0        2.544128    0.035604    1.132021
      7          7           0        1.002142    0.258937   -0.538602
      8          1           0        0.715262   -0.099882   -1.440095
      9          6           0       -0.034948    0.861055    0.298033
     10          1           0        0.412776    0.942454    1.290555
     11          6           0       -0.422782    2.255088   -0.209294
     12          1           0       -0.746980    2.243816   -1.258804
     13          1           0       -1.227605    2.686504    0.396560
     14          1           0        0.444750    2.918966   -0.151296
     15          6           0       -1.195828   -0.147313    0.455992
     16          8           0       -1.173403   -1.009375    1.322637
     17          7           0       -2.184481   -0.068520   -0.491242
     18          1           0       -2.222414    0.749067   -1.082097
     19          6           0       -3.345493   -0.943406   -0.466070
     20          1           0       -3.102739   -1.790884    0.175927
     21          1           0       -4.230519   -0.437028   -0.059568
     22          1           0       -3.576001   -1.302253   -1.474765
 ---------------------------------------------------------------------

 The electronic state is 1-A.
 Alpha  occ. eigenvalues --  -19.11157 -19.10679 -14.36766 -14.36152 -10.28604
 Alpha  occ. eigenvalues --  -10.28563 -10.23308 -10.22207 -10.19667 -10.19077
 Alpha  occ. eigenvalues --   -1.03398  -1.02530  -0.92688  -0.91805  -0.78242
 Alpha  occ. eigenvalues --   -0.72961  -0.70994  -0.65069  -0.58790  -0.58569
 Alpha  occ. eigenvalues --   -0.53637  -0.48312  -0.47364  -0.46367  -0.44813
 Alpha  occ. eigenvalues --   -0.43976  -0.42635  -0.41952  -0.40666  -0.39750
 Alpha  occ. eigenvalues --   -0.39301  -0.38494  -0.36998  -0.36055  -0.35156
 Alpha  occ. eigenvalues --   -0.27168  -0.25746  -0.24549  -0.23557
 Alpha virt. eigenvalues --    0.01269   0.04196   0.05895   0.08455   0.11285
 Alpha virt. eigenvalues --    0.12823   0.13760   0.14298   0.15503   0.15703
 Alpha virt. eigenvalues --    0.16321   0.16982   0.18157   0.18346   0.19563

 Mulliken atomic charges:
              1
     1  H    0.187903
     2  C   -0.542244
     3  H    0.188044
     4  H    0.145211
     5  C    0.597961
     6  O   -0.491436
     7  N   -0.589325
     8  H    0.317206
     9  C   -0.042306
    10  H    0.211104
    11  C   -0.467790
    12  H    0.130290
    13  H    0.160362
    14  H    0.176589
    15  C    0.578142
    16  O   -0.499372
    17  N   -0.595438
    18  H    0.325798
    19  C   -0.310396
    20  H    0.205906
    21  H    0.159962
    22  H    0.153827
 Sum of Mulliken atomic charges =   0.00000

 Dipole moment (field-independent basis, Debye):
    X=             -2.6982    Y=              1.4277    Z=             -5.3677  Tot=              6.1750
 Quadrupole moment (field-independent basis, Debye-Ang):
   XX=            -57.1265   YY=            -58.2965   ZZ=            -62.9940
   XY=             -4.0656   XZ=             -2.5929   YZ=              3.4053

 Normal termination of Gaussian 09 at Fri Feb 10 23:06:36 2017.
