 Gaussian 09, Revision A.02,
 Gaussian 09:  EM64L-G09RevA.02 11-Jun-2009

 ----------------------------------------------------------------------
 # b3lyp/6-31G* Opt=(ModRedundant, maxcycles=1000, calcfc) geom=nocrowd
 ----------------------------------------------------------------------

 ------------------
 Phi Psi fixed scan
 ------------------
 Symbolic Z-matrix:
 Charge =  0 Multiplicity = 1

 SCF Done:  E(RB3LYP) =  -495.844961104     A.U. after   14 cycles

  Exact polarizability:   0.000   0.000   0.000   0.000   0.000   0.000
 Approx polarizability: 105.692  -0.580 107.843  -1.264  24.039 121.615

 SCF Done:  E(RB3LYP) =  -495.847386521     A.U. after   11 cycles
 SCF Done:  E(RB3LYP) =  -495.849953376     A.U. after   12 cycles
 SCF Done:  E(RB3LYP) =  -495.850569110     A.U. after   13 cycles
 SCF Done:  E(RB3LYP) =  -495.815598076     A.U. after   13 cycles
 SCF Done:  E(RB3LYP) =  -495.825998103     A.U. after   12 cycles
 SCF Done:  E(RB3LYP) =  -495.833865760     A.U. after   11 cycles
 SCF Done:  E(RB3LYP) =  -495.839772736     A.U. after   12 cycles
 SCF Done:  E(RB3LYP) =  -495.844553550     A.U. after   12 cycles
 SCF Done:  E(RB3LYP) =  -495.847456245     A.U. after   12 cycles
 SCF Done:  E(RB3LYP) =  -495.850928437     A.U. after   10 cycles
 SCF Done:  E(RB3LYP) =  -495.850961577     A.U. after   11 cycles
 SCF Done:  E(RB3LYP) =  -495.850984315     A.U. after   10 cycles
 SCF Done:  E(RB3LYP) =  -495.851008056     A.U. after   11 cycles
 SCF Done:  E(RB3LYP) =  -495.851012632     A.U. after   10 cycles
 SCF Done:  E(RB3LYP) =  -495.851013899     A.U. after    9 cycles
 SCF Done:  E(RB3LYP) =  -495.851014419     A.U. after    9 cycles
 SCF Done:  E(RB3LYP) =  -495.851014968     A.U. after   10 cycles
 SCF Done:  E(RB3LYP) =  -495.851015106     A.U. after    9 cycles
 SCF Done:  E(RB3LYP) =  -495.851015100     A.U. after    6 cycles
 Optimization completed.
    -- Stationary point found.

                         Standard orientation:
 ---------------------------------------------------------------------
 Center     Atomic      Atomic             Coordinates (Angstroms)
 Number     Number       Type             X           Y           Z
 ---------------------------------------------------------------------
      1          1           0       -4.112333   -0.655757    0.368064
      2          6           0       -3.142732   -0.824213    0.845973
      3          1           0       -3.068739   -1.894350    1.064793
      4          1           0       -3.106180   -0.264855    1.785775
      5          6           0       -2.043701   -0.446190   -0.135159
      6          8           0       -1.984325   -0.931021   -1.259835
      7          7           0       -1.148566    0.487733    0.319546
      8          1           0       -1.121178    0.704709    1.307749
      9          6           0        0.043456    0.845594   -0.441151
     10          1           0       -0.117568    0.440010   -1.442815
     11          6           0        0.229294    2.365433   -0.501008
     12          1           0        0.393554    2.766486    0.504195
     13          1           0        1.100892    2.623129   -1.113280
     14          1           0       -0.656738    2.837394   -0.936030
     15          6           0        1.258301    0.191541    0.239956
     16          8           0        1.541985    0.464988    1.403212
     17          7           0        1.965249   -0.679702   -0.530480
     18          1           0        1.590806   -0.924342   -1.436447
     19          6           0        3.108118   -1.422926   -0.026824
     20          1           0        3.374140   -0.997065    0.941479
     21          1           0        2.869568   -2.485407    0.105678
     22          1           0        3.959296   -1.333333   -0.710368
 ---------------------------------------------------------------------

 The electronic state is 1-A.
 Alpha  occ. eigenvalues --  -19.11352 -19.10720 -14.36842 -14.35906 -10.28676
 Alpha  occ. eigenvalues --  -10.28613 -10.23271 -10.22106 -10.19095 -10.18413
 Alpha  occ. eigenvalues --   -1.03508  -1.02534  -0.92459  -0.92025  -0.77916
 Alpha  occ. eigenvalues --   -0.72818  -0.71322  -0.63964  -0.59104  -0.58200
 Alpha  occ. eigenvalues --   -0.53569  -0.48087  -0.47244  -0.46322  -0.45148
 Alpha  occ. eigenvalues --   -0.44394  -0.42210  -0.41592  -0.40650  -0.39561
 Alpha  occ. eigenvalues --   -0.39383  -0.37766  -0.36434  -0.36070  -0.35104
 Alpha  occ. eigenvalues --   -0.26725  -0.25794  -0.25005  -0.23861
 Alpha virt. eigenvalues --    0.01841   0.03654   0.07601   0.08485   0.12141
 Alpha virt. eigenvalues --    0.12446   0.13290   0.15373   0.16065   0.16352
 Alpha virt. eigenvalues --    0.16888   0.17085   0.18036   0.18374   0.20200

 Mulliken atomic charges:
              1
     1  H    0.186578
     2  C   -0.533751
     3  H    0.184061
     4  H    0.147598
     5  C    0.590159
     6  O   -0.514487
     7  N   -0.581182
     8  H    0.333826
     9  C   -0.055458
    10  H    0.169668
    11  C   -0.447480
    12  H    0.167635
    13  H    0.151956
    14  H    0.159762
    15  C    0.614565
    16  O   -0.536736
    17  N   -0.587532
    18  H    0.337528
    19  C   -0.312902
    20  H    0.204108
    21  H    0.162926
    22  H    0.159157
 Sum of Mulliken atomic charges =   0.00000

 Dipole moment (field-independent basis, Debye):
    X=              0.7521    Y=             -0.1234    Z=             -0.1189  Tot=              0.7714
 Quadrupole moment (field-independent basis, Debye-Ang):
   XX=            -56.1299   YY=            -58.1657   ZZ=            -63.1876
   XY=             -5.9525   XZ=            -11.7222   YZ=             -2.8773

 Normal termination of Gaussian 09 at Fri Feb 10 23:02:06 2017.
