 Gaussian 09, Revision A.02,
 Gaussian 09:  EM64L-G09RevA.02 11-Jun-2009

 ----------------------------------------------------------------------
 # b3lyp/6-31G* Opt=(ModRedundant, maxcycles=1000, calcfc) geom=nocrowd
 ----------------------------------------------------------------------

 ------------------
 Phi Psi fixed scan
 ------------------
 Symbolic Z-matrix:
 Charge =  0 Multiplicity = 1

 SCF Done:  E(RB3LYP) =  -495.831493086     A.U. after   15 cycles

  Exact polarizability:   0.000   0.000   0.000   0.000   0.000   0.000
 Approx polarizability: 121.003 -14.350 107.371   2.915  -1.170 107.744

 SCF Done:  E(RB3LYP) =  -495.836376034     A.U. after   12 cycles
 SCF Done:  E(RB3LYP) =  -495.841998581     A.U. after   12 cycles
 SCF Done:  E(RB3LYP) =  -495.843792691     A.U. after   14 cycles
 SCF Done:  E(RB3LYP) =  -495.844748727     A.U. after   13 cycles
 SCF Done:  E(RB3LYP) =  -495.835917348     A.U. after   14 cycles
 SCF Done:  E(RB3LYP) =  -495.844749112     A.U. after   14 cycles
 SCF Done:  E(RB3LYP) =  -495.845224920     A.U. after   13 cycles
 SCF Done:  E(RB3LYP) =  -495.801120475     A.U. after   15 cycles
 SCF Done:  E(RB3LYP) =  -495.845322258     A.U. after   15 cycles
 SCF Done:  E(RB3LYP) =  -495.845449368     A.U. after   12 cycles
 SCF Done:  E(RB3LYP) =  -495.845471404     A.U. after   12 cycles
 SCF Done:  E(RB3LYP) =  -495.845525017     A.U. after   12 cycles
 SCF Done:  E(RB3LYP) =  -495.845527414     A.U. after    8 cycles
 SCF Done:  E(RB3LYP) =  -495.845529657     A.U. after   10 cycles
 SCF Done:  E(RB3LYP) =  -495.845531844     A.U. after    9 cycles
 SCF Done:  E(RB3LYP) =  -495.845532179     A.U. after    9 cycles
 SCF Done:  E(RB3LYP) =  -495.845532195     A.U. after    6 cycles
 Optimization completed.
    -- Stationary point found.

                         Standard orientation:
 ---------------------------------------------------------------------
 Center     Atomic      Atomic             Coordinates (Angstroms)
 Number     Number       Type             X           Y           Z
 ---------------------------------------------------------------------
      1          1           0        4.191923   -0.889372   -0.142874
      2          6           0        3.207443   -0.970227   -0.606615
      3          1           0        2.882926   -2.016500   -0.552391
      4          1           0        3.273008   -0.687561   -1.662684
      5          6           0        2.223796   -0.105418    0.163487
      6          8           0        2.397416    0.214410    1.330530
      7          7           0        1.124971    0.306558   -0.566336
      8          1           0        0.941604   -0.228762   -1.406572
      9          6           0       -0.060711    0.789980    0.128231
     10          1           0        0.241904    0.876095    1.179173
     11          6           0       -0.475613    2.177747   -0.384207
     12          1           0       -0.838409    2.139826   -1.417801
     13          1           0       -1.253732    2.632977    0.241409
     14          1           0        0.391290    2.843103   -0.352226
     15          6           0       -1.147910   -0.310083    0.061346
     16          8           0       -0.836539   -1.493610   -0.014704
     17          7           0       -2.443720    0.116754    0.059623
     18          1           0       -2.632863    1.101517    0.165443
     19          6           0       -3.566113   -0.806272    0.087490
     20          1           0       -3.178604   -1.801057   -0.134795
     21          1           0       -4.050138   -0.826278    1.072070
     22          1           0       -4.310039   -0.527924   -0.666747
 ---------------------------------------------------------------------

 The electronic state is 1-A.
 Alpha  occ. eigenvalues --  -19.11366 -19.10673 -14.36822 -14.35106 -10.28840
 Alpha  occ. eigenvalues --  -10.28143 -10.23303 -10.22224 -10.19429 -10.18500
 Alpha  occ. eigenvalues --   -1.03618  -1.02354  -0.92475  -0.91605  -0.77980
 Alpha  occ. eigenvalues --   -0.72683  -0.70855  -0.64748  -0.58858  -0.57637
 Alpha  occ. eigenvalues --   -0.53673  -0.47496  -0.47102  -0.46126  -0.45192
 Alpha  occ. eigenvalues --   -0.43972  -0.42702  -0.41883  -0.39970  -0.39476
 Alpha  occ. eigenvalues --   -0.39246  -0.38330  -0.37790  -0.35926  -0.34308
 Alpha  occ. eigenvalues --   -0.25994  -0.25474  -0.25145  -0.24229
 Alpha virt. eigenvalues --    0.02095   0.03496   0.06743   0.09240   0.11539
 Alpha virt. eigenvalues --    0.13143   0.13964   0.14375   0.15602   0.15870
 Alpha virt. eigenvalues --    0.16332   0.16497   0.18051   0.18735   0.20093

 Mulliken atomic charges:
              1
     1  H    0.184320
     2  C   -0.547687
     3  H    0.189571
     4  H    0.155389
     5  C    0.590796
     6  O   -0.497414
     7  N   -0.567690
     8  H    0.324532
     9  C   -0.058412
    10  H    0.209856
    11  C   -0.465212
    12  H    0.152432
    13  H    0.137511
    14  H    0.177798
    15  C    0.584426
    16  O   -0.517647
    17  N   -0.594430
    18  H    0.329442
    19  C   -0.310973
    20  H    0.205610
    21  H    0.161360
    22  H    0.156421
 Sum of Mulliken atomic charges =   0.00000

 Dipole moment (field-independent basis, Debye):
    X=             -3.2097    Y=              1.8120    Z=             -2.5735  Tot=              4.4954
 Quadrupole moment (field-independent basis, Debye-Ang):
   XX=            -52.3510   YY=            -60.9323   ZZ=            -61.7837
   XY=             -5.6263   XZ=             -7.6039   YZ=              0.8450

 Normal termination of Gaussian 09 at Fri Feb 10 22:56:00 2017.
