 Gaussian 09, Revision A.02,
 Gaussian 09:  EM64L-G09RevA.02 11-Jun-2009

 ----------------------------------------------------------------------
 # b3lyp/6-31G* Opt=(ModRedundant, maxcycles=1000, calcfc) geom=nocrowd
 ----------------------------------------------------------------------

 ------------------
 Phi Psi fixed scan
 ------------------
 Symbolic Z-matrix:
 Charge =  0 Multiplicity = 1

 SCF Done:  E(RB3LYP) =  -495.842581766     A.U. after   15 cycles

  Exact polarizability:   0.000   0.000   0.000   0.000   0.000   0.000
 Approx polarizability: 115.352 -13.215 111.060   1.706   4.952 110.056

 SCF Done:  E(RB3LYP) =  -495.846095340     A.U. after   12 cycles
 SCF Done:  E(RB3LYP) =  -495.849184154     A.U. after   12 cycles
 SCF Done:  E(RB3LYP) =  -495.849497875     A.U. after   12 cycles
 SCF Done:  E(RB3LYP) =  -495.849706835     A.U. after   12 cycles
 SCF Done:  E(RB3LYP) =  -495.849633213     A.U. after   14 cycles
 SCF Done:  E(RB3LYP) =  -495.849591202     A.U. after   14 cycles
 SCF Done:  E(RB3LYP) =  -495.849752746     A.U. after   11 cycles
 SCF Done:  E(RB3LYP) =  -495.847764447     A.U. after   14 cycles
 SCF Done:  E(RB3LYP) =  -495.849752732     A.U. after   13 cycles
 SCF Done:  E(RB3LYP) =  -495.849760737     A.U. after   10 cycles
 SCF Done:  E(RB3LYP) =  -495.849768749     A.U. after   10 cycles
 SCF Done:  E(RB3LYP) =  -495.849772418     A.U. after   10 cycles
 SCF Done:  E(RB3LYP) =  -495.849774056     A.U. after    9 cycles
 SCF Done:  E(RB3LYP) =  -495.849774149     A.U. after    7 cycles
 SCF Done:  E(RB3LYP) =  -495.849774276     A.U. after    7 cycles
 SCF Done:  E(RB3LYP) =  -495.849774550     A.U. after    8 cycles
 SCF Done:  E(RB3LYP) =  -495.849774579     A.U. after    7 cycles
 Optimization completed.
    -- Stationary point found.

                         Standard orientation:
 ---------------------------------------------------------------------
 Center     Atomic      Atomic             Coordinates (Angstroms)
 Number     Number       Type             X           Y           Z
 ---------------------------------------------------------------------
      1          1           0        3.433006   -1.816091   -0.339066
      2          6           0        3.183004   -0.791643   -0.627070
      3          1           0        2.999047   -0.754625   -1.705675
      4          1           0        4.053652   -0.166996   -0.399293
      5          6           0        2.006100   -0.317603    0.213723
      6          8           0        1.958393   -0.491370    1.423484
      7          7           0        1.005528    0.320655   -0.482606
      8          1           0        1.145621    0.504115   -1.467284
      9          6           0       -0.107214    1.002057    0.175080
     10          1           0        0.159930    1.034625    1.237525
     11          6           0       -0.279051    2.427353   -0.356902
     12          1           0       -0.456071    2.426421   -1.440263
     13          1           0       -1.145272    2.889741    0.119397
     14          1           0        0.614343    3.024513   -0.150069
     15          6           0       -1.449905    0.236292    0.113418
     16          8           0       -2.498509    0.804575    0.399565
     17          7           0       -1.370119   -1.073136   -0.243589
     18          1           0       -0.449970   -1.456690   -0.401812
     19          6           0       -2.520892   -1.956846   -0.231053
     20          1           0       -3.402490   -1.342452   -0.042406
     21          1           0       -2.634040   -2.466112   -1.195074
     22          1           0       -2.436938   -2.712376    0.559823
 ---------------------------------------------------------------------

 The electronic state is 1-A.
 Alpha  occ. eigenvalues --  -19.11776 -19.10561 -14.37208 -14.35879 -10.29729
 Alpha  occ. eigenvalues --  -10.28065 -10.23530 -10.21582 -10.20203 -10.18512
 Alpha  occ. eigenvalues --   -1.03929  -1.02537  -0.93477  -0.91303  -0.78214
 Alpha  occ. eigenvalues --   -0.73425  -0.71120  -0.64213  -0.59760  -0.57872
 Alpha  occ. eigenvalues --   -0.53592  -0.49187  -0.48295  -0.45760  -0.45231
 Alpha  occ. eigenvalues --   -0.44158  -0.42262  -0.41898  -0.40538  -0.39832
 Alpha  occ. eigenvalues --   -0.38905  -0.38496  -0.37171  -0.36119  -0.34732
 Alpha  occ. eigenvalues --   -0.28069  -0.25704  -0.24994  -0.23571
 Alpha virt. eigenvalues --    0.01862   0.03216   0.06246   0.09840   0.11469
 Alpha virt. eigenvalues --    0.12614   0.13327   0.14625   0.15164   0.16086
 Alpha virt. eigenvalues --    0.16718   0.17218   0.17552   0.18520   0.19423

 Mulliken atomic charges:
              1
     1  H    0.188672
     2  C   -0.538620
     3  H    0.144634
     4  H    0.190654
     5  C    0.577555
     6  O   -0.494114
     7  N   -0.621154
     8  H    0.324690
     9  C   -0.044352
    10  H    0.209617
    11  C   -0.460143
    12  H    0.139913
    13  H    0.195223
    14  H    0.151803
    15  C    0.608193
    16  O   -0.527414
    17  N   -0.587814
    18  H    0.335592
    19  C   -0.310676
    20  H    0.203138
    21  H    0.153086
    22  H    0.161519
 Sum of Mulliken atomic charges =   0.00000

 Dipole moment (field-independent basis, Debye):
    X=              2.2381    Y=             -1.2709    Z=             -4.0046  Tot=              4.7604
 Quadrupole moment (field-independent basis, Debye-Ang):
   XX=            -64.5086   YY=            -55.5612   ZZ=            -62.1289
   XY=              6.3783   XZ=             -4.8070   YZ=              1.2232

 Normal termination of Gaussian 09 at Fri Feb 10 22:45:59 2017.
