 Gaussian 09, Revision A.02,
 Gaussian 09:  EM64L-G09RevA.02 11-Jun-2009

 ----------------------------------------------------------------------
 # b3lyp/6-31G* Opt=(ModRedundant, maxcycles=1000, calcfc) geom=nocrowd
 ----------------------------------------------------------------------

 ------------------
 Phi Psi fixed scan
 ------------------
 Symbolic Z-matrix:
 Charge =  0 Multiplicity = 1

 SCF Done:  E(RB3LYP) =  -495.845463620     A.U. after   14 cycles

  Exact polarizability:   0.000   0.000   0.000   0.000   0.000   0.000
 Approx polarizability: 105.619   2.706 113.714   2.831  25.576 116.787

 SCF Done:  E(RB3LYP) =  -495.847924002     A.U. after   11 cycles
 SCF Done:  E(RB3LYP) =  -495.850469627     A.U. after   12 cycles
 SCF Done:  E(RB3LYP) =  -495.850887834     A.U. after   12 cycles
 SCF Done:  E(RB3LYP) =  -495.770096872     A.U. after   14 cycles
 SCF Done:  E(RB3LYP) =  -495.790308448     A.U. after   12 cycles
 SCF Done:  E(RB3LYP) =  -495.806667001     A.U. after   12 cycles
 SCF Done:  E(RB3LYP) =  -495.819687530     A.U. after   12 cycles
 SCF Done:  E(RB3LYP) =  -495.829911692     A.U. after   12 cycles
 SCF Done:  E(RB3LYP) =  -495.837938561     A.U. after   12 cycles
 SCF Done:  E(RB3LYP) =  -495.850887823     A.U. after   12 cycles
 SCF Done:  E(RB3LYP) =  -495.851017320     A.U. after   12 cycles
 SCF Done:  E(RB3LYP) =  -495.849479454     A.U. after   13 cycles
 SCF Done:  E(RB3LYP) =  -495.851108084     A.U. after   13 cycles
 SCF Done:  E(RB3LYP) =  -495.851185831     A.U. after   11 cycles
 SCF Done:  E(RB3LYP) =  -495.851234083     A.U. after   11 cycles
 SCF Done:  E(RB3LYP) =  -495.851261527     A.U. after   11 cycles
 SCF Done:  E(RB3LYP) =  -495.851264378     A.U. after   10 cycles
 SCF Done:  E(RB3LYP) =  -495.851264271     A.U. after    8 cycles
 SCF Done:  E(RB3LYP) =  -495.851264357     A.U. after    7 cycles
 Optimization completed.
    -- Stationary point found.

                         Standard orientation:
 ---------------------------------------------------------------------
 Center     Atomic      Atomic             Coordinates (Angstroms)
 Number     Number       Type             X           Y           Z
 ---------------------------------------------------------------------
      1          1           0       -3.122324   -1.835221    1.111479
      2          6           0       -3.134129   -0.767739    0.871214
      3          1           0       -3.095424   -0.191035    1.800523
      4          1           0       -4.081042   -0.558677    0.363714
      5          6           0       -1.992051   -0.466644   -0.086308
      6          8           0       -1.881748   -1.041694   -1.165150
      7          7           0       -1.110664    0.493568    0.330261
      8          1           0       -1.160217    0.849466    1.275221
      9          6           0        0.048807    0.878905   -0.469612
     10          1           0       -0.127806    0.450971   -1.458614
     11          6           0        0.181954    2.400172   -0.557541
     12          1           0        0.386053    2.821025    0.431819
     13          1           0        1.016015    2.673104   -1.213226
     14          1           0       -0.736555    2.839682   -0.958166
     15          6           0        1.302987    0.264530    0.180409
     16          8           0        1.774743    0.725890    1.214908
     17          7           0        1.813911   -0.814293   -0.477038
     18          1           0        1.264508   -1.204646   -1.231195
     19          6           0        2.920222   -1.595277    0.050343
     20          1           0        3.408390   -0.996465    0.820397
     21          1           0        2.576326   -2.535644    0.499815
     22          1           0        3.638635   -1.824731   -0.743426
 ---------------------------------------------------------------------

 The electronic state is 1-A.
 Alpha  occ. eigenvalues --  -19.11177 -19.11008 -14.36413 -14.36389 -10.29003
 Alpha  occ. eigenvalues --  -10.28365 -10.23268 -10.21836 -10.19418 -10.18282
 Alpha  occ. eigenvalues --   -1.03426  -1.02680  -0.92521  -0.91932  -0.77991
 Alpha  occ. eigenvalues --   -0.72971  -0.71202  -0.63935  -0.59199  -0.58180
 Alpha  occ. eigenvalues --   -0.53419  -0.48188  -0.47735  -0.46378  -0.44818
 Alpha  occ. eigenvalues --   -0.44468  -0.42106  -0.41578  -0.40487  -0.39826
 Alpha  occ. eigenvalues --   -0.39135  -0.37746  -0.36295  -0.36087  -0.35505
 Alpha  occ. eigenvalues --   -0.26969  -0.25514  -0.25156  -0.23836
 Alpha virt. eigenvalues --    0.01670   0.03751   0.07877   0.08374   0.12199
 Alpha virt. eigenvalues --    0.12352   0.13063   0.15285   0.16107   0.16536
 Alpha virt. eigenvalues --    0.16896   0.17318   0.17905   0.18349   0.20287

 Mulliken atomic charges:
              1
     1  H    0.185354
     2  C   -0.533181
     3  H    0.146403
     4  H    0.187610
     5  C    0.592923
     6  O   -0.519888
     7  N   -0.584534
     8  H    0.332809
     9  C   -0.054895
    10  H    0.173655
    11  C   -0.451649
    12  H    0.169391
    13  H    0.156470
    14  H    0.154482
    15  C    0.613635
    16  O   -0.531722
    17  N   -0.587525
    18  H    0.341509
    19  C   -0.311974
    20  H    0.201687
    21  H    0.161039
    22  H    0.158400
 Sum of Mulliken atomic charges =   0.00000

 Dipole moment (field-independent basis, Debye):
    X=             -0.2981    Y=             -0.3091    Z=              0.2601  Tot=              0.5021
 Quadrupole moment (field-independent basis, Debye-Ang):
   XX=            -57.8721   YY=            -58.1621   ZZ=            -62.3546
   XY=             -7.4785   XZ=            -10.6752   YZ=             -3.2901

 Normal termination of Gaussian 09 at Fri Feb 10 22:45:14 2017.
