 Gaussian 09, Revision A.02,
 Gaussian 09:  EM64L-G09RevA.02 11-Jun-2009

 ----------------------------------------------------------------------
 # b3lyp/6-31G* Opt=(ModRedundant, maxcycles=1000, calcfc) geom=nocrowd
 ----------------------------------------------------------------------

 ------------------
 Phi Psi fixed scan
 ------------------
 Symbolic Z-matrix:
 Charge =  0 Multiplicity = 1

 SCF Done:  E(RB3LYP) =  -495.836193960     A.U. after   16 cycles

  Exact polarizability:   0.000   0.000   0.000   0.000   0.000   0.000
 Approx polarizability: 108.430  -3.071 103.690   0.813  18.643 124.078

 SCF Done:  E(RB3LYP) =  -495.840039008     A.U. after   12 cycles
 SCF Done:  E(RB3LYP) =  -495.844626273     A.U. after   13 cycles
 SCF Done:  E(RB3LYP) =  -495.845945561     A.U. after   13 cycles
 SCF Done:  E(RB3LYP) =  -495.834274221     A.U. after   13 cycles
 SCF Done:  E(RB3LYP) =  -495.845949611     A.U. after   13 cycles
 SCF Done:  E(RB3LYP) =  -495.846131345     A.U. after   12 cycles
 SCF Done:  E(RB3LYP) =  -495.841728683     A.U. after   14 cycles
 SCF Done:  E(RB3LYP) =  -495.846278996     A.U. after   14 cycles
 SCF Done:  E(RB3LYP) =  -495.846333365     A.U. after   12 cycles
 SCF Done:  E(RB3LYP) =  -495.846359511     A.U. after   11 cycles
 SCF Done:  E(RB3LYP) =  -495.846373327     A.U. after   10 cycles
 SCF Done:  E(RB3LYP) =  -495.846395328     A.U. after   11 cycles
 SCF Done:  E(RB3LYP) =  -495.846407504     A.U. after   11 cycles
 SCF Done:  E(RB3LYP) =  -495.846417981     A.U. after   10 cycles
 SCF Done:  E(RB3LYP) =  -495.846425978     A.U. after   10 cycles
 SCF Done:  E(RB3LYP) =  -495.846431542     A.U. after    9 cycles
 SCF Done:  E(RB3LYP) =  -495.846432961     A.U. after   10 cycles
 SCF Done:  E(RB3LYP) =  -495.846432982     A.U. after    7 cycles
 SCF Done:  E(RB3LYP) =  -495.846433046     A.U. after    7 cycles
 Optimization completed.
    -- Stationary point found.

                         Standard orientation:
 ---------------------------------------------------------------------
 Center     Atomic      Atomic             Coordinates (Angstroms)
 Number     Number       Type             X           Y           Z
 ---------------------------------------------------------------------
      1          1           0        3.502952   -1.876732   -0.038775
      2          6           0        3.218713   -0.941731   -0.528677
      3          1           0        2.980955   -1.144410   -1.577967
      4          1           0        4.086455   -0.274395   -0.486517
      5          6           0        2.073130   -0.311563    0.250804
      6          8           0        2.096046   -0.201068    1.466067
      7          7           0        1.003404    0.111655   -0.514946
      8          1           0        1.162209    0.184843   -1.512440
      9          6           0       -0.048903    0.961718    0.047192
     10          1           0        0.307947    1.295745    1.024547
     11          6           0       -0.324670    2.173663   -0.851235
     12          1           0       -0.654663    1.860285   -1.849878
     13          1           0       -1.118711    2.781478   -0.409603
     14          1           0        0.574248    2.790630   -0.954642
     15          6           0       -1.370003    0.218247    0.330753
     16          8           0       -2.161191    0.660511    1.153341
     17          7           0       -1.636973   -0.839600   -0.491832
     18          1           0       -0.838264   -1.248654   -0.958684
     19          6           0       -2.822245   -1.661022   -0.309450
     20          1           0       -3.584200   -1.043597    0.168313
     21          1           0       -3.189963   -2.009384   -1.279804
     22          1           0       -2.628956   -2.531617    0.331317
 ---------------------------------------------------------------------

 The electronic state is 1-A.
 Alpha  occ. eigenvalues --  -19.11770 -19.10661 -14.37079 -14.35838 -10.29594
 Alpha  occ. eigenvalues --  -10.27916 -10.23359 -10.21606 -10.20074 -10.19437
 Alpha  occ. eigenvalues --   -1.03873  -1.02578  -0.93376  -0.91261  -0.78371
 Alpha  occ. eigenvalues --   -0.73537  -0.70874  -0.64572  -0.59450  -0.57633
 Alpha  occ. eigenvalues --   -0.53161  -0.49305  -0.48173  -0.45732  -0.45087
 Alpha  occ. eigenvalues --   -0.43792  -0.42617  -0.41917  -0.40913  -0.40149
 Alpha  occ. eigenvalues --   -0.39151  -0.38258  -0.37737  -0.35987  -0.34629
 Alpha  occ. eigenvalues --   -0.28059  -0.25608  -0.25148  -0.23626
 Alpha virt. eigenvalues --    0.01795   0.02790   0.05725   0.10100   0.11407
 Alpha virt. eigenvalues --    0.12110   0.13387   0.14696   0.15026   0.15963
 Alpha virt. eigenvalues --    0.16336   0.17371   0.17653   0.18147   0.19623

 Mulliken atomic charges:
              1
     1  H    0.191869
     2  C   -0.539705
     3  H    0.143162
     4  H    0.188283
     5  C    0.583827
     6  O   -0.483683
     7  N   -0.621263
     8  H    0.321633
     9  C   -0.039238
    10  H    0.203028
    11  C   -0.468969
    12  H    0.144319
    13  H    0.189556
    14  H    0.158293
    15  C    0.601794
    16  O   -0.516559
    17  N   -0.585834
    18  H    0.326053
    19  C   -0.308853
    20  H    0.200115
    21  H    0.151652
    22  H    0.160521
 Sum of Mulliken atomic charges =   0.00000

 Dipole moment (field-independent basis, Debye):
    X=              1.4661    Y=             -1.4107    Z=             -5.5529  Tot=              5.9140
 Quadrupole moment (field-independent basis, Debye-Ang):
   XX=            -61.2126   YY=            -55.2673   ZZ=            -64.5356
   XY=              4.0768   XZ=             -2.2607   YZ=             -0.2842

 Normal termination of Gaussian 09 at Fri Feb 10 22:57:44 2017.
