 Gaussian 09, Revision A.02,
 Gaussian 09:  EM64L-G09RevA.02 11-Jun-2009

 ----------------------------------------------------------------------
 # b3lyp/6-31G* Opt=(ModRedundant, maxcycles=1000, calcfc) geom=nocrowd
 ----------------------------------------------------------------------

 ------------------
 Phi Psi fixed scan
 ------------------
 Symbolic Z-matrix:
 Charge =  0 Multiplicity = 1

 SCF Done:  E(RB3LYP) =  -495.841329288     A.U. after   14 cycles

  Exact polarizability:   0.000   0.000   0.000   0.000   0.000   0.000
 Approx polarizability: 112.254  -6.306  96.007  -8.041   2.551 125.068

 SCF Done:  E(RB3LYP) =  -495.844242564     A.U. after   12 cycles
 SCF Done:  E(RB3LYP) =  -495.847622748     A.U. after   13 cycles
 SCF Done:  E(RB3LYP) =  -495.849121979     A.U. after   15 cycles
 SCF Done:  E(RB3LYP) =  -495.839109605     A.U. after   15 cycles
 SCF Done:  E(RB3LYP) =  -495.849175271     A.U. after   14 cycles
 SCF Done:  E(RB3LYP) =  -495.849802787     A.U. after   12 cycles
 SCF Done:  E(RB3LYP) =  -495.849423315     A.U. after   13 cycles
 SCF Done:  E(RB3LYP) =  -495.850094766     A.U. after   13 cycles
 SCF Done:  E(RB3LYP) =  -495.850229131     A.U. after   11 cycles
 SCF Done:  E(RB3LYP) =  -495.850237883     A.U. after   11 cycles
 SCF Done:  E(RB3LYP) =  -495.850244220     A.U. after    9 cycles
 SCF Done:  E(RB3LYP) =  -495.850244467     A.U. after    7 cycles
 SCF Done:  E(RB3LYP) =  -495.850244969     A.U. after    8 cycles
 SCF Done:  E(RB3LYP) =  -495.850245262     A.U. after    9 cycles
 SCF Done:  E(RB3LYP) =  -495.850245301     A.U. after    7 cycles
 SCF Done:  E(RB3LYP) =  -495.850245343     A.U. after    7 cycles
 SCF Done:  E(RB3LYP) =  -495.850245590     A.U. after    7 cycles
 SCF Done:  E(RB3LYP) =  -495.850246093     A.U. after    9 cycles
 SCF Done:  E(RB3LYP) =  -495.850246099     A.U. after    5 cycles
 Optimization completed.
    -- Stationary point found.

                         Standard orientation:
 ---------------------------------------------------------------------
 Center     Atomic      Atomic             Coordinates (Angstroms)
 Number     Number       Type             X           Y           Z
 ---------------------------------------------------------------------
      1          1           0        4.187405   -0.881589    0.091454
      2          6           0        3.230165   -1.005704   -0.419030
      3          1           0        2.956163   -2.066514   -0.370717
      4          1           0        3.334978   -0.725226   -1.471764
      5          6           0        2.175425   -0.184700    0.305380
      6          8           0        2.213838    0.013023    1.512887
      7          7           0        1.189150    0.334753   -0.507578
      8          1           0        1.052148   -0.134392   -1.397507
      9          6           0       -0.050764    0.823818    0.071585
     10          1           0        0.125879    0.900097    1.149294
     11          6           0       -0.423369    2.204890   -0.496085
     12          1           0       -0.581735    2.147966   -1.578933
     13          1           0       -1.341801    2.591268   -0.040685
     14          1           0        0.387283    2.913361   -0.303007
     15          6           0       -1.167569   -0.203933   -0.207720
     16          8           0       -1.050990   -1.049312   -1.090326
     17          7           0       -2.297327   -0.044886    0.536245
     18          1           0       -2.274226    0.612501    1.303258
     19          6           0       -3.455474   -0.913539    0.405363
     20          1           0       -3.312253   -1.516452   -0.492006
     21          1           0       -3.557632   -1.582063    1.269010
     22          1           0       -4.372237   -0.322698    0.303481
 ---------------------------------------------------------------------

 The electronic state is 1-A.
 Alpha  occ. eigenvalues --  -19.11991 -19.10648 -14.37064 -14.34890 -10.29053
 Alpha  occ. eigenvalues --  -10.28221 -10.23249 -10.22397 -10.18988 -10.18556
 Alpha  occ. eigenvalues --   -1.03991  -1.02369  -0.92786  -0.91569  -0.77909
 Alpha  occ. eigenvalues --   -0.72700  -0.71138  -0.64160  -0.59256  -0.57310
 Alpha  occ. eigenvalues --   -0.53661  -0.47886  -0.46577  -0.45979  -0.45801
 Alpha  occ. eigenvalues --   -0.44160  -0.42733  -0.41797  -0.40544  -0.39735
 Alpha  occ. eigenvalues --   -0.39223  -0.37955  -0.37215  -0.35961  -0.34483
 Alpha  occ. eigenvalues --   -0.26252  -0.26161  -0.25349  -0.23987
 Alpha virt. eigenvalues --    0.02192   0.03033   0.06600   0.09661   0.11776
 Alpha virt. eigenvalues --    0.13008   0.14045   0.15223   0.15640   0.15759
 Alpha virt. eigenvalues --    0.16307   0.16851   0.17697   0.18886   0.19378

 Mulliken atomic charges:
              1
     1  H    0.183939
     2  C   -0.540682
     3  H    0.184071
     4  H    0.156420
     5  C    0.580555
     6  O   -0.502842
     7  N   -0.570635
     8  H    0.334557
     9  C   -0.080241
    10  H    0.183430
    11  C   -0.435243
    12  H    0.157022
    13  H    0.140511
    14  H    0.169811
    15  C    0.607257
    16  O   -0.527222
    17  N   -0.585836
    18  H    0.329655
    19  C   -0.311347
    20  H    0.205004
    21  H    0.163173
    22  H    0.158645
 Sum of Mulliken atomic charges =   0.00000

 Dipole moment (field-independent basis, Debye):
    X=             -2.5709    Y=              1.0864    Z=             -0.4372  Tot=              2.8251
 Quadrupole moment (field-independent basis, Debye-Ang):
   XX=            -52.8693   YY=            -59.3877   ZZ=            -63.5940
   XY=             -3.5855   XZ=            -11.3813   YZ=             -0.8700

 Normal termination of Gaussian 09 at Fri Feb 10 22:46:20 2017.
