 Gaussian 09, Revision A.02,
 Gaussian 09:  EM64L-G09RevA.02 11-Jun-2009

 ----------------------------------------------------------------------
 # b3lyp/6-31G* Opt=(ModRedundant, maxcycles=1000, calcfc) geom=nocrowd
 ----------------------------------------------------------------------

 ------------------
 Phi Psi fixed scan
 ------------------
 Symbolic Z-matrix:
 Charge =  0 Multiplicity = 1

 SCF Done:  E(RB3LYP) =  -495.844952202     A.U. after   15 cycles

  Exact polarizability:   0.000   0.000   0.000   0.000   0.000   0.000
 Approx polarizability: 113.275 -14.913 115.439   8.885 -14.775 107.631

 SCF Done:  E(RB3LYP) =  -495.848030057     A.U. after   12 cycles
 SCF Done:  E(RB3LYP) =  -495.851354797     A.U. after   12 cycles
 SCF Done:  E(RB3LYP) =  -495.851970878     A.U. after   14 cycles
 SCF Done:  E(RB3LYP) =  -495.826353406     A.U. after   13 cycles
 SCF Done:  E(RB3LYP) =  -495.836540175     A.U. after   12 cycles
 SCF Done:  E(RB3LYP) =  -495.843509845     A.U. after   12 cycles
 SCF Done:  E(RB3LYP) =  -495.847849219     A.U. after   12 cycles
 SCF Done:  E(RB3LYP) =  -495.849175584     A.U. after   12 cycles
 SCF Done:  E(RB3LYP) =  -495.850189975     A.U. after   12 cycles
 SCF Done:  E(RB3LYP) =  -495.844120047     A.U. after   13 cycles
 SCF Done:  E(RB3LYP) =  -495.852152032     A.U. after   13 cycles
 SCF Done:  E(RB3LYP) =  -495.852183896     A.U. after   11 cycles
 SCF Done:  E(RB3LYP) =  -495.852209043     A.U. after   10 cycles
 SCF Done:  E(RB3LYP) =  -495.852236411     A.U. after   10 cycles
 SCF Done:  E(RB3LYP) =  -495.852254996     A.U. after   10 cycles
 SCF Done:  E(RB3LYP) =  -495.852260907     A.U. after   10 cycles
 SCF Done:  E(RB3LYP) =  -495.852263759     A.U. after   10 cycles
 SCF Done:  E(RB3LYP) =  -495.852264313     A.U. after    9 cycles
 SCF Done:  E(RB3LYP) =  -495.852264316     A.U. after    7 cycles
 Optimization completed.
    -- Stationary point found.

                         Standard orientation:
 ---------------------------------------------------------------------
 Center     Atomic      Atomic             Coordinates (Angstroms)
 Number     Number       Type             X           Y           Z
 ---------------------------------------------------------------------
      1          1           0        3.393386   -1.655634   -0.862130
      2          6           0        3.200800   -0.586297   -0.741466
      3          1           0        3.156124   -0.113887   -1.727693
      4          1           0        4.045254   -0.162160   -0.187345
      5          6           0        1.936238   -0.402717    0.080078
      6          8           0        1.743388   -1.021203    1.126568
      7          7           0        1.011370    0.465748   -0.422848
      8          1           0        1.226280    0.969656   -1.272881
      9          6           0       -0.101333    0.974761    0.386737
     10          1           0        0.129424    0.684959    1.417247
     11          6           0       -0.215701    2.491706    0.268626
     12          1           0       -0.431248    2.790079   -0.762817
     13          1           0       -1.042705    2.854777    0.883681
     14          1           0        0.711382    2.971275    0.598798
     15          6           0       -1.421624    0.278121   -0.022594
     16          8           0       -2.386445    0.893784   -0.460980
     17          7           0       -1.379136   -1.072667    0.146287
     18          1           0       -0.539216   -1.467788    0.555782
     19          6           0       -2.493047   -1.943511   -0.177497
     20          1           0       -3.292321   -1.319604   -0.580487
     21          1           0       -2.207511   -2.690720   -0.927908
     22          1           0       -2.862031   -2.465544    0.713683
 ---------------------------------------------------------------------

 The electronic state is 1-A.
 Alpha  occ. eigenvalues --  -19.12000 -19.10717 -14.37117 -14.35161 -10.29786
 Alpha  occ. eigenvalues --  -10.27812 -10.23471 -10.21174 -10.20176 -10.18439
 Alpha  occ. eigenvalues --   -1.03997  -1.02400  -0.93217  -0.90983  -0.78249
 Alpha  occ. eigenvalues --   -0.73456  -0.70898  -0.63900  -0.59747  -0.57265
 Alpha  occ. eigenvalues --   -0.52978  -0.49158  -0.48495  -0.45995  -0.45041
 Alpha  occ. eigenvalues --   -0.43981  -0.42055  -0.41954  -0.40625  -0.39291
 Alpha  occ. eigenvalues --   -0.38596  -0.37703  -0.37394  -0.36260  -0.35483
 Alpha  occ. eigenvalues --   -0.27760  -0.26024  -0.24520  -0.23592
 Alpha virt. eigenvalues --    0.01375   0.03307   0.06971   0.10461   0.11562
 Alpha virt. eigenvalues --    0.12415   0.13767   0.14841   0.15870   0.16139
 Alpha virt. eigenvalues --    0.17086   0.17330   0.17523   0.18611   0.20166

 Mulliken atomic charges:
              1
     1  H    0.189161
     2  C   -0.534260
     3  H    0.149101
     4  H    0.189072
     5  C    0.592517
     6  O   -0.524862
     7  N   -0.576757
     8  H    0.327454
     9  C   -0.073284
    10  H    0.189957
    11  C   -0.452648
    12  H    0.158671
    13  H    0.176006
    14  H    0.144952
    15  C    0.610278
    16  O   -0.523749
    17  N   -0.591986
    18  H    0.349947
    19  C   -0.310062
    20  H    0.198355
    21  H    0.154430
    22  H    0.157707
 Sum of Mulliken atomic charges =   0.00000

 Dipole moment (field-independent basis, Debye):
    X=              2.4797    Y=             -0.1251    Z=             -1.5578  Tot=              2.9311
 Quadrupole moment (field-independent basis, Debye-Ang):
   XX=            -62.1099   YY=            -57.4086   ZZ=            -60.5990
   XY=              8.5865   XZ=             -7.7508   YZ=              2.6565

 Normal termination of Gaussian 09 at Fri Feb 10 23:04:18 2017.
