 Gaussian 09, Revision A.02,
 Gaussian 09:  EM64L-G09RevA.02 11-Jun-2009

 ----------------------------------------------------------------------
 # b3lyp/6-31G* Opt=(ModRedundant, maxcycles=1000, calcfc) geom=nocrowd
 ----------------------------------------------------------------------

 ------------------
 Phi Psi fixed scan
 ------------------
 Symbolic Z-matrix:
 Charge =  0 Multiplicity = 1

 SCF Done:  E(RB3LYP) =  -495.831303790     A.U. after   16 cycles

  Exact polarizability:   0.000   0.000   0.000   0.000   0.000   0.000
 Approx polarizability: 110.545  -2.758  93.020  13.199 -10.890 133.544

 SCF Done:  E(RB3LYP) =  -495.835375383     A.U. after   12 cycles
 SCF Done:  E(RB3LYP) =  -495.839873117     A.U. after   13 cycles
 SCF Done:  E(RB3LYP) =  -495.840813817     A.U. after   14 cycles
 SCF Done:  E(RB3LYP) =  -495.839334376     A.U. after   14 cycles
 SCF Done:  E(RB3LYP) =  -495.839993071     A.U. after   13 cycles
 SCF Done:  E(RB3LYP) =  -495.840832478     A.U. after   14 cycles
 SCF Done:  E(RB3LYP) =  -495.841055167     A.U. after   12 cycles
 SCF Done:  E(RB3LYP) =  -495.837958292     A.U. after   13 cycles
 SCF Done:  E(RB3LYP) =  -495.841132869     A.U. after   14 cycles
 SCF Done:  E(RB3LYP) =  -495.841215015     A.U. after   11 cycles
 SCF Done:  E(RB3LYP) =  -495.841221881     A.U. after   10 cycles
 SCF Done:  E(RB3LYP) =  -495.841229647     A.U. after   10 cycles
 SCF Done:  E(RB3LYP) =  -495.841234615     A.U. after   10 cycles
 SCF Done:  E(RB3LYP) =  -495.841231406     A.U. after   11 cycles
 SCF Done:  E(RB3LYP) =  -495.841239416     A.U. after   10 cycles
 SCF Done:  E(RB3LYP) =  -495.841241047     A.U. after   10 cycles
 SCF Done:  E(RB3LYP) =  -495.841240502     A.U. after   10 cycles
 SCF Done:  E(RB3LYP) =  -495.841240548     A.U. after    8 cycles
 SCF Done:  E(RB3LYP) =  -495.841240487     A.U. after    7 cycles
 Optimization completed.
    -- Stationary point found.

                         Standard orientation:
 ---------------------------------------------------------------------
 Center     Atomic      Atomic             Coordinates (Angstroms)
 Number     Number       Type             X           Y           Z
 ---------------------------------------------------------------------
      1          1           0        4.029161   -0.950586   -0.744262
      2          6           0        2.974093   -1.227339   -0.808543
      3          1           0        2.869567   -2.232416   -0.384515
      4          1           0        2.672092   -1.258619   -1.860578
      5          6           0        2.161185   -0.252013    0.030798
      6          8           0        2.531767    0.125125    1.131727
      7          7           0        0.991430    0.182552   -0.555235
      8          1           0        0.690717   -0.284794   -1.400462
      9          6           0       -0.026156    0.916158    0.197787
     10          1           0        0.426736    1.126044    1.168054
     11          6           0       -0.398110    2.231889   -0.498152
     12          1           0       -0.742542    2.078596   -1.529718
     13          1           0       -1.188464    2.755882    0.050649
     14          1           0        0.480227    2.882364   -0.546701
     15          6           0       -1.223571   -0.011940    0.498373
     16          8           0       -1.375884   -0.537391    1.590833
     17          7           0       -2.047271   -0.267259   -0.571141
     18          1           0       -1.993674    0.346108   -1.372142
     19          6           0       -3.236312   -1.094577   -0.436257
     20          1           0       -3.073099   -1.777750    0.398000
     21          1           0       -4.133518   -0.497850   -0.224868
     22          1           0       -3.400153   -1.668974   -1.353339
 ---------------------------------------------------------------------

 The electronic state is 1-A.
 Alpha  occ. eigenvalues --  -19.11424 -19.10739 -14.36803 -14.36294 -10.28684
 Alpha  occ. eigenvalues --  -10.28682 -10.23319 -10.22289 -10.19667 -10.19219
 Alpha  occ. eigenvalues --   -1.03534  -1.02656  -0.92930  -0.91748  -0.78290
 Alpha  occ. eigenvalues --   -0.73022  -0.71101  -0.65023  -0.58788  -0.58704
 Alpha  occ. eigenvalues --   -0.53741  -0.48432  -0.47438  -0.46377  -0.44742
 Alpha  occ. eigenvalues --   -0.44017  -0.42775  -0.41980  -0.40983  -0.39832
 Alpha  occ. eigenvalues --   -0.39481  -0.38418  -0.36651  -0.36283  -0.35348
 Alpha  occ. eigenvalues --   -0.27451  -0.26002  -0.24615  -0.23517
 Alpha virt. eigenvalues --    0.01265   0.03955   0.05192   0.08416   0.11241
 Alpha virt. eigenvalues --    0.12654   0.13789   0.14534   0.15312   0.15705
 Alpha virt. eigenvalues --    0.16361   0.17050   0.18086   0.18635   0.19398

 Mulliken atomic charges:
              1
     1  H    0.188360
     2  C   -0.539751
     3  H    0.188043
     4  H    0.142680
     5  C    0.596009
     6  O   -0.491464
     7  N   -0.591820
     8  H    0.315594
     9  C   -0.054261
    10  H    0.212236
    11  C   -0.459510
    12  H    0.127065
    13  H    0.163985
    14  H    0.175458
    15  C    0.588577
    16  O   -0.497547
    17  N   -0.595356
    18  H    0.322046
    19  C   -0.307587
    20  H    0.203736
    21  H    0.160565
    22  H    0.152940
 Sum of Mulliken atomic charges =   0.00000

 Dipole moment (field-independent basis, Debye):
    X=             -2.2964    Y=              0.2423    Z=             -5.8628  Tot=              6.3011
 Quadrupole moment (field-independent basis, Debye-Ang):
   XX=            -58.7192   YY=            -56.6446   ZZ=            -64.3331
   XY=             -3.3862   XZ=             -0.9068   YZ=              2.2381

 Normal termination of Gaussian 09 at Fri Feb 10 22:57:10 2017.
