 Gaussian 09, Revision A.02,
 Gaussian 09:  EM64L-G09RevA.02 11-Jun-2009

 ----------------------------------------------------------------------
 # b3lyp/6-31G* Opt=(ModRedundant, maxcycles=1000, calcfc) geom=nocrowd
 ----------------------------------------------------------------------

 ------------------
 Phi Psi fixed scan
 ------------------
 Symbolic Z-matrix:
 Charge =  0 Multiplicity = 1

 SCF Done:  E(RB3LYP) =  -495.843769847     A.U. after   15 cycles

  Exact polarizability:   0.000   0.000   0.000   0.000   0.000   0.000
 Approx polarizability: 115.558 -16.039 113.529   7.486  -8.373 106.997

 SCF Done:  E(RB3LYP) =  -495.846753589     A.U. after   11 cycles
 SCF Done:  E(RB3LYP) =  -495.850020689     A.U. after   12 cycles
 SCF Done:  E(RB3LYP) =  -495.850670450     A.U. after   13 cycles
 SCF Done:  E(RB3LYP) =  -495.848827857     A.U. after   13 cycles
 SCF Done:  E(RB3LYP) =  -495.850689355     A.U. after   13 cycles
 SCF Done:  E(RB3LYP) =  -495.850815575     A.U. after   12 cycles
 SCF Done:  E(RB3LYP) =  -495.849876558     A.U. after   13 cycles
 SCF Done:  E(RB3LYP) =  -495.850902142     A.U. after   13 cycles
 SCF Done:  E(RB3LYP) =  -495.850957898     A.U. after   11 cycles
 SCF Done:  E(RB3LYP) =  -495.850969491     A.U. after   10 cycles
 SCF Done:  E(RB3LYP) =  -495.850977851     A.U. after   10 cycles
 SCF Done:  E(RB3LYP) =  -495.850985493     A.U. after    9 cycles
 SCF Done:  E(RB3LYP) =  -495.850991215     A.U. after   10 cycles
 SCF Done:  E(RB3LYP) =  -495.850993438     A.U. after   10 cycles
 SCF Done:  E(RB3LYP) =  -495.850993485     A.U. after    7 cycles
 Optimization completed.
    -- Stationary point found.

                         Standard orientation:
 ---------------------------------------------------------------------
 Center     Atomic      Atomic             Coordinates (Angstroms)
 Number     Number       Type             X           Y           Z
 ---------------------------------------------------------------------
      1          1           0        3.472015   -1.658287   -0.690827
      2          6           0        3.216436   -0.595826   -0.706198
      3          1           0        3.122830   -0.260720   -1.743976
      4          1           0        4.044065   -0.051859   -0.237371
      5          6           0        1.958158   -0.379410    0.118393
      6          8           0        1.792410   -0.917773    1.211157
      7          7           0        1.010084    0.431610   -0.438035
      8          1           0        1.204404    0.860913   -1.332814
      9          6           0       -0.108755    0.984646    0.329361
     10          1           0        0.126474    0.772495    1.379046
     11          6           0       -0.233952    2.490676    0.109932
     12          1           0       -0.416789    2.721923   -0.945842
     13          1           0       -1.084057    2.880019    0.673539
     14          1           0        0.679137    2.999993    0.433881
     15          6           0       -1.439986    0.260830    0.009496
     16          8           0       -2.482423    0.872668   -0.192968
     17          7           0       -1.330826   -1.097328   -0.026965
     18          1           0       -0.464099   -1.501576    0.307836
     19          6           0       -2.484405   -1.962729   -0.194793
     20          1           0       -3.301945   -1.353762   -0.583134
     21          1           0       -2.260758   -2.766777   -0.904298
     22          1           0       -2.800964   -2.410616    0.756299
 ---------------------------------------------------------------------

 The electronic state is 1-A.
 Alpha  occ. eigenvalues --  -19.11936 -19.10812 -14.37072 -14.35329 -10.29751
 Alpha  occ. eigenvalues --  -10.27931 -10.23567 -10.21269 -10.20172 -10.18432
 Alpha  occ. eigenvalues --   -1.03978  -1.02537  -0.93285  -0.91049  -0.78244
 Alpha  occ. eigenvalues --   -0.73428  -0.70906  -0.63990  -0.59751  -0.57366
 Alpha  occ. eigenvalues --   -0.53156  -0.49165  -0.48390  -0.46011  -0.45072
 Alpha  occ. eigenvalues --   -0.43921  -0.42099  -0.42012  -0.40549  -0.39228
 Alpha  occ. eigenvalues --   -0.38612  -0.38197  -0.37361  -0.36238  -0.35264
 Alpha  occ. eigenvalues --   -0.27872  -0.25952  -0.24925  -0.23397
 Alpha virt. eigenvalues --    0.01523   0.03077   0.06928   0.10320   0.11429
 Alpha virt. eigenvalues --    0.12463   0.13699   0.14716   0.15663   0.15894
 Alpha virt. eigenvalues --    0.17082   0.17242   0.17603   0.18515   0.19743

 Mulliken atomic charges:
              1
     1  H    0.188605
     2  C   -0.535946
     3  H    0.149286
     4  H    0.188736
     5  C    0.588684
     6  O   -0.522090
     7  N   -0.580825
     8  H    0.326037
     9  C   -0.072259
    10  H    0.196815
    11  C   -0.452185
    12  H    0.150852
    13  H    0.183640
    14  H    0.146151
    15  C    0.606396
    16  O   -0.522992
    17  N   -0.587382
    18  H    0.347044
    19  C   -0.309240
    20  H    0.197877
    21  H    0.153788
    22  H    0.159008
 Sum of Mulliken atomic charges =   0.00000

 Dipole moment (field-independent basis, Debye):
    X=              2.4898    Y=             -0.3165    Z=             -2.1577  Tot=              3.3098
 Quadrupole moment (field-independent basis, Debye-Ang):
   XX=            -63.1484   YY=            -56.9469   ZZ=            -60.7196
   XY=              8.3279   XZ=             -6.8890   YZ=              2.1506

 Normal termination of Gaussian 09 at Fri Feb 10 22:57:27 2017.
