 Gaussian 09, Revision A.02,
 Gaussian 09:  EM64L-G09RevA.02 11-Jun-2009

 -------------------------------------------------------------------
 # HF/6-31G* Opt=(ModRedundant, maxcycles=1000, calcfc) geom=nocrowd
 -------------------------------------------------------------------

 ------------------
 Phi Psi fixed scan
 ------------------
 Symbolic Z-matrix:
 Charge =  0 Multiplicity = 1

 SCF Done:  E(RHF) =  -984.513208470     A.U. after   15 cycles

  Exact polarizability:   0.000   0.000   0.000   0.000   0.000   0.000
 Approx polarizability: 137.273  -1.115 141.881   3.292   3.587 109.318

 SCF Done:  E(RHF) =  -984.526526611     A.U. after   13 cycles
 SCF Done:  E(RHF) =  -984.539127375     A.U. after   13 cycles
 SCF Done:  E(RHF) =  -984.540423353     A.U. after   14 cycles
 SCF Done:  E(RHF) =  -984.541691979     A.U. after   13 cycles
 SCF Done:  E(RHF) =  -984.544519842     A.U. after   13 cycles
 SCF Done:  E(RHF) =  -984.546498911     A.U. after   13 cycles
 SCF Done:  E(RHF) =  -984.530146404     A.U. after   14 cycles
 SCF Done:  E(RHF) =  -984.547534228     A.U. after   14 cycles
 SCF Done:  E(RHF) =  -984.549146715     A.U. after   13 cycles
 SCF Done:  E(RHF) =  -984.551224048     A.U. after    9 cycles
 SCF Done:  E(RHF) =  -984.551224303     A.U. after    8 cycles
 SCF Done:  E(RHF) =  -984.551224355     A.U. after    7 cycles
 SCF Done:  E(RHF) =  -984.551224410     A.U. after    7 cycles
 SCF Done:  E(RHF) =  -984.551224490     A.U. after    7 cycles
 SCF Done:  E(RHF) =  -984.551224594     A.U. after    7 cycles
 SCF Done:  E(RHF) =  -984.551224732     A.U. after    8 cycles
 SCF Done:  E(RHF) =  -984.551224996     A.U. after    8 cycles
 SCF Done:  E(RHF) =  -984.551225162     A.U. after    8 cycles
 SCF Done:  E(RHF) =  -984.551225185     A.U. after    7 cycles
 Optimization completed.
    -- Stationary point found.

                         Standard orientation:
 ---------------------------------------------------------------------
 Center     Atomic      Atomic             Coordinates (Angstroms)
 Number     Number       Type             X           Y           Z
 ---------------------------------------------------------------------
      1          1           0       -6.234002   -0.644765    1.969584
      2          6           0       -6.137139   -0.968942    0.939182
      3          1           0       -6.509930   -0.186282    0.289813
      4          1           0       -6.738857   -1.859541    0.814800
      5          6           0       -4.688631   -1.322502    0.680228
      6          8           0       -4.185987   -2.308958    1.152703
      7          7           0       -4.001157   -0.456053   -0.090893
      8          1           0       -4.424345    0.375324   -0.437205
      9          6           0       -2.596014   -0.623531   -0.367984
     10          1           0       -2.118041   -0.999001    0.528563
     11          6           0       -2.348285   -1.613865   -1.514546
     12          1           0       -2.804429   -1.251029   -2.429229
     13          1           0       -1.288461   -1.760428   -1.692417
     14          1           0       -2.788483   -2.567850   -1.256720
     15          6           0       -2.029123    0.754515   -0.715877
     16          8           0       -2.749971    1.646860   -1.069644
     17          7           0       -0.672489    0.825719   -0.673599
     18          1           0       -0.260563    0.064185   -0.183217
     19          6           0        0.119760    2.064293   -0.630142
     20          1           0        0.404998    2.320472   -1.647212
     21          6           0       -0.592163    3.266189   -0.007828
     22          1           0       -0.928796    3.035227    0.996938
     23          1           0        0.106748    4.087382    0.053273
     24          1           0       -1.443683    3.556136   -0.600272
     25          6           0        1.432037    1.807739    0.131475
     26          8           0        1.970321    2.676157    0.758849
     27          7           0        1.936945    0.549343    0.062117
     28          1           0        1.679039   -0.049797   -0.693937
     29          6           0        3.228407    0.241070    0.640730
     30          1           0        3.876594    1.103921    0.537949
     31          6           0        3.101096   -0.111167    2.127289
     32          1           0        2.483464   -0.993140    2.255875
     33          1           0        4.069701   -0.301060    2.576861
     34          1           0        2.642205    0.717098    2.650676
     35          6           0        3.817924   -0.918365   -0.162234
     36          8           0        3.157354   -1.531063   -0.961787
     37          7           0        5.102798   -1.211686    0.095935
     38          1           0        5.623448   -0.617861    0.698511
     39          6           0        5.796354   -2.274841   -0.603904
     40          1           0        5.217072   -3.185880   -0.561524
     41          1           0        5.964751   -2.022011   -1.644046
     42          1           0        6.749815   -2.439900   -0.121293
 ---------------------------------------------------------------------

 The electronic state is 1-A.
 Alpha  occ. eigenvalues --  -20.54730 -20.54234 -20.54227 -20.51380 -15.60594
 Alpha  occ. eigenvalues --  -15.59867 -15.59558 -15.57814 -11.36631 -11.36307
 Alpha  occ. eigenvalues --  -11.36102 -11.34266 -11.29365 -11.29200 -11.28119
 Alpha  occ. eigenvalues --  -11.27282 -11.23579 -11.22724 -11.22146 -11.20977
 Alpha  occ. eigenvalues --   -1.41877  -1.41187  -1.40826  -1.38290  -1.26407
 Alpha  occ. eigenvalues --   -1.25425  -1.24030  -1.23406  -1.07475  -1.05414
 Alpha  occ. eigenvalues --   -1.02763  -0.98541  -0.97316  -0.92275  -0.89769
 Alpha  occ. eigenvalues --   -0.87069  -0.81693  -0.80358  -0.78982  -0.78024
 Alpha  occ. eigenvalues --   -0.76252  -0.71938  -0.69346  -0.68276  -0.67656
 Alpha  occ. eigenvalues --   -0.66076  -0.65541  -0.65373  -0.64176  -0.62891
 Alpha  occ. eigenvalues --   -0.62277  -0.61043  -0.60813  -0.60025  -0.58596
 Alpha  occ. eigenvalues --   -0.58069  -0.57163  -0.56728  -0.56539  -0.56205
 Alpha  occ. eigenvalues --   -0.55252  -0.54732  -0.54251  -0.53191  -0.52673
 Alpha  occ. eigenvalues --   -0.52364  -0.51653  -0.50921  -0.49293  -0.44413
 Alpha  occ. eigenvalues --   -0.43928  -0.42404  -0.41709  -0.41198  -0.40671
 Alpha  occ. eigenvalues --   -0.40044  -0.38169
 Alpha virt. eigenvalues --    0.17215   0.18211   0.19479   0.20124   0.20954
 Alpha virt. eigenvalues --    0.22039   0.24163   0.25280   0.26495   0.27264
 Alpha virt. eigenvalues --    0.27633   0.28668   0.28733   0.29385   0.30455

 Mulliken atomic charges:
              1
     1  H    0.203155
     2  C   -0.575199
     3  H    0.172942
     4  H    0.207083
     5  C    0.755925
     6  O   -0.622915
     7  N   -0.823743
     8  H    0.419319
     9  C   -0.037814
    10  H    0.214062
    11  C   -0.483308
    12  H    0.176087
    13  H    0.167297
    14  H    0.211150
    15  C    0.793468
    16  O   -0.619722
    17  N   -0.866004
    18  H    0.400147
    19  C   -0.003589
    20  H    0.215095
    21  C   -0.501604
    22  H    0.164213
    23  H    0.199225
    24  H    0.220588
    25  C    0.764176
    26  O   -0.605497
    27  N   -0.854702
    28  H    0.429764
    29  C   -0.039322
    30  H    0.220340
    31  C   -0.479869
    32  H    0.180490
    33  H    0.158107
    34  H    0.210766
    35  C    0.775835
    36  O   -0.632092
    37  N   -0.798718
    38  H    0.392404
    39  C   -0.273206
    40  H    0.204387
    41  H    0.186834
    42  H    0.174447
 Sum of Mulliken atomic charges =   0.00000

 Dipole moment (field-independent basis, Debye):
    X=              4.5865    Y=             -0.1779    Z=              0.1076  Tot=              4.5912
 Quadrupole moment (field-independent basis, Debye-Ang):
   XX=            -85.4311   YY=           -140.0265   ZZ=           -123.5073
   XY=            -12.8998   XZ=              5.5485   YZ=              0.9072

 Normal termination of Gaussian 09 at Mon Dec 26 17:21:35 2016.
