 Gaussian 09, Revision A.02,
 Gaussian 09:  EM64L-G09RevA.02 11-Jun-2009

 -------------------------------------------------------------------
 # HF/6-31G* Opt=(ModRedundant, maxcycles=1000, calcfc) geom=nocrowd
 -------------------------------------------------------------------

 ------------------
 Phi Psi fixed scan
 ------------------
 Symbolic Z-matrix:
 Charge =  0 Multiplicity = 1

 SCF Done:  E(RHF) =  -984.516065098     A.U. after   15 cycles

  Exact polarizability:   0.000   0.000   0.000   0.000   0.000   0.000
 Approx polarizability: 131.258   2.350 129.149  -2.535 -16.193 128.858

 SCF Done:  E(RHF) =  -984.531299854     A.U. after   13 cycles
 SCF Done:  E(RHF) =  -984.547091792     A.U. after   14 cycles
 SCF Done:  E(RHF) =  -984.550793621     A.U. after   16 cycles
 SCF Done:  E(RHF) =  -984.542744274     A.U. after   14 cycles
 SCF Done:  E(RHF) =  -984.552645382     A.U. after   14 cycles
 SCF Done:  E(RHF) =  -984.554330287     A.U. after   15 cycles
 SCF Done:  E(RHF) =  -984.555780281     A.U. after   15 cycles
 SCF Done:  E(RHF) =  -984.556212960     A.U. after   15 cycles
 SCF Done:  E(RHF) =  -984.556304813     A.U. after   13 cycles
 SCF Done:  E(RHF) =  -984.556975226     A.U. after   10 cycles
 SCF Done:  E(RHF) =  -984.556975706     A.U. after    9 cycles
 SCF Done:  E(RHF) =  -984.556976003     A.U. after    8 cycles
 SCF Done:  E(RHF) =  -984.556976245     A.U. after    8 cycles
 SCF Done:  E(RHF) =  -984.556976416     A.U. after    7 cycles
 SCF Done:  E(RHF) =  -984.556976618     A.U. after    8 cycles
 SCF Done:  E(RHF) =  -984.556976947     A.U. after    8 cycles
 SCF Done:  E(RHF) =  -984.556977155     A.U. after    8 cycles
 SCF Done:  E(RHF) =  -984.556977214     A.U. after    8 cycles
 SCF Done:  E(RHF) =  -984.556977224     A.U. after    7 cycles
 Optimization completed.
    -- Stationary point found.

                         Standard orientation:
 ---------------------------------------------------------------------
 Center     Atomic      Atomic             Coordinates (Angstroms)
 Number     Number       Type             X           Y           Z
 ---------------------------------------------------------------------
      1          1           0        5.591874    3.426672    0.348224
      2          6           0        5.685039    2.383103    0.618515
      3          1           0        5.440310    2.256597    1.666087
      4          1           0        6.718023    2.091572    0.462898
      5          6           0        4.809178    1.563877   -0.304920
      6          8           0        4.793322    1.756766   -1.493157
      7          7           0        4.072332    0.602116    0.285249
      8          1           0        4.083123    0.473949    1.271989
      9          6           0        3.190129   -0.260802   -0.461275
     10          1           0        2.708265    0.329653   -1.229744
     11          6           0        3.943636   -1.423014   -1.122879
     12          1           0        4.423864   -2.038131   -0.369467
     13          1           0        3.275797   -2.049265   -1.705660
     14          1           0        4.700273   -1.023025   -1.784717
     15          6           0        2.141380   -0.796426    0.515433
     16          8           0        2.369178   -0.839924    1.697006
     17          7           0        1.008059   -1.216924   -0.077506
     18          1           0        0.971333   -1.177171   -1.072743
     19          6           0       -0.162208   -1.865412    0.510162
     20          1           0       -0.085896   -2.936281    0.347154
     21          6           0       -0.354741   -1.615285    2.003334
     22          1           0       -0.387154   -0.558535    2.238577
     23          1           0       -1.283459   -2.079222    2.320016
     24          1           0        0.452098   -2.048963    2.570427
     25          6           0       -1.322352   -1.410251   -0.388557
     26          8           0       -1.262790   -1.650566   -1.571232
     27          7           0       -2.329367   -0.722969    0.161089
     28          1           0       -2.344397   -0.494968    1.129590
     29          6           0       -3.427075   -0.210366   -0.627267
     30          1           0       -3.027597    0.169638   -1.559116
     31          6           0       -4.472076   -1.291113   -0.933526
     32          1           0       -4.895849   -1.676389   -0.012674
     33          1           0       -5.277008   -0.895675   -1.543936
     34          1           0       -4.000804   -2.102728   -1.471687
     35          6           0       -4.056938    0.928393    0.170580
     36          8           0       -3.926489    1.001091    1.365235
     37          7           0       -4.791297    1.800950   -0.539771
     38          1           0       -4.775905    1.749092   -1.531831
     39          6           0       -5.455910    2.925404    0.088121
     40          1           0       -6.018722    2.588637    0.946572
     41          1           0       -4.745696    3.675917    0.414959
     42          1           0       -6.134696    3.368825   -0.627495
 ---------------------------------------------------------------------

 The electronic state is 1-A.
 Alpha  occ. eigenvalues --  -20.54343 -20.53371 -20.53365 -20.51145 -15.60405
 Alpha  occ. eigenvalues --  -15.59629 -15.59580 -15.57572 -11.36306 -11.35847
 Alpha  occ. eigenvalues --  -11.35752 -11.34049 -11.29271 -11.29250 -11.27728
 Alpha  occ. eigenvalues --  -11.27093 -11.23326 -11.22574 -11.22544 -11.22056
 Alpha  occ. eigenvalues --   -1.41444  -1.40605  -1.40004  -1.38029  -1.25295
 Alpha  occ. eigenvalues --   -1.25156  -1.24830  -1.23170  -1.07918  -1.05309
 Alpha  occ. eigenvalues --   -1.02685  -0.98417  -0.97175  -0.92296  -0.90303
 Alpha  occ. eigenvalues --   -0.87619  -0.81856  -0.80066  -0.78867  -0.77824
 Alpha  occ. eigenvalues --   -0.75614  -0.72730  -0.68648  -0.67759  -0.67373
 Alpha  occ. eigenvalues --   -0.66223  -0.65219  -0.64749  -0.64398  -0.62794
 Alpha  occ. eigenvalues --   -0.61989  -0.60829  -0.60591  -0.60007  -0.58602
 Alpha  occ. eigenvalues --   -0.57574  -0.56867  -0.56635  -0.56480  -0.56137
 Alpha  occ. eigenvalues --   -0.54977  -0.54837  -0.54047  -0.53744  -0.53663
 Alpha  occ. eigenvalues --   -0.52515  -0.52235  -0.50915  -0.49220  -0.44149
 Alpha  occ. eigenvalues --   -0.43500  -0.42286  -0.41140  -0.40962  -0.39633
 Alpha  occ. eigenvalues --   -0.39407  -0.37914
 Alpha virt. eigenvalues --    0.17310   0.18773   0.20168   0.20417   0.21555
 Alpha virt. eigenvalues --    0.23043   0.24345   0.24709   0.25696   0.27233
 Alpha virt. eigenvalues --    0.28240   0.28605   0.28933   0.29677   0.30284

 Mulliken atomic charges:
              1
     1  H    0.206383
     2  C   -0.575130
     3  H    0.172469
     4  H    0.202156
     5  C    0.756548
     6  O   -0.623579
     7  N   -0.824214
     8  H    0.418626
     9  C   -0.035247
    10  H    0.220417
    11  C   -0.488718
    12  H    0.175934
    13  H    0.162506
    14  H    0.211653
    15  C    0.800065
    16  O   -0.639558
    17  N   -0.857104
    18  H    0.417576
    19  C    0.028442
    20  H    0.207363
    21  C   -0.524368
    22  H    0.187726
    23  H    0.166104
    24  H    0.229153
    25  C    0.769824
    26  O   -0.648031
    27  N   -0.843467
    28  H    0.442318
    29  C   -0.031443
    30  H    0.215875
    31  C   -0.486823
    32  H    0.181263
    33  H    0.163196
    34  H    0.211629
    35  C    0.776457
    36  O   -0.628733
    37  N   -0.799377
    38  H    0.391101
    39  C   -0.274162
    40  H    0.204465
    41  H    0.186729
    42  H    0.173975
 Sum of Mulliken atomic charges =   0.00000

 Dipole moment (field-independent basis, Debye):
    X=             -4.3383    Y=              0.4306    Z=              0.0564  Tot=              4.3600
 Quadrupole moment (field-independent basis, Debye-Ang):
   XX=           -105.1353   YY=           -114.9054   ZZ=           -132.2610
   XY=            -11.5303   XZ=             20.7413   YZ=             -1.0000

 Normal termination of Gaussian 09 at Mon Dec 26 17:05:57 2016.
