 Gaussian 09, Revision A.02,
 Gaussian 09:  EM64L-G09RevA.02 11-Jun-2009

 -------------------------------------------------------------------
 # HF/6-31G* Opt=(ModRedundant, maxcycles=1000, calcfc) geom=nocrowd
 -------------------------------------------------------------------

 ------------------
 Phi Psi fixed scan
 ------------------
 Symbolic Z-matrix:
 Charge =  0 Multiplicity = 1

 SCF Done:  E(RHF) =  -984.515100768     A.U. after   15 cycles

  Exact polarizability:   0.000   0.000   0.000   0.000   0.000   0.000
 Approx polarizability: 130.148   4.312 122.165   7.700   6.209 136.751

 SCF Done:  E(RHF) =  -984.529533770     A.U. after   13 cycles
 SCF Done:  E(RHF) =  -984.544514838     A.U. after   15 cycles
 SCF Done:  E(RHF) =  -984.547630243     A.U. after   15 cycles
 SCF Done:  E(RHF) =  -984.538488858     A.U. after   14 cycles
 SCF Done:  E(RHF) =  -984.549527173     A.U. after   14 cycles
 SCF Done:  E(RHF) =  -984.551231889     A.U. after   13 cycles
 SCF Done:  E(RHF) =  -984.551969721     A.U. after   13 cycles
 SCF Done:  E(RHF) =  -984.552910078     A.U. after   13 cycles
 SCF Done:  E(RHF) =  -984.365980167     A.U. after   15 cycles
 SCF Done:  E(RHF) =  -984.554436711     A.U. after   10 cycles
 SCF Done:  E(RHF) =  -984.554437910     A.U. after   10 cycles
 SCF Done:  E(RHF) =  -984.554438346     A.U. after    9 cycles
 SCF Done:  E(RHF) =  -984.554438443     A.U. after    8 cycles
 SCF Done:  E(RHF) =  -984.554438521     A.U. after    9 cycles
 SCF Done:  E(RHF) =  -984.554438535     A.U. after    7 cycles
 SCF Done:  E(RHF) =  -984.554438544     A.U. after    6 cycles
 SCF Done:  E(RHF) =  -984.554438555     A.U. after    6 cycles
 SCF Done:  E(RHF) =  -984.554438558     A.U. after    6 cycles
 SCF Done:  E(RHF) =  -984.554438559     A.U. after    5 cycles
 Optimization completed on the basis of negligible forces.
    -- Stationary point found.

                         Standard orientation:
 ---------------------------------------------------------------------
 Center     Atomic      Atomic             Coordinates (Angstroms)
 Number     Number       Type             X           Y           Z
 ---------------------------------------------------------------------
      1          1           0        6.226821    2.675655    0.418634
      2          6           0        5.261154    2.440659    0.846680
      3          1           0        4.750531    3.376407    1.045659
      4          1           0        5.398737    1.911289    1.781566
      5          6           0        4.456723    1.661230   -0.170950
      6          8           0        4.383761    2.012751   -1.319998
      7          7           0        3.818484    0.569253    0.295626
      8          1           0        3.871137    0.309260    1.254732
      9          6           0        2.965566   -0.238052   -0.541049
     10          1           0        2.419325    0.420448   -1.204067
     11          6           0        3.767214   -1.241915   -1.381557
     12          1           0        4.313925   -1.921276   -0.736666
     13          1           0        3.120995   -1.826154   -2.029248
     14          1           0        4.471148   -0.701767   -2.000488
     15          6           0        1.989572   -0.976073    0.376319
     16          8           0        2.262342   -1.177588    1.530103
     17          7           0        0.852728   -1.371912   -0.235268
     18          1           0        0.806084   -1.217366   -1.218844
     19          6           0       -0.219755   -2.227725    0.275422
     20          1           0       -0.070294   -3.233975   -0.096883
     21          6           0       -0.340635   -2.278381    1.797562
     22          1           0       -0.375555   -1.293883    2.245282
     23          1           0       -1.250581   -2.812138    2.051886
     24          1           0        0.498780   -2.797051    2.232026
     25          6           0       -1.486186   -1.733924   -0.436616
     26          8           0       -1.768025   -2.175821   -1.522524
     27          7           0       -2.191912   -0.762439    0.160425
     28          1           0       -1.915289   -0.379434    1.036612
     29          6           0       -3.341555   -0.151645   -0.465153
     30          1           0       -3.129976   -0.026291   -1.519972
     31          6           0       -4.606047   -1.006398   -0.307780
     32          1           0       -4.845912   -1.132631    0.742220
     33          1           0       -5.455168   -0.546491   -0.802343
     34          1           0       -4.437408   -1.979283   -0.750066
     35          6           0       -3.537910    1.214031    0.188113
     36          8           0       -3.098209    1.453642    1.282772
     37          7           0       -4.263300    2.098375   -0.517733
     38          1           0       -4.512137    1.880263   -1.454476
     39          6           0       -4.538797    3.429688   -0.016079
     40          1           0       -4.920619    3.372351    0.992965
     41          1           0       -3.647416    4.046065   -0.012097
     42          1           0       -5.284127    3.890215   -0.650077
 ---------------------------------------------------------------------

 The electronic state is 1-A.
 Alpha  occ. eigenvalues --  -20.54126 -20.53833 -20.53345 -20.51383 -15.60234
 Alpha  occ. eigenvalues --  -15.60212 -15.59081 -15.57849 -11.36167 -11.36088
 Alpha  occ. eigenvalues --  -11.35447 -11.34282 -11.29096 -11.29014 -11.28092
 Alpha  occ. eigenvalues --  -11.26943 -11.23107 -11.22736 -11.22605 -11.22407
 Alpha  occ. eigenvalues --   -1.41230  -1.40849  -1.39997  -1.38286  -1.25595
 Alpha  occ. eigenvalues --   -1.24995  -1.24498  -1.23444  -1.07869  -1.05289
 Alpha  occ. eigenvalues --   -1.02811  -0.98640  -0.96993  -0.92321  -0.90154
 Alpha  occ. eigenvalues --   -0.87715  -0.81528  -0.79650  -0.79199  -0.78231
 Alpha  occ. eigenvalues --   -0.75513  -0.73022  -0.68695  -0.67835  -0.66880
 Alpha  occ. eigenvalues --   -0.66354  -0.65206  -0.64811  -0.64121  -0.63015
 Alpha  occ. eigenvalues --   -0.62231  -0.61041  -0.60468  -0.59869  -0.58700
 Alpha  occ. eigenvalues --   -0.57793  -0.56921  -0.56708  -0.56627  -0.55832
 Alpha  occ. eigenvalues --   -0.54975  -0.54608  -0.54181  -0.53807  -0.53520
 Alpha  occ. eigenvalues --   -0.52707  -0.52403  -0.51023  -0.49456  -0.44039
 Alpha  occ. eigenvalues --   -0.43447  -0.42513  -0.41205  -0.40908  -0.39915
 Alpha  occ. eigenvalues --   -0.39093  -0.38215
 Alpha virt. eigenvalues --    0.17561   0.18689   0.20200   0.20518   0.21148
 Alpha virt. eigenvalues --    0.21979   0.23928   0.24390   0.25745   0.27346
 Alpha virt. eigenvalues --    0.27832   0.28283   0.28850   0.29482   0.30325

 Mulliken atomic charges:
              1
     1  H    0.206483
     2  C   -0.574783
     3  H    0.203847
     4  H    0.172623
     5  C    0.756930
     6  O   -0.623663
     7  N   -0.823525
     8  H    0.419125
     9  C   -0.036988
    10  H    0.219647
    11  C   -0.488542
    12  H    0.178317
    13  H    0.159259
    14  H    0.213414
    15  C    0.798874
    16  O   -0.631750
    17  N   -0.854542
    18  H    0.404568
    19  C    0.018262
    20  H    0.213302
    21  C   -0.505909
    22  H    0.183881
    23  H    0.171032
    24  H    0.217515
    25  C    0.749764
    26  O   -0.630840
    27  N   -0.828982
    28  H    0.436063
    29  C   -0.031724
    30  H    0.211900
    31  C   -0.485703
    32  H    0.181275
    33  H    0.161598
    34  H    0.210431
    35  C    0.775613
    36  O   -0.628056
    37  N   -0.799422
    38  H    0.390516
    39  C   -0.273628
    40  H    0.203906
    41  H    0.186670
    42  H    0.173241
 Sum of Mulliken atomic charges =   0.00000

 Dipole moment (field-independent basis, Debye):
    X=             -3.4873    Y=              0.6654    Z=             -0.0394  Tot=              3.5504
 Quadrupole moment (field-independent basis, Debye-Ang):
   XX=           -104.8028   YY=           -119.4684   ZZ=           -129.4396
   XY=            -13.9609   XZ=             14.9888   YZ=             -1.9442

 Normal termination of Gaussian 09 at Mon Dec 26 19:11:13 2016.
