 Gaussian 09, Revision A.02,
 Gaussian 09:  EM64L-G09RevA.02 11-Jun-2009

 -------------------
 #SP MP2/aug-cc-pVDZ
 -------------------

 -------------------------------
 Single Point calculation at MP2
 -------------------------------
 Symbolic Z-matrix:
 Charge =  0 Multiplicity = 1

                         Standard orientation:
 ---------------------------------------------------------------------
 Center     Atomic      Atomic             Coordinates (Angstroms)
 Number     Number       Type             X           Y           Z
 ---------------------------------------------------------------------
      1          1           0       -4.021691   -1.251605   -0.766909
      2          6           0       -3.348491   -1.158506    0.090391
      3          1           0       -2.889793   -2.131106    0.292991
      4          1           0       -3.957391   -0.866205    0.952191
      5          6           0       -2.340890   -0.053607   -0.197109
      6          8           0       -2.693688    1.075293   -0.527909
      7          7           0       -1.032290   -0.416309   -0.082309
      8          1           0       -0.764792   -1.327509    0.274091
      9          6           0        0.069711    0.521190   -0.191209
     10          1           0        0.060512    0.972990   -1.192209
     11          6           0        0.001213    1.648590    0.861291
     12          1           0        0.056812    1.227290    1.870691
     13          1           0        0.828314    2.356589    0.736191
     14          1           0       -0.941887    2.185191    0.746491
     15          6           0        1.357210   -0.301712   -0.001209
     16          8           0        1.332908   -1.430912    0.483391
     17          7           0        2.501311    0.326586   -0.380709
     18          1           0        2.430112    1.248686   -0.787109
     19          6           0        3.819410   -0.265516   -0.226009
     20          1           0        3.684209   -1.254215    0.213591
     21          1           0        4.319910   -0.369316   -1.195509
     22          1           0        4.449811    0.339584    0.435891
 ---------------------------------------------------------------------

 SCF Done:  E(RHF) =  -492.927316643     A.U. after   14 cycles
 E2 =    -0.1600909812D+01 EUMP2 =    -0.49452822645530D+03

 The electronic state is 1-A.
 Alpha  occ. eigenvalues --  -20.54549 -20.52294 -15.60820 -15.58804 -11.37319
 Alpha  occ. eigenvalues --  -11.35747 -11.29671 -11.27790 -11.24122 -11.23488
 Alpha  occ. eigenvalues --   -1.40036  -1.37620  -1.24658  -1.23420  -1.05584
 Alpha  occ. eigenvalues --   -0.98946  -0.96259  -0.88758  -0.80717  -0.77963
 Alpha  occ. eigenvalues --   -0.73059  -0.67716  -0.66085  -0.64542  -0.63316
 Alpha  occ. eigenvalues --   -0.61773  -0.60121  -0.58508  -0.56585  -0.56330
 Alpha  occ. eigenvalues --   -0.55715  -0.54699  -0.52800  -0.52264  -0.49392
 Alpha  occ. eigenvalues --   -0.43760  -0.41829  -0.40862  -0.38680
 Alpha virt. eigenvalues --    0.02766   0.03994   0.04266   0.04445   0.05777
 Alpha virt. eigenvalues --    0.06059   0.06497   0.06920   0.07422   0.08040
 Alpha virt. eigenvalues --    0.09170   0.09299   0.11006   0.12381   0.13149

 Mulliken atomic charges:
              1
     1  H    0.042360
     2  C    0.332857
     3  H   -0.170097
     4  H    0.053483
     5  C    0.479058
     6  O   -0.878498
     7  N   -0.218676
     8  H   -0.050026
     9  C   -0.168238
    10  H   -0.186520
    11  C    0.726848
    12  H   -0.022926
    13  H   -0.091121
    14  H   -0.025414
    15  C    1.309739
    16  O   -0.896198
    17  N   -0.510388
    18  H   -0.117054
    19  C    0.709776
    20  H   -0.138031
    21  H   -0.084961
    22  H   -0.095973
 Sum of Mulliken atomic charges =   0.00000

 Dipole moment (field-independent basis, Debye):
    X=              3.1370    Y=              0.2198    Z=             -0.1714  Tot=              3.1494
 Quadrupole moment (field-independent basis, Debye-Ang):
   XX=            -56.8063   YY=            -64.5043   ZZ=            -61.6040
   XY=             14.4606   XZ=             -6.4709   YZ=              1.7176

 Normal termination of Gaussian 09 at Mon Feb 13 01:39:15 2017.
