 Gaussian 09, Revision A.02,
 Gaussian 09:  EM64L-G09RevA.02 11-Jun-2009

 -------------------
 #SP MP2/aug-cc-pVDZ
 -------------------

 -------------------------------
 Single Point calculation at MP2
 -------------------------------
 Symbolic Z-matrix:
 Charge =  0 Multiplicity = 1

                         Standard orientation:
 ---------------------------------------------------------------------
 Center     Atomic      Atomic             Coordinates (Angstroms)
 Number     Number       Type             X           Y           Z
 ---------------------------------------------------------------------
      1          1           0       -3.899105   -1.676918   -0.171309
      2          6           0       -3.150906   -1.291016    0.525191
      3          1           0       -2.618103   -2.128215    0.986791
      4          1           0       -3.682507   -0.739817    1.309591
      5          6           0       -2.235108   -0.332414   -0.223009
      6          8           0       -2.655610    0.454185   -1.061609
      7          7           0       -0.899608   -0.436910    0.089091
      8          1           0       -0.669207   -0.913009    0.954391
      9          6           0        0.052489    0.618492   -0.283509
     10          1           0        0.041589    0.691392   -1.376709
     11          6           0       -0.285114    1.987792    0.321091
     12          1           0       -0.228214    1.934892    1.411791
     13          1           0        0.432984    2.741493   -0.022609
     14          1           0       -1.286415    2.293289    0.012191
     15          6           0        1.420991    0.141496    0.231091
     16          8           0        1.668191    0.125897    1.433491
     17          7           0        2.277092   -0.321002   -0.720609
     18          1           0        1.983692   -0.287302   -1.686209
     19          6           0        3.595993   -0.844398   -0.408409
     20          1           0        3.712793   -0.805998    0.675291
     21          1           0        3.696296   -1.882598   -0.745309
     22          1           0        4.383092   -0.242196   -0.877009
 ---------------------------------------------------------------------

 SCF Done:  E(RHF) =  -492.923361320     A.U. after   14 cycles
 E2 =    -0.1601538357D+01 EUMP2 =    -0.49452489967677D+03

 The electronic state is 1-A.
 Alpha  occ. eigenvalues --  -20.53936 -20.53403 -15.60725 -15.59830 -11.36828
 Alpha  occ. eigenvalues --  -11.36477 -11.29417 -11.27548 -11.24822 -11.22458
 Alpha  occ. eigenvalues --   -1.39491  -1.38565  -1.24519  -1.23590  -1.05348
 Alpha  occ. eigenvalues --   -0.99202  -0.96570  -0.87912  -0.79930  -0.78617
 Alpha  occ. eigenvalues --   -0.73067  -0.67300  -0.66288  -0.64428  -0.62918
 Alpha  occ. eigenvalues --   -0.62079  -0.60495  -0.58620  -0.57074  -0.56509
 Alpha  occ. eigenvalues --   -0.55444  -0.54150  -0.52331  -0.51564  -0.49844
 Alpha  occ. eigenvalues --   -0.43493  -0.42680  -0.40462  -0.39558
 Alpha virt. eigenvalues --    0.02811   0.03704   0.04482   0.04589   0.05639
 Alpha virt. eigenvalues --    0.05936   0.06247   0.06975   0.07663   0.08088
 Alpha virt. eigenvalues --    0.09068   0.09328   0.11065   0.11981   0.12685

 Mulliken atomic charges:
              1
     1  H    0.009506
     2  C    0.358574
     3  H   -0.108608
     4  H    0.054146
     5  C    0.607765
     6  O   -0.856165
     7  N   -0.276105
     8  H   -0.030689
     9  C   -0.061431
    10  H   -0.303422
    11  C    0.700688
    12  H    0.008567
    13  H   -0.061403
    14  H   -0.022334
    15  C    1.069137
    16  O   -0.856603
    17  N   -0.501965
    18  H   -0.106024
    19  C    0.715895
    20  H   -0.146593
    21  H   -0.104875
    22  H   -0.088062
 Sum of Mulliken atomic charges =   0.00000

 Dipole moment (field-independent basis, Debye):
    X=              1.8541    Y=             -2.1002    Z=             -0.8973  Tot=              2.9417
 Quadrupole moment (field-independent basis, Debye-Ang):
   XX=            -60.5050   YY=            -59.1447   ZZ=            -64.9145
   XY=              3.7918   XZ=            -15.2218   YZ=             -0.0293

 Normal termination of Gaussian 09 at Mon Feb 13 00:43:05 2017.
