 Gaussian 09, Revision A.02,
 Gaussian 09:  EM64L-G09RevA.02 11-Jun-2009

 -------------------
 #SP MP2/aug-cc-pVDZ
 -------------------

 -------------------------------
 Single Point calculation at MP2
 -------------------------------
 Symbolic Z-matrix:
 Charge =  0 Multiplicity = 1

                         Standard orientation:
 ---------------------------------------------------------------------
 Center     Atomic      Atomic             Coordinates (Angstroms)
 Number     Number       Type             X           Y           Z
 ---------------------------------------------------------------------
      1          1           0       -3.862404   -1.664628    0.041794
      2          6           0       -2.981705   -1.389824    0.625794
      3          1           0       -2.399801   -2.288521    0.854994
      4          1           0       -3.329107   -0.953426    1.570194
      5          6           0       -2.187210   -0.347120   -0.148106
      6          8           0       -2.718914    0.472077   -0.881306
      7          7           0       -0.814810   -0.417714    0.017694
      8          1           0       -0.516107   -0.932713    0.839494
      9          6           0        0.042885    0.736490   -0.310506
     10          1           0       -0.063116    0.910489   -1.388706
     11          6           0       -0.340921    2.018888    0.436094
     12          1           0       -0.269820    1.871388    1.519594
     13          1           0        0.347975    2.821491    0.164594
     14          1           0       -1.360822    2.307483    0.176194
     15          6           0        1.518787    0.382597   -0.032006
     16          8           0        2.333083    1.232101    0.301894
     17          7           0        1.836393   -0.940302   -0.185106
     18          1           0        1.142196   -1.535305   -0.617606
     19          6           0        3.207895   -1.414395   -0.097106
     20          1           0        3.770292   -0.698793    0.503994
     21          1           0        3.236700   -2.397795    0.382594
     22          1           0        3.681195   -1.486793   -1.084906
 ---------------------------------------------------------------------

 SCF Done:  E(RHF) =  -492.920629521     A.U. after   14 cycles
 E2 =    -0.1602250894D+01 EUMP2 =    -0.49452288041491D+03

 The electronic state is 1-A.
 Alpha  occ. eigenvalues --  -20.54358 -20.53780 -15.60643 -15.60143 -11.37261
 Alpha  occ. eigenvalues --  -11.36666 -11.29556 -11.27382 -11.25646 -11.22158
 Alpha  occ. eigenvalues --   -1.39741  -1.39104  -1.25531  -1.22847  -1.05475
 Alpha  occ. eigenvalues --   -0.99596  -0.96541  -0.87624  -0.79969  -0.78605
 Alpha  occ. eigenvalues --   -0.73473  -0.67786  -0.65594  -0.65423  -0.62740
 Alpha  occ. eigenvalues --   -0.62568  -0.60314  -0.59459  -0.57799  -0.56133
 Alpha  occ. eigenvalues --   -0.55382  -0.53875  -0.52582  -0.51677  -0.49869
 Alpha  occ. eigenvalues --   -0.43940  -0.42887  -0.40909  -0.39884
 Alpha virt. eigenvalues --    0.02318   0.03715   0.04264   0.04632   0.05537
 Alpha virt. eigenvalues --    0.05956   0.06545   0.06933   0.07015   0.08221
 Alpha virt. eigenvalues --    0.08540   0.08965   0.10877   0.11960   0.13090

 Mulliken atomic charges:
              1
     1  H   -0.002030
     2  C    0.324881
     3  H   -0.085144
     4  H    0.050265
     5  C    0.510734
     6  O   -0.834853
     7  N   -0.322545
     8  H    0.010484
     9  C   -0.183520
    10  H   -0.121543
    11  C    0.678732
    12  H   -0.056828
    13  H   -0.039560
    14  H   -0.011330
    15  C    1.093556
    16  O   -0.818893
    17  N   -0.537869
    18  H   -0.077327
    19  C    0.756886
    20  H   -0.120252
    21  H   -0.140720
    22  H   -0.073125
 Sum of Mulliken atomic charges =   0.00000

 Dipole moment (field-independent basis, Debye):
    X=              0.0158    Y=             -4.8490    Z=              1.3785  Tot=              5.0411
 Quadrupole moment (field-independent basis, Debye-Ang):
   XX=            -70.0933   YY=            -59.7831   ZZ=            -61.2213
   XY=             -2.4231   XZ=             -9.0345   YZ=             -0.5935

 Normal termination of Gaussian 09 at Mon Feb 13 01:47:10 2017.
