 Gaussian 09, Revision A.02,
 Gaussian 09:  EM64L-G09RevA.02 11-Jun-2009

 -------------------
 #SP MP2/aug-cc-pVDZ
 -------------------

 -------------------------------
 Single Point calculation at MP2
 -------------------------------
 Symbolic Z-matrix:
 Charge =  0 Multiplicity = 1

                         Standard orientation:
 ---------------------------------------------------------------------
 Center     Atomic      Atomic             Coordinates (Angstroms)
 Number     Number       Type             X           Y           Z
 ---------------------------------------------------------------------
      1          1           0       -3.986090   -1.463818   -0.570801
      2          6           0       -3.223690   -1.298016    0.194199
      3          1           0       -2.726188   -2.245515    0.423299
      4          1           0       -3.733091   -0.943517    1.097799
      5          6           0       -2.267693   -0.218714   -0.294101
      6          8           0       -2.654496    0.770885   -0.904401
      7          7           0       -0.941792   -0.448610   -0.024001
      8          1           0       -0.715291   -1.142510    0.680199
      9          6           0        0.059605    0.612892   -0.148401
     10          1           0        0.059004    0.946592   -1.192101
     11          6           0       -0.211498    1.816992    0.768999
     12          1           0       -0.178298    1.499992    1.815499
     13          1           0        0.550300    2.590994    0.618399
     14          1           0       -1.191099    2.240689    0.540099
     15          6           0        1.399006   -0.032804    0.234399
     16          8           0        1.542808   -0.559104    1.335099
     17          7           0        2.360806   -0.018602   -0.727001
     18          1           0        2.148905    0.421698   -1.610801
     19          6           0        3.688008   -0.574398   -0.523501
     20          1           0        3.707309   -1.013598    0.474699
     21          1           0        3.903610   -1.352697   -1.264201
     22          1           0        4.458906    0.202204   -0.590201
 ---------------------------------------------------------------------

 SCF Done:  E(RHF) =  -492.925147345     A.U. after   14 cycles
 E2 =    -0.1601277118D+01 EUMP2 =    -0.49452642446335D+03

 The electronic state is 1-A.
 Alpha  occ. eigenvalues --  -20.53981 -20.53123 -15.60891 -15.59490 -11.36929
 Alpha  occ. eigenvalues --  -11.36244 -11.29419 -11.27637 -11.24599 -11.22779
 Alpha  occ. eigenvalues --   -1.39562  -1.38309  -1.24503  -1.23589  -1.05389
 Alpha  occ. eigenvalues --   -0.99121  -0.96553  -0.88102  -0.80176  -0.78429
 Alpha  occ. eigenvalues --   -0.73045  -0.67352  -0.66216  -0.64161  -0.63169
 Alpha  occ. eigenvalues --   -0.61990  -0.60455  -0.58484  -0.56963  -0.56526
 Alpha  occ. eigenvalues --   -0.55551  -0.54322  -0.52283  -0.51790  -0.49772
 Alpha  occ. eigenvalues --   -0.43536  -0.42516  -0.40324  -0.39498
 Alpha virt. eigenvalues --    0.02824   0.03825   0.04476   0.04514   0.05658
 Alpha virt. eigenvalues --    0.05966   0.06348   0.06959   0.07696   0.08115
 Alpha virt. eigenvalues --    0.09173   0.09257   0.11058   0.12068   0.12847

 Mulliken atomic charges:
              1
     1  H    0.009055
     2  C    0.348784
     3  H   -0.111205
     4  H    0.054434
     5  C    0.624816
     6  O   -0.860514
     7  N   -0.228027
     8  H   -0.036036
     9  C   -0.137453
    10  H   -0.305311
    11  C    0.731300
    12  H    0.003477
    13  H   -0.069445
    14  H   -0.030587
    15  C    1.101268
    16  O   -0.868300
    17  N   -0.511555
    18  H   -0.104677
    19  C    0.723829
    20  H   -0.145839
    21  H   -0.098547
    22  H   -0.089468
 Sum of Mulliken atomic charges =   0.00000

 Dipole moment (field-independent basis, Debye):
    X=              2.2731    Y=             -1.1039    Z=             -1.2029  Tot=              2.7987
 Quadrupole moment (field-independent basis, Debye-Ang):
   XX=            -58.5911   YY=            -60.5097   ZZ=            -64.3388
   XY=              9.1474   XZ=            -13.1662   YZ=              2.0081

 Normal termination of Gaussian 09 at Mon Feb 13 01:05:09 2017.
