 Gaussian 09, Revision A.02,
 Gaussian 09:  EM64L-G09RevA.02 11-Jun-2009

 -------------------
 #SP MP2/aug-cc-pVDZ
 -------------------

 -------------------------------
 Single Point calculation at MP2
 -------------------------------
 Symbolic Z-matrix:
 Charge =  0 Multiplicity = 1

                         Standard orientation:
 ---------------------------------------------------------------------
 Center     Atomic      Atomic             Coordinates (Angstroms)
 Number     Number       Type             X           Y           Z
 ---------------------------------------------------------------------
      1          1           0       -4.008003   -1.257195   -0.839491
      2          6           0       -3.331003   -1.184296    0.016509
      3          1           0       -2.871005   -2.160997    0.194909
      4          1           0       -3.935802   -0.912495    0.888209
      5          6           0       -2.324300   -0.073699   -0.249891
      6          8           0       -2.673698    1.050002   -0.599091
      7          7           0       -1.013701   -0.426102   -0.099991
      8          1           0       -0.764403   -1.305402    0.339909
      9          6           0        0.068701    0.544696   -0.126391
     10          1           0        0.068902    1.042296   -1.104091
     11          6           0       -0.051796    1.615296    0.978209
     12          1           0       -0.021297    1.141496    1.964909
     13          1           0        0.772605    2.334594    0.912909
     14          1           0       -0.996795    2.148498    0.860209
     15          6           0        1.366099   -0.252807    0.075409
     16          8           0        1.379797   -1.283907    0.744009
     17          7           0        2.469501    0.275091   -0.517691
     18          1           0        2.363403    1.118791   -1.062991
     19          6           0        3.798199   -0.294212   -0.365291
     20          1           0        3.695997   -1.208312    0.220509
     21          1           0        4.231999   -0.538613   -1.341291
     22          1           0        4.469601    0.395786    0.159409
 ---------------------------------------------------------------------

 SCF Done:  E(RHF) =  -492.927528087     A.U. after   14 cycles
 E2 =    -0.1600945583D+01 EUMP2 =    -0.49452847367008D+03

 The electronic state is 1-A.
 Alpha  occ. eigenvalues --  -20.54352 -20.52506 -15.60896 -15.58974 -11.37185
 Alpha  occ. eigenvalues --  -11.35865 -11.29552 -11.27761 -11.24242 -11.23329
 Alpha  occ. eigenvalues --   -1.39872  -1.37795  -1.24617  -1.23464  -1.05535
 Alpha  occ. eigenvalues --   -0.98997  -0.96389  -0.88523  -0.80579  -0.78130
 Alpha  occ. eigenvalues --   -0.73040  -0.67610  -0.66096  -0.64067  -0.63503
 Alpha  occ. eigenvalues --   -0.61833  -0.60311  -0.58469  -0.56683  -0.56407
 Alpha  occ. eigenvalues --   -0.55699  -0.54620  -0.52492  -0.52247  -0.49474
 Alpha  occ. eigenvalues --   -0.43726  -0.42030  -0.40667  -0.38913
 Alpha virt. eigenvalues --    0.02791   0.03967   0.04328   0.04455   0.05730
 Alpha virt. eigenvalues --    0.06076   0.06497   0.06946   0.07500   0.08089
 Alpha virt. eigenvalues --    0.09036   0.09229   0.11062   0.12228   0.13080

 Mulliken atomic charges:
              1
     1  H    0.037220
     2  C    0.329622
     3  H   -0.160841
     4  H    0.053417
     5  C    0.503178
     6  O   -0.870504
     7  N   -0.200566
     8  H   -0.039845
     9  C   -0.292012
    10  H   -0.251087
    11  C    0.760771
    12  H   -0.005695
    13  H   -0.072587
    14  H   -0.017183
    15  C    1.324398
    16  O   -0.897406
    17  N   -0.493305
    18  H   -0.110684
    19  C    0.723362
    20  H   -0.140842
    21  H   -0.089541
    22  H   -0.089871
 Sum of Mulliken atomic charges =   0.00000

 Dipole moment (field-independent basis, Debye):
    X=              2.9127    Y=              0.0075    Z=             -0.5889  Tot=              2.9716
 Quadrupole moment (field-independent basis, Debye-Ang):
   XX=            -56.8365   YY=            -63.8092   ZZ=            -62.0906
   XY=             13.8669   XZ=             -8.0611   YZ=              2.2718

 Normal termination of Gaussian 09 at Mon Feb 13 00:54:09 2017.
