 Gaussian 09, Revision A.02,
 Gaussian 09:  EM64L-G09RevA.02 11-Jun-2009

 -------------------
 #SP MP2/aug-cc-pVDZ
 -------------------

 -------------------------------
 Single Point calculation at MP2
 -------------------------------
 Symbolic Z-matrix:
 Charge =  0 Multiplicity = 1

                         Standard orientation:
 ---------------------------------------------------------------------
 Center     Atomic      Atomic             Coordinates (Angstroms)
 Number     Number       Type             X           Y           Z
 ---------------------------------------------------------------------
      1          1           0       -3.869985   -0.850037    1.265995
      2          6           0       -3.276482   -1.191732    0.412295
      3          1           0       -3.973180   -1.398138   -0.406305
      4          1           0       -2.760974   -2.117327    0.685595
      5          6           0       -2.340192   -0.067223   -0.013105
      6          8           0       -2.770602    1.036873   -0.335105
      7          7           0       -1.015289   -0.390512   -0.000405
      8          1           0       -0.727780   -1.356709    0.106895
      9          6           0        0.064003    0.493798   -0.422005
     10          1           0       -0.022598    0.692597   -1.502705
     11          6           0        0.041591    1.839898    0.319295
     12          1           0        0.249593    1.706200    1.386395
     13          1           0        0.773285    2.538104   -0.106205
     14          1           0       -0.946213    2.286889    0.205895
     15          6           0        1.357811   -0.330891   -0.217905
     16          8           0        1.332221   -1.557291   -0.312205
     17          7           0        2.485004    0.364719    0.076895
     18          1           0        2.427696    1.367919    0.161395
     19          6           0        3.779210   -0.274269    0.249195
     20          1           0        3.628220   -1.350870    0.166995
     21          1           0        4.487307    0.050137   -0.522305
     22          1           0        4.198008   -0.042365    1.234795
 ---------------------------------------------------------------------

 SCF Done:  E(RHF) =  -492.922840775     A.U. after   14 cycles
 E2 =    -0.1601926534D+01 EUMP2 =    -0.49452476730841D+03

 The electronic state is 1-A.
 Alpha  occ. eigenvalues --  -20.54247 -20.52408 -15.60859 -15.58996 -11.37332
 Alpha  occ. eigenvalues --  -11.35890 -11.29972 -11.27736 -11.24137 -11.23610
 Alpha  occ. eigenvalues --   -1.39889  -1.37694  -1.24659  -1.23477  -1.05716
 Alpha  occ. eigenvalues --   -0.98945  -0.96071  -0.89434  -0.80766  -0.77479
 Alpha  occ. eigenvalues --   -0.73109  -0.67766  -0.66413  -0.65676  -0.62765
 Alpha  occ. eigenvalues --   -0.61712  -0.59427  -0.58685  -0.56502  -0.56278
 Alpha  occ. eigenvalues --   -0.55404  -0.54660  -0.53462  -0.52594  -0.49566
 Alpha  occ. eigenvalues --   -0.43711  -0.41624  -0.40600  -0.39015
 Alpha virt. eigenvalues --    0.02774   0.03938   0.04301   0.04484   0.05846
 Alpha virt. eigenvalues --    0.06071   0.06360   0.06615   0.07371   0.07959
 Alpha virt. eigenvalues --    0.09434   0.10185   0.11250   0.11847   0.13291

 Mulliken atomic charges:
              1
     1  H    0.047226
     2  C    0.375083
     3  H    0.046912
     4  H   -0.175649
     5  C    0.496950
     6  O   -0.876462
     7  N   -0.270544
     8  H   -0.061198
     9  C    0.008848
    10  H   -0.036016
    11  C    0.706855
    12  H   -0.024886
    13  H   -0.013668
    14  H   -0.140808
    15  C    1.099091
    16  O   -0.911515
    17  N   -0.540890
    18  H   -0.115247
    19  C    0.735386
    20  H   -0.155095
    21  H   -0.094092
    22  H   -0.100280
 Sum of Mulliken atomic charges =   0.00000

 Dipole moment (field-independent basis, Debye):
    X=              3.2185    Y=              0.5138    Z=              1.2008  Tot=              3.4735
 Quadrupole moment (field-independent basis, Debye-Ang):
   XX=            -58.1897   YY=            -64.6118   ZZ=            -61.1429
   XY=             14.7934   XZ=             -1.5901   YZ=             -0.5784

 Normal termination of Gaussian 09 at Mon Feb 13 01:20:50 2017.
