 Gaussian 09, Revision A.02,
 Gaussian 09:  EM64L-G09RevA.02 11-Jun-2009

 -------------------
 #SP MP2/aug-cc-pVDZ
 -------------------

 -------------------------------
 Single Point calculation at MP2
 -------------------------------
 Symbolic Z-matrix:
 Charge =  0 Multiplicity = 1

                         Standard orientation:
 ---------------------------------------------------------------------
 Center     Atomic      Atomic             Coordinates (Angstroms)
 Number     Number       Type             X           Y           Z
 ---------------------------------------------------------------------
      1          1           0       -4.009501   -1.334075   -0.524604
      2          6           0       -3.316001   -1.169377    0.305796
      3          1           0       -2.825504   -2.115079    0.555796
      4          1           0       -3.909400   -0.839276    1.164296
      5          6           0       -2.348598   -0.056680   -0.077604
      6          8           0       -2.748294    1.056421   -0.409904
      7          7           0       -1.030899   -0.397084   -0.024704
      8          1           0       -0.741701   -1.350985    0.161396
      9          6           0        0.068004    0.499013   -0.343504
     10          1           0        0.016505    0.782513   -1.406704
     11          6           0        0.037508    1.784213    0.504896
     12          1           0        0.217107    1.558612    1.561096
     13          1           0        0.787610    2.509311    0.166696
     14          1           0       -0.943391    2.249016    0.399196
     15          6           0        1.354702   -0.335091   -0.137504
     16          8           0        1.307298   -1.559891   -0.037104
     17          7           0        2.514304    0.367805   -0.068704
     18          1           0        2.476907    1.372306   -0.154604
     19          6           0        3.813502   -0.268198    0.075296
     20          1           0        3.643799   -1.336698    0.209896
     21          1           0        4.433302   -0.112900   -0.815804
     22          1           0        4.343703    0.126700    0.948996
 ---------------------------------------------------------------------

 SCF Done:  E(RHF) =  -492.924446334     A.U. after   14 cycles
 E2 =    -0.1601524917D+01 EUMP2 =    -0.49452597125046D+03

 The electronic state is 1-A.
 Alpha  occ. eigenvalues --  -20.54494 -20.52238 -15.60804 -15.58796 -11.37411
 Alpha  occ. eigenvalues --  -11.35753 -11.29938 -11.27767 -11.24059 -11.23643
 Alpha  occ. eigenvalues --   -1.40065  -1.37559  -1.24672  -1.23409  -1.05656
 Alpha  occ. eigenvalues --   -0.98900  -0.96090  -0.89267  -0.80848  -0.77569
 Alpha  occ. eigenvalues --   -0.73119  -0.67717  -0.66242  -0.65526  -0.62900
 Alpha  occ. eigenvalues --   -0.61708  -0.59650  -0.58609  -0.56504  -0.56336
 Alpha  occ. eigenvalues --   -0.55453  -0.54729  -0.53282  -0.52407  -0.49448
 Alpha  occ. eigenvalues --   -0.43756  -0.41616  -0.40826  -0.38752
 Alpha virt. eigenvalues --    0.02754   0.03983   0.04262   0.04452   0.05899
 Alpha virt. eigenvalues --    0.06002   0.06417   0.06623   0.07478   0.07936
 Alpha virt. eigenvalues --    0.09392   0.10425   0.11173   0.11974   0.13144

 Mulliken atomic charges:
              1
     1  H    0.044770
     2  C    0.366662
     3  H   -0.177689
     4  H    0.051303
     5  C    0.484421
     6  O   -0.881523
     7  N   -0.234304
     8  H   -0.061746
     9  C    0.050732
    10  H   -0.072754
    11  C    0.672168
    12  H   -0.032933
    13  H   -0.081264
    14  H   -0.073264
    15  C    1.118472
    16  O   -0.892768
    17  N   -0.525197
    18  H   -0.111861
    19  C    0.705829
    20  H   -0.151948
    21  H   -0.093749
    22  H   -0.103357
 Sum of Mulliken atomic charges =   0.00000

 Dipole moment (field-independent basis, Debye):
    X=              3.3194    Y=              0.4687    Z=              0.7196  Tot=              3.4287
 Quadrupole moment (field-independent basis, Debye-Ang):
   XX=            -57.5358   YY=            -64.7813   ZZ=            -61.2033
   XY=             14.8134   XZ=             -3.4049   YZ=              0.3254

 Normal termination of Gaussian 09 at Mon Feb 13 00:04:19 2017.
