 Gaussian 09, Revision A.02,
 Gaussian 09:  EM64L-G09RevA.02 11-Jun-2009

 -------------------
 #SP MP2/aug-cc-pVDZ
 -------------------

 -------------------------------
 Single Point calculation at MP2
 -------------------------------
 Symbolic Z-matrix:
 Charge =  0 Multiplicity = 1

                         Standard orientation:
 ---------------------------------------------------------------------
 Center     Atomic      Atomic             Coordinates (Angstroms)
 Number     Number       Type             X           Y           Z
 ---------------------------------------------------------------------
      1          1           0       -3.828727   -1.723472    0.180890
      2          6           0       -2.993024   -1.331679    0.764490
      3          1           0       -2.402830   -2.163983    1.161590
      4          1           0       -3.409519   -0.769175    1.608690
      5          6           0       -2.182216   -0.389685   -0.114810
      6          8           0       -2.695510    0.306319   -0.978810
      7          7           0       -0.821816   -0.400396    0.116990
      8          1           0       -0.530419   -0.822798    0.991190
      9          6           0        0.043893    0.691497   -0.369710
     10          1           0       -0.016507    0.679198   -1.464510
     11          6           0       -0.368796    2.072400    0.143290
     12          1           0       -0.298496    2.114600    1.234090
     13          1           0        0.302510    2.835995   -0.259710
     14          1           0       -1.390794    2.291109   -0.171310
     15          6           0        1.490990    0.362885    0.059990
     16          8           0        2.151596    1.102980    0.776290
     17          7           0        1.960681   -0.816918   -0.444210
     18          1           0        1.327876   -1.378513   -0.997410
     19          6           0        3.293577   -1.321629   -0.167010
     20          1           0        3.811283   -0.566233    0.425590
     21          1           0        3.258969   -2.259929    0.400290
     22          1           0        3.849375   -1.492733   -1.096110
 ---------------------------------------------------------------------

 SCF Done:  E(RHF) =  -492.920389333     A.U. after   14 cycles
 E2 =    -0.1601895655D+01 EUMP2 =    -0.49452228498853D+03

 The electronic state is 1-A.
 Alpha  occ. eigenvalues --  -20.54058 -20.53965 -15.60595 -15.60072 -11.37076
 Alpha  occ. eigenvalues --  -11.36663 -11.29507 -11.27388 -11.25459 -11.21940
 Alpha  occ. eigenvalues --   -1.39572  -1.39057  -1.25175  -1.23052  -1.05423
 Alpha  occ. eigenvalues --   -0.99472  -0.96567  -0.87525  -0.79591  -0.78954
 Alpha  occ. eigenvalues --   -0.73234  -0.67500  -0.66221  -0.65373  -0.62634
 Alpha  occ. eigenvalues --   -0.62223  -0.60567  -0.59265  -0.57528  -0.56033
 Alpha  occ. eigenvalues --   -0.55235  -0.53532  -0.52645  -0.51704  -0.49913
 Alpha  occ. eigenvalues --   -0.43842  -0.42732  -0.41173  -0.39276
 Alpha virt. eigenvalues --    0.02453   0.03651   0.04329   0.04621   0.05536
 Alpha virt. eigenvalues --    0.05898   0.06441   0.07063   0.07149   0.08160
 Alpha virt. eigenvalues --    0.08509   0.08972   0.10979   0.11809   0.12894

 Mulliken atomic charges:
              1
     1  H   -0.000476
     2  C    0.323530
     3  H   -0.092485
     4  H    0.052587
     5  C    0.530431
     6  O   -0.836475
     7  N   -0.416201
     8  H   -0.015414
     9  C   -0.082888
    10  H   -0.186079
    11  C    0.680923
    12  H   -0.020236
    13  H   -0.061892
    14  H   -0.012240
    15  C    1.156977
    16  O   -0.812516
    17  N   -0.528193
    18  H   -0.076155
    19  C    0.745996
    20  H   -0.148014
    21  H   -0.096489
    22  H   -0.104691
 Sum of Mulliken atomic charges =   0.00000

 Dipole moment (field-independent basis, Debye):
    X=              0.4836    Y=             -4.2842    Z=              0.7749  Tot=              4.3805
 Quadrupole moment (field-independent basis, Debye-Ang):
   XX=            -67.9132   YY=            -59.4560   ZZ=            -62.2626
   XY=             -2.3604   XZ=            -12.0959   YZ=             -1.8603

 Normal termination of Gaussian 09 at Mon Feb 13 02:04:14 2017.
