 Gaussian 09, Revision A.02,
 Gaussian 09:  EM64L-G09RevA.02 11-Jun-2009

 ----------------------------------------------------------------------
 # b3lyp/6-31G* Opt=(ModRedundant, maxcycles=1000, calcfc) geom=nocrowd
 ----------------------------------------------------------------------

 ------------------
 Phi Psi fixed scan
 ------------------
 Symbolic Z-matrix:
 Charge =  0 Multiplicity = 1

 SCF Done:  E(RB3LYP) =  -495.837484926     A.U. after   14 cycles

  Exact polarizability:   0.000   0.000   0.000   0.000   0.000   0.000
 Approx polarizability: 123.042   1.605 124.524   6.926  -8.210  88.279

 SCF Done:  E(RB3LYP) =  -495.842020349     A.U. after   12 cycles
 SCF Done:  E(RB3LYP) =  -495.847049983     A.U. after   12 cycles
 SCF Done:  E(RB3LYP) =  -495.848612480     A.U. after   12 cycles
 SCF Done:  E(RB3LYP) =  -495.849180674     A.U. after   12 cycles
 SCF Done:  E(RB3LYP) =  -495.849600721     A.U. after   12 cycles
 SCF Done:  E(RB3LYP) =  -495.849469041     A.U. after   13 cycles
 SCF Done:  E(RB3LYP) =  -495.840483820     A.U. after   13 cycles
 SCF Done:  E(RB3LYP) =  -495.849781635     A.U. after   13 cycles
 SCF Done:  E(RB3LYP) =  -495.849824895     A.U. after   12 cycles
 SCF Done:  E(RB3LYP) =  -495.849855259     A.U. after   10 cycles
 SCF Done:  E(RB3LYP) =  -495.849866362     A.U. after   10 cycles
 SCF Done:  E(RB3LYP) =  -495.849875164     A.U. after   10 cycles
 SCF Done:  E(RB3LYP) =  -495.849875742     A.U. after    8 cycles
 SCF Done:  E(RB3LYP) =  -495.849875949     A.U. after    7 cycles
 SCF Done:  E(RB3LYP) =  -495.849876149     A.U. after    7 cycles
 SCF Done:  E(RB3LYP) =  -495.849876552     A.U. after    9 cycles
 SCF Done:  E(RB3LYP) =  -495.849877153     A.U. after   10 cycles
 SCF Done:  E(RB3LYP) =  -495.849877424     A.U. after    9 cycles
 SCF Done:  E(RB3LYP) =  -495.849877435     A.U. after    6 cycles
 Optimization completed.
    -- Stationary point found.

                         Standard orientation:
 ---------------------------------------------------------------------
 Center     Atomic      Atomic             Coordinates (Angstroms)
 Number     Number       Type             X           Y           Z
 ---------------------------------------------------------------------
      1          1           0       -4.044696   -0.729307    1.066231
      2          6           0       -3.317700   -1.156157    0.368713
      3          1           0       -3.871067   -1.487183   -0.516051
      4          1           0       -2.840541   -2.022280    0.836966
      5          6           0       -2.337537   -0.067192   -0.044877
      6          8           0       -2.716168    0.992261   -0.535469
      7          7           0       -1.020448   -0.350801    0.187190
      8          1           0       -0.737616   -1.313734    0.335139
      9          6           0        0.051533    0.502905   -0.309795
     10          1           0       -0.107634    0.693730   -1.383063
     11          6           0        0.078004    1.856358    0.416924
     12          1           0        0.335314    1.733794    1.474311
     13          1           0        0.788479    2.550604   -0.049610
     14          1           0       -0.912337    2.308091    0.341440
     15          6           0        1.341918   -0.337114   -0.182922
     16          8           0        1.294438   -1.564030   -0.257488
     17          7           0        2.494659    0.347380    0.031013
     18          1           0        2.456612    1.353201    0.094130
     19          6           0        3.790363   -0.305561    0.117660
     20          1           0        3.618548   -1.381990    0.093361
     21          1           0        4.434907   -0.025728   -0.724199
     22          1           0        4.294912   -0.040537    1.053362
 ---------------------------------------------------------------------

 The electronic state is 1-A.
 Alpha  occ. eigenvalues --  -19.12289 -19.10200 -14.37503 -14.34982 -10.29668
 Alpha  occ. eigenvalues --  -10.27983 -10.23892 -10.22697 -10.18562 -10.18509
 Alpha  occ. eigenvalues --   -1.04413  -1.02065  -0.93248  -0.91464  -0.78020
 Alpha  occ. eigenvalues --   -0.72736  -0.70995  -0.65299  -0.59755  -0.56779
 Alpha  occ. eigenvalues --   -0.53663  -0.49172  -0.47457  -0.45790  -0.45368
 Alpha  occ. eigenvalues --   -0.44134  -0.42672  -0.41483  -0.39974  -0.39934
 Alpha  occ. eigenvalues --   -0.39055  -0.38257  -0.37616  -0.37002  -0.33932
 Alpha  occ. eigenvalues --   -0.26614  -0.26358  -0.24880  -0.23925
 Alpha virt. eigenvalues --    0.01703   0.03337   0.06857   0.10119   0.11318
 Alpha virt. eigenvalues --    0.13403   0.14274   0.14756   0.15110   0.15804
 Alpha virt. eigenvalues --    0.15924   0.17975   0.18424   0.19437   0.19580

 Mulliken atomic charges:
              1
     1  H    0.182784
     2  C   -0.533807
     3  H    0.182276
     4  H    0.150019
     5  C    0.591898
     6  O   -0.517648
     7  N   -0.606745
     8  H    0.348744
     9  C   -0.007697
    10  H    0.179826
    11  C   -0.479978
    12  H    0.153995
    13  H    0.130781
    14  H    0.209376
    15  C    0.586908
    16  O   -0.531419
    17  N   -0.593027
    18  H    0.335336
    19  C   -0.313899
    20  H    0.207824
    21  H    0.162774
    22  H    0.161677
 Sum of Mulliken atomic charges =   0.00000

 Dipole moment (field-independent basis, Debye):
    X=              3.2859    Y=              0.5494    Z=              1.1726  Tot=              3.5318
 Quadrupole moment (field-independent basis, Debye-Ang):
   XX=            -54.9062   YY=            -62.2495   ZZ=            -60.2787
   XY=             12.1082   XZ=             -2.4640   YZ=              0.0385

 Normal termination of Gaussian 09 at Fri Feb 10 21:27:59 2017.
