 Gaussian 09, Revision A.02,
 Gaussian 09:  EM64L-G09RevA.02 11-Jun-2009

 ----------------------------------------------------------------------
 # b3lyp/6-31G* Opt=(ModRedundant, maxcycles=1000, calcfc) geom=nocrowd
 ----------------------------------------------------------------------

 ------------------
 Phi Psi fixed scan
 ------------------
 Symbolic Z-matrix:
 Charge =  0 Multiplicity = 1

 SCF Done:  E(RB3LYP) =  -495.832862817     A.U. after   15 cycles

  Exact polarizability:   0.000   0.000   0.000   0.000   0.000   0.000
 Approx polarizability: 120.320  -6.056 123.744   1.434  17.491  91.012

 SCF Done:  E(RB3LYP) =  -495.836615911     A.U. after   13 cycles
 SCF Done:  E(RB3LYP) =  -495.841457108     A.U. after   13 cycles
 SCF Done:  E(RB3LYP) =  -495.840054110     A.U. after   16 cycles
 SCF Done:  E(RB3LYP) =  -495.841706663     A.U. after   16 cycles
 SCF Done:  E(RB3LYP) =  -495.842361648     A.U. after   12 cycles
 SCF Done:  E(RB3LYP) =  -495.843103717     A.U. after   16 cycles
 SCF Done:  E(RB3LYP) =  -495.843370952     A.U. after   12 cycles
 SCF Done:  E(RB3LYP) =  -495.843381043     A.U. after   12 cycles
 SCF Done:  E(RB3LYP) =  -495.843509839     A.U. after   12 cycles
 SCF Done:  E(RB3LYP) =  -495.843650943     A.U. after   11 cycles
 SCF Done:  E(RB3LYP) =  -495.843724436     A.U. after   11 cycles
 SCF Done:  E(RB3LYP) =  -495.843827097     A.U. after   11 cycles
 SCF Done:  E(RB3LYP) =  -495.843846333     A.U. after   10 cycles
 SCF Done:  E(RB3LYP) =  -495.843843238     A.U. after   10 cycles
 SCF Done:  E(RB3LYP) =  -495.843857452     A.U. after   11 cycles
 SCF Done:  E(RB3LYP) =  -495.843858897     A.U. after   10 cycles
 SCF Done:  E(RB3LYP) =  -495.843859175     A.U. after    8 cycles
 SCF Done:  E(RB3LYP) =  -495.843859220     A.U. after    7 cycles
 SCF Done:  E(RB3LYP) =  -495.843859223     A.U. after    6 cycles
 Optimization completed on the basis of negligible forces.
    -- Stationary point found.

                         Standard orientation:
 ---------------------------------------------------------------------
 Center     Atomic      Atomic             Coordinates (Angstroms)
 Number     Number       Type             X           Y           Z
 ---------------------------------------------------------------------
      1          1           0       -3.897341   -1.452945    0.521603
      2          6           0       -3.016268   -1.548634   -0.117779
      3          1           0       -3.370182   -1.721980   -1.140426
      4          1           0       -2.430030   -2.415382    0.203481
      5          6           0       -2.239059   -0.239773   -0.074473
      6          8           0       -2.794217    0.847534   -0.132963
      7          7           0       -0.870776   -0.376305    0.044944
      8          1           0       -0.500694   -1.275987   -0.237963
      9          6           0        0.020490    0.769835   -0.194236
     10          1           0       -0.255281    1.267553   -1.130652
     11          6           0       -0.055455    1.801340    0.945701
     12          1           0        0.218017    1.344239    1.903683
     13          1           0        0.635267    2.624385    0.738025
     14          1           0       -1.071441    2.192387    1.017348
     15          6           0        1.473476    0.310583   -0.369907
     16          8           0        2.252558    0.933850   -1.075975
     17          7           0        1.827090   -0.829950    0.309887
     18          1           0        1.221480   -1.122892    1.066253
     19          6           0        3.213490   -1.273961    0.346448
     20          1           0        3.668116   -1.048892   -0.619045
     21          1           0        3.792731   -0.761799    1.125887
     22          1           0        3.248374   -2.352312    0.524976
 ---------------------------------------------------------------------

 The electronic state is 1-A.
 Alpha  occ. eigenvalues --  -19.11851 -19.11708 -14.37174 -14.36617 -10.29344
 Alpha  occ. eigenvalues --  -10.29186 -10.23627 -10.22565 -10.19767 -10.17975
 Alpha  occ. eigenvalues --   -1.04049  -1.03460  -0.93724  -0.91736  -0.78180
 Alpha  occ. eigenvalues --   -0.73189  -0.71468  -0.64541  -0.59063  -0.57571
 Alpha  occ. eigenvalues --   -0.54100  -0.49930  -0.47472  -0.45858  -0.45531
 Alpha  occ. eigenvalues --   -0.44359  -0.43012  -0.41566  -0.40818  -0.40020
 Alpha  occ. eigenvalues --   -0.39859  -0.38226  -0.37343  -0.36152  -0.34560
 Alpha  occ. eigenvalues --   -0.27013  -0.26770  -0.25431  -0.24710
 Alpha virt. eigenvalues --    0.01109   0.02315   0.06259   0.09041   0.11786
 Alpha virt. eigenvalues --    0.12507   0.13592   0.14244   0.15103   0.15493
 Alpha virt. eigenvalues --    0.16679   0.17810   0.18117   0.18406   0.19990

 Mulliken atomic charges:
              1
     1  H    0.190533
     2  C   -0.540139
     3  H    0.185793
     4  H    0.146907
     5  C    0.591782
     6  O   -0.493807
     7  N   -0.628218
     8  H    0.326366
     9  C   -0.015865
    10  H    0.182121
    11  C   -0.452674
    12  H    0.135182
    13  H    0.167531
    14  H    0.198377
    15  C    0.568751
    16  O   -0.508554
    17  N   -0.597923
    18  H    0.330394
    19  C   -0.304744
    20  H    0.199989
    21  H    0.164059
    22  H    0.154137
 Sum of Mulliken atomic charges =   0.00000

 Dipole moment (field-independent basis, Debye):
    X=              0.7504    Y=             -4.4970    Z=              2.0317  Tot=              4.9914
 Quadrupole moment (field-independent basis, Debye-Ang):
   XX=            -66.5901   YY=            -58.0459   ZZ=            -60.3469
   XY=              1.0650   XZ=              5.5392   YZ=              1.7011

 Normal termination of Gaussian 09 at Fri Feb 10 21:43:20 2017.
