 Gaussian 09, Revision A.02,
 Gaussian 09:  EM64L-G09RevA.02 11-Jun-2009

 ----------------------------------------------------------------------
 # b3lyp/6-31G* Opt=(ModRedundant, maxcycles=1000, calcfc) geom=nocrowd
 ----------------------------------------------------------------------

 ------------------
 Phi Psi fixed scan
 ------------------
 Symbolic Z-matrix:
 Charge =  0 Multiplicity = 1

 SCF Done:  E(RB3LYP) =  -495.845857882     A.U. after   14 cycles

  Exact polarizability:   0.000   0.000   0.000   0.000   0.000   0.000
 Approx polarizability: 117.444  -4.529 108.321  -0.553 -21.984 108.725

 SCF Done:  E(RB3LYP) =  -495.848358376     A.U. after   11 cycles
 SCF Done:  E(RB3LYP) =  -495.850867477     A.U. after   12 cycles
 SCF Done:  E(RB3LYP) =  -495.851275627     A.U. after   12 cycles
 SCF Done:  E(RB3LYP) =  -495.691224209     A.U. after   14 cycles
 SCF Done:  E(RB3LYP) =  -495.726501885     A.U. after   12 cycles
 SCF Done:  E(RB3LYP) =  -495.755986914     A.U. after   12 cycles
 SCF Done:  E(RB3LYP) =  -495.780292880     A.U. after   12 cycles
 SCF Done:  E(RB3LYP) =  -495.800014464     A.U. after   12 cycles
 SCF Done:  E(RB3LYP) =  -495.815736821     A.U. after   12 cycles
 SCF Done:  E(RB3LYP) =  -495.851441873     A.U. after   13 cycles
 SCF Done:  E(RB3LYP) =  -495.851507263     A.U. after   11 cycles
 SCF Done:  E(RB3LYP) =  -495.851546086     A.U. after   11 cycles
 SCF Done:  E(RB3LYP) =  -495.851568720     A.U. after   11 cycles
 SCF Done:  E(RB3LYP) =  -495.851580298     A.U. after   10 cycles
 SCF Done:  E(RB3LYP) =  -495.851583239     A.U. after   10 cycles
 SCF Done:  E(RB3LYP) =  -495.851584784     A.U. after    9 cycles
 SCF Done:  E(RB3LYP) =  -495.851585732     A.U. after    9 cycles
 SCF Done:  E(RB3LYP) =  -495.851585932     A.U. after    9 cycles
 SCF Done:  E(RB3LYP) =  -495.851585923     A.U. after    6 cycles
 Optimization completed.
    -- Stationary point found.

                         Standard orientation:
 ---------------------------------------------------------------------
 Center     Atomic      Atomic             Coordinates (Angstroms)
 Number     Number       Type             X           Y           Z
 ---------------------------------------------------------------------
      1          1           0       -3.811011   -1.536729   -0.864841
      2          6           0       -3.301595   -1.221960    0.050626
      3          1           0       -2.866786   -2.099705    0.538515
      4          1           0       -4.058530   -0.786576    0.711342
      5          6           0       -2.280700   -0.149878   -0.302124
      6          8           0       -2.582383    0.853318   -0.941512
      7          7           0       -1.006147   -0.390003    0.123651
      8          1           0       -0.799855   -1.151675    0.758399
      9          6           0        0.055111    0.594455   -0.028021
     10          1           0       -0.007975    0.987493   -1.048592
     11          6           0       -0.073412    1.762580    0.966439
     12          1           0       -0.005512    1.390678    1.993543
     13          1           0        0.724393    2.498121    0.809464
     14          1           0       -1.037227    2.256164    0.819420
     15          6           0        1.374248   -0.153691    0.200938
     16          8           0        1.491312   -0.940895    1.137360
     17          7           0        2.366221    0.114309   -0.689645
     18          1           0        2.172628    0.756670   -1.444542
     19          6           0        3.694482   -0.467178   -0.590155
     20          1           0        3.694590   -1.131446    0.274863
     21          1           0        3.937278   -1.046117   -1.488424
     22          1           0        4.457252    0.307633   -0.450196
 ---------------------------------------------------------------------

 The electronic state is 1-A.
 Alpha  occ. eigenvalues --  -19.12090 -19.10102 -14.37522 -14.35330 -10.29374
 Alpha  occ. eigenvalues --  -10.28081 -10.23604 -10.22635 -10.18680 -10.18116
 Alpha  occ. eigenvalues --   -1.04160  -1.02081  -0.93121  -0.91625  -0.77831
 Alpha  occ. eigenvalues --   -0.72720  -0.71363  -0.64559  -0.59618  -0.57736
 Alpha  occ. eigenvalues --   -0.53528  -0.48234  -0.46950  -0.46364  -0.45383
 Alpha  occ. eigenvalues --   -0.44445  -0.42690  -0.41416  -0.40566  -0.39921
 Alpha  occ. eigenvalues --   -0.38997  -0.37913  -0.36751  -0.36519  -0.34177
 Alpha  occ. eigenvalues --   -0.26578  -0.26365  -0.24541  -0.23969
 Alpha virt. eigenvalues --    0.01666   0.03770   0.06608   0.09301   0.11645
 Alpha virt. eigenvalues --    0.13244   0.13499   0.15227   0.15827   0.16154
 Alpha virt. eigenvalues --    0.16700   0.17194   0.18462   0.18556   0.19296

 Mulliken atomic charges:
              1
     1  H    0.183930
     2  C   -0.533924
     3  H    0.148216
     4  H    0.182096
     5  C    0.598990
     6  O   -0.522587
     7  N   -0.603184
     8  H    0.341165
     9  C   -0.016693
    10  H    0.157540
    11  C   -0.449719
    12  H    0.162914
    13  H    0.141372
    14  H    0.185476
    15  C    0.599314
    16  O   -0.534592
    17  N   -0.589961
    18  H    0.331720
    19  C   -0.314217
    20  H    0.207369
    21  H    0.162870
    22  H    0.161903
 Sum of Mulliken atomic charges =   0.00000

 Dipole moment (field-independent basis, Debye):
    X=              2.5984    Y=             -0.3274    Z=             -0.7728  Tot=              2.7306
 Quadrupole moment (field-independent basis, Debye-Ang):
   XX=            -55.7580   YY=            -60.2469   ZZ=            -61.4271
   XY=              9.2093   XZ=            -10.8917   YZ=              2.3628

 Normal termination of Gaussian 09 at Fri Feb 10 21:39:17 2017.
