 Gaussian 09, Revision A.02,
 Gaussian 09:  EM64L-G09RevA.02 11-Jun-2009

 ----------------------------------------------------------------------
 # b3lyp/6-31G* Opt=(ModRedundant, maxcycles=1000, calcfc) geom=nocrowd
 ----------------------------------------------------------------------

 ------------------
 Phi Psi fixed scan
 ------------------
 Symbolic Z-matrix:
 Charge =  0 Multiplicity = 1

 SCF Done:  E(RB3LYP) =  -495.828514262     A.U. after   15 cycles

  Exact polarizability:   0.000   0.000   0.000   0.000   0.000   0.000
 Approx polarizability: 121.953  -2.322 128.078   3.840 -14.177  85.326

 SCF Done:  E(RB3LYP) =  -495.834070982     A.U. after   12 cycles
 SCF Done:  E(RB3LYP) =  -495.841670692     A.U. after   12 cycles
 SCF Done:  E(RB3LYP) =  -495.806390466     A.U. after   13 cycles
 SCF Done:  E(RB3LYP) =  -495.826086594     A.U. after   12 cycles
 SCF Done:  E(RB3LYP) =  -495.838190267     A.U. after   12 cycles
 SCF Done:  E(RB3LYP) =  -495.841697459     A.U. after   13 cycles
 SCF Done:  E(RB3LYP) =  -495.842892393     A.U. after   12 cycles
 SCF Done:  E(RB3LYP) =  -495.844395177     A.U. after   12 cycles
 SCF Done:  E(RB3LYP) =  -495.844794608     A.U. after   13 cycles
 SCF Done:  E(RB3LYP) =  -495.845816133     A.U. after   11 cycles
 SCF Done:  E(RB3LYP) =  -495.845837732     A.U. after   10 cycles
 SCF Done:  E(RB3LYP) =  -495.845844853     A.U. after   10 cycles
 SCF Done:  E(RB3LYP) =  -495.845848973     A.U. after   10 cycles
 SCF Done:  E(RB3LYP) =  -495.845851036     A.U. after   10 cycles
 SCF Done:  E(RB3LYP) =  -495.845852750     A.U. after    8 cycles
 SCF Done:  E(RB3LYP) =  -495.845855937     A.U. after   10 cycles
 SCF Done:  E(RB3LYP) =  -495.845858867     A.U. after   10 cycles
 SCF Done:  E(RB3LYP) =  -495.845859849     A.U. after    9 cycles
 SCF Done:  E(RB3LYP) =  -495.845859896     A.U. after    7 cycles
 Optimization completed.
    -- Stationary point found.

                         Standard orientation:
 ---------------------------------------------------------------------
 Center     Atomic      Atomic             Coordinates (Angstroms)
 Number     Number       Type             X           Y           Z
 ---------------------------------------------------------------------
      1          1           0       -3.899567   -1.594333   -0.246569
      2          6           0       -3.082938   -1.350667    0.436245
      3          1           0       -2.534801   -2.263361    0.691157
      4          1           0       -3.526011   -0.944202    1.353500
      5          6           0       -2.204336   -0.290411   -0.210997
      6          8           0       -2.653565    0.578403   -0.941057
      7          7           0       -0.849564   -0.401581    0.068280
      8          1           0       -0.646569   -0.911037    0.923467
      9          6           0        0.031725    0.751429   -0.163801
     10          1           0       -0.205128    1.112147   -1.169572
     11          6           0       -0.204373    1.898948    0.830456
     12          1           0       -0.031314    1.564786    1.860921
     13          1           0        0.487818    2.716293    0.616705
     14          1           0       -1.231943    2.260573    0.740494
     15          6           0        1.518928    0.359091   -0.160163
     16          8           0        2.386420    1.216499   -0.262089
     17          7           0        1.801125   -0.965256    0.051836
     18          1           0        1.064892   -1.620476   -0.177798
     19          6           0        3.175171   -1.441634   -0.019093
     20          1           0        3.820165   -0.701098    0.455950
     21          1           0        3.256699   -2.393003    0.513785
     22          1           0        3.516942   -1.578190   -1.053560
 ---------------------------------------------------------------------

 The electronic state is 1-A.
 Alpha  occ. eigenvalues --  -19.12229 -19.11355 -14.36894 -14.36568 -10.29729
 Alpha  occ. eigenvalues --  -10.28760 -10.23552 -10.22157 -10.20083 -10.17936
 Alpha  occ. eigenvalues --   -1.04190  -1.03347  -0.93674  -0.91604  -0.77993
 Alpha  occ. eigenvalues --   -0.73305  -0.71311  -0.64332  -0.58971  -0.58008
 Alpha  occ. eigenvalues --   -0.53812  -0.48257  -0.48033  -0.46219  -0.45605
 Alpha  occ. eigenvalues --   -0.44149  -0.42636  -0.41873  -0.40925  -0.40546
 Alpha  occ. eigenvalues --   -0.39458  -0.38202  -0.36813  -0.36295  -0.34698
 Alpha  occ. eigenvalues --   -0.27760  -0.26170  -0.25799  -0.24436
 Alpha virt. eigenvalues --    0.01084   0.02246   0.06082   0.09971   0.12177
 Alpha virt. eigenvalues --    0.12742   0.13098   0.14224   0.14642   0.15367
 Alpha virt. eigenvalues --    0.17034   0.17451   0.17941   0.18098   0.19563

 Mulliken atomic charges:
              1
     1  H    0.192935
     2  C   -0.544953
     3  H    0.152157
     4  H    0.183670
     5  C    0.593433
     6  O   -0.488224
     7  N   -0.620961
     8  H    0.319116
     9  C   -0.047098
    10  H    0.203062
    11  C   -0.453774
    12  H    0.136590
    13  H    0.185577
    14  H    0.171788
    15  C    0.592576
    16  O   -0.516170
    17  N   -0.599392
    18  H    0.332135
    19  C   -0.304179
    20  H    0.196363
    21  H    0.151589
    22  H    0.163760
 Sum of Mulliken atomic charges =   0.00000

 Dipole moment (field-independent basis, Debye):
    X=             -0.2485    Y=             -4.4052    Z=              2.3395  Tot=              4.9941
 Quadrupole moment (field-independent basis, Debye-Ang):
   XX=            -66.4595   YY=            -58.0854   ZZ=            -60.2274
   XY=             -2.5547   XZ=             -4.9816   YZ=              1.2161

 Normal termination of Gaussian 09 at Fri Feb 10 21:22:52 2017.
