 Gaussian 09, Revision A.02,
 Gaussian 09:  EM64L-G09RevA.02 11-Jun-2009

 ----------------------------------------------------------------------
 # b3lyp/6-31G* Opt=(ModRedundant, maxcycles=1000, calcfc) geom=nocrowd
 ----------------------------------------------------------------------

 ------------------
 Phi Psi fixed scan
 ------------------
 Symbolic Z-matrix:
 Charge =  0 Multiplicity = 1

 SCF Done:  E(RB3LYP) =  -495.839655542     A.U. after   15 cycles

  Exact polarizability:   0.000   0.000   0.000   0.000   0.000   0.000
 Approx polarizability: 117.845   0.005 116.325  13.749  -1.079 101.511

 SCF Done:  E(RB3LYP) =  -495.842666818     A.U. after   12 cycles
 SCF Done:  E(RB3LYP) =  -495.845884487     A.U. after   12 cycles
 SCF Done:  E(RB3LYP) =  -495.846707652     A.U. after   13 cycles
 SCF Done:  E(RB3LYP) =  -495.844545768     A.U. after   13 cycles
 SCF Done:  E(RB3LYP) =  -495.846761834     A.U. after   13 cycles
 SCF Done:  E(RB3LYP) =  -495.847052186     A.U. after   12 cycles
 SCF Done:  E(RB3LYP) =  -495.846526216     A.U. after   13 cycles
 SCF Done:  E(RB3LYP) =  -495.847218829     A.U. after   13 cycles
 SCF Done:  E(RB3LYP) =  -495.847289764     A.U. after   10 cycles
 SCF Done:  E(RB3LYP) =  -495.847297535     A.U. after   10 cycles
 SCF Done:  E(RB3LYP) =  -495.847302755     A.U. after   10 cycles
 SCF Done:  E(RB3LYP) =  -495.847306538     A.U. after   10 cycles
 SCF Done:  E(RB3LYP) =  -495.847308222     A.U. after    9 cycles
 SCF Done:  E(RB3LYP) =  -495.847311707     A.U. after   10 cycles
 SCF Done:  E(RB3LYP) =  -495.847318786     A.U. after   10 cycles
 SCF Done:  E(RB3LYP) =  -495.847318930     A.U. after   10 cycles
 SCF Done:  E(RB3LYP) =  -495.847319618     A.U. after   10 cycles
 SCF Done:  E(RB3LYP) =  -495.847319668     A.U. after    7 cycles
 Optimization completed.
    -- Stationary point found.

                         Standard orientation:
 ---------------------------------------------------------------------
 Center     Atomic      Atomic             Coordinates (Angstroms)
 Number     Number       Type             X           Y           Z
 ---------------------------------------------------------------------
      1          1           0        3.733430   -1.812593   -0.181489
      2          6           0        3.062373   -1.210054   -0.798139
      3          1           0        2.508391   -1.864349   -1.478875
      4          1           0        3.682610   -0.531092   -1.394770
      5          6           0        2.163984   -0.389100    0.115522
      6          8           0        2.572997    0.126403    1.146173
      7          7           0        0.850004   -0.285570   -0.289064
      8          1           0        0.648960   -0.534627   -1.250558
      9          6           0       -0.042578    0.714350    0.315847
     10          1           0        0.091740    0.618980    1.398789
     11          6           0        0.289796    2.145442   -0.108516
     12          1           0        0.165619    2.269524   -1.188485
     13          1           0       -0.383392    2.853098    0.383550
     14          1           0        1.319522    2.379193    0.173578
     15          6           0       -1.498113    0.348235   -0.045513
     16          8           0       -2.235363    1.111002   -0.656941
     17          7           0       -1.886093   -0.882598    0.400088
     18          1           0       -1.184017   -1.468082    0.831270
     19          6           0       -3.205672   -1.432997    0.149427
     20          1           0       -3.809996   -0.642255   -0.297258
     21          1           0       -3.165523   -2.283964   -0.542423
     22          1           0       -3.674541   -1.761159    1.083870
 ---------------------------------------------------------------------

 The electronic state is 1-A.
 Alpha  occ. eigenvalues --  -19.11632 -19.11576 -14.36728 -14.36496 -10.29320
 Alpha  occ. eigenvalues --  -10.28783 -10.23487 -10.22160 -10.19800 -10.17247
 Alpha  occ. eigenvalues --   -1.03806  -1.03251  -0.93215  -0.91722  -0.77821
 Alpha  occ. eigenvalues --   -0.73053  -0.71408  -0.64005  -0.58720  -0.58341
 Alpha  occ. eigenvalues --   -0.53494  -0.48183  -0.47935  -0.46290  -0.45331
 Alpha  occ. eigenvalues --   -0.44834  -0.42134  -0.41739  -0.40218  -0.40159
 Alpha  occ. eigenvalues --   -0.39235  -0.37724  -0.36808  -0.36324  -0.34876
 Alpha  occ. eigenvalues --   -0.26986  -0.25731  -0.25342  -0.24683
 Alpha virt. eigenvalues --    0.01589   0.02164   0.07217   0.08693   0.11939
 Alpha virt. eigenvalues --    0.12572   0.12801   0.14783   0.15647   0.16168
 Alpha virt. eigenvalues --    0.16635   0.17205   0.17895   0.18677   0.19604

 Mulliken atomic charges:
              1
     1  H    0.189593
     2  C   -0.541004
     3  H    0.149766
     4  H    0.185738
     5  C    0.593894
     6  O   -0.500112
     7  N   -0.607717
     8  H    0.325831
     9  C   -0.046405
    10  H    0.183314
    11  C   -0.438157
    12  H    0.150930
    13  H    0.162949
    14  H    0.165984
    15  C    0.573442
    16  O   -0.511296
    17  N   -0.578444
    18  H    0.333511
    19  C   -0.311192
    20  H    0.204101
    21  H    0.155336
    22  H    0.159937
 Sum of Mulliken atomic charges =   0.00000

 Dipole moment (field-independent basis, Debye):
    X=             -0.1810    Y=             -3.4787    Z=             -1.3371  Tot=              3.7312
 Quadrupole moment (field-independent basis, Debye-Ang):
   XX=            -64.8817   YY=            -57.8663   ZZ=            -60.6325
   XY=              4.2339   XZ=            -10.5274   YZ=              1.2040

 Normal termination of Gaussian 09 at Fri Feb 10 21:37:44 2017.
