 Gaussian 09, Revision A.02,
 Gaussian 09:  EM64L-G09RevA.02 11-Jun-2009

 ----------------------------------------------------------------------
 # b3lyp/6-31G* Opt=(ModRedundant, maxcycles=1000, calcfc) geom=nocrowd
 ----------------------------------------------------------------------

 ------------------
 Phi Psi fixed scan
 ------------------
 Symbolic Z-matrix:
 Charge =  0 Multiplicity = 1

 SCF Done:  E(RB3LYP) =  -495.844087784     A.U. after   14 cycles

  Exact polarizability:   0.000   0.000   0.000   0.000   0.000   0.000
 Approx polarizability: 116.452  -6.497  95.851   3.101 -12.043 122.899

 SCF Done:  E(RB3LYP) =  -495.846611285     A.U. after   12 cycles
 SCF Done:  E(RB3LYP) =  -495.849289814     A.U. after   12 cycles
 SCF Done:  E(RB3LYP) =  -495.849944227     A.U. after   12 cycles
 SCF Done:  E(RB3LYP) =  -495.787108486     A.U. after   14 cycles
 SCF Done:  E(RB3LYP) =  -495.803447075     A.U. after   12 cycles
 SCF Done:  E(RB3LYP) =  -495.816618597     A.U. after   12 cycles
 SCF Done:  E(RB3LYP) =  -495.827128423     A.U. after   12 cycles
 SCF Done:  E(RB3LYP) =  -495.835552903     A.U. after   12 cycles
 SCF Done:  E(RB3LYP) =  -495.842614863     A.U. after   12 cycles
 SCF Done:  E(RB3LYP) =  -495.850154245     A.U. after   12 cycles
 SCF Done:  E(RB3LYP) =  -495.849859936     A.U. after   13 cycles
 SCF Done:  E(RB3LYP) =  -495.850267142     A.U. after   12 cycles
 SCF Done:  E(RB3LYP) =  -495.850303612     A.U. after   11 cycles
 SCF Done:  E(RB3LYP) =  -495.850317228     A.U. after   10 cycles
 SCF Done:  E(RB3LYP) =  -495.850332159     A.U. after   10 cycles
 SCF Done:  E(RB3LYP) =  -495.850335905     A.U. after    9 cycles
 SCF Done:  E(RB3LYP) =  -495.850337135     A.U. after    9 cycles
 SCF Done:  E(RB3LYP) =  -495.850337601     A.U. after    9 cycles
 SCF Done:  E(RB3LYP) =  -495.850337663     A.U. after    7 cycles
 Optimization completed.
    -- Stationary point found.

                         Standard orientation:
 ---------------------------------------------------------------------
 Center     Atomic      Atomic             Coordinates (Angstroms)
 Number     Number       Type             X           Y           Z
 ---------------------------------------------------------------------
      1          1           0       -3.775215   -1.760647   -0.440772
      2          6           0       -3.241443   -1.238839    0.358388
      3          1           0       -2.779663   -1.975399    1.023079
      4          1           0       -3.982348   -0.665340    0.925779
      5          6           0       -2.245118   -0.274179   -0.268512
      6          8           0       -2.562660    0.504800   -1.160706
      7          7           0       -0.967991   -0.352298    0.216766
      8          1           0       -0.781480   -0.870715    1.066589
      9          6           0        0.050105    0.628217   -0.150068
     10          1           0       -0.018258    0.764770   -1.234195
     11          6           0       -0.154443    1.983694    0.543640
     12          1           0       -0.073013    1.864694    1.628145
     13          1           0        0.603977    2.704991    0.216995
     14          1           0       -1.141515    2.377136    0.288429
     15          6           0        1.396060    0.014646    0.257406
     16          8           0        1.602514   -0.310047    1.424220
     17          7           0        2.291638   -0.171752   -0.749136
     18          1           0        2.027590    0.105367   -1.683568
     19          6           0        3.611343   -0.741374   -0.535434
     20          1           0        3.694259   -0.980445    0.525496
     21          1           0        3.742933   -1.657520   -1.122461
     22          1           0        4.399338   -0.029555   -0.807555
 ---------------------------------------------------------------------

 The electronic state is 1-A.
 Alpha  occ. eigenvalues --  -19.11884 -19.10414 -14.37412 -14.35613 -10.29212
 Alpha  occ. eigenvalues --  -10.28319 -10.23537 -10.22541 -10.18884 -10.17864
 Alpha  occ. eigenvalues --   -1.03978  -1.02350  -0.92977  -0.91796  -0.77766
 Alpha  occ. eigenvalues --   -0.72752  -0.71423  -0.64427  -0.59402  -0.57914
 Alpha  occ. eigenvalues --   -0.53476  -0.48188  -0.46929  -0.46345  -0.45470
 Alpha  occ. eigenvalues --   -0.44548  -0.42449  -0.41426  -0.40636  -0.39816
 Alpha  occ. eigenvalues --   -0.39228  -0.37772  -0.36727  -0.36307  -0.34406
 Alpha  occ. eigenvalues --   -0.26540  -0.26178  -0.24761  -0.24148
 Alpha virt. eigenvalues --    0.01682   0.03501   0.06708   0.08913   0.11699
 Alpha virt. eigenvalues --    0.13253   0.13399   0.15303   0.15941   0.16414
 Alpha virt. eigenvalues --    0.16622   0.16813   0.18363   0.18859   0.19564

 Mulliken atomic charges:
              1
     1  H    0.185108
     2  C   -0.535299
     3  H    0.148879
     4  H    0.182754
     5  C    0.597965
     6  O   -0.518106
     7  N   -0.601335
     8  H    0.338114
     9  C   -0.016100
    10  H    0.156663
    11  C   -0.451735
    12  H    0.165752
    13  H    0.144195
    14  H    0.179662
    15  C    0.596533
    16  O   -0.533966
    17  N   -0.587877
    18  H    0.332055
    19  C   -0.314394
    20  H    0.206989
    21  H    0.162385
    22  H    0.161758
 Sum of Mulliken atomic charges =   0.00000

 Dipole moment (field-independent basis, Debye):
    X=              2.1696    Y=             -1.0322    Z=             -0.7835  Tot=              2.5271
 Quadrupole moment (field-independent basis, Debye-Ang):
   XX=            -56.9283   YY=            -58.3990   ZZ=            -62.7062
   XY=              4.5435   XZ=            -13.6241   YZ=              1.2944

 Normal termination of Gaussian 09 at Fri Feb 10 21:29:19 2017.
