 Gaussian 09, Revision A.02,
 Gaussian 09:  EM64L-G09RevA.02 11-Jun-2009

 ----------------------------------------------------------------------
 # b3lyp/6-31G* Opt=(ModRedundant, maxcycles=1000, calcfc) geom=nocrowd
 ----------------------------------------------------------------------

 ------------------
 Phi Psi fixed scan
 ------------------
 Symbolic Z-matrix:
 Charge =  0 Multiplicity = 1

 SCF Done:  E(RB3LYP) =  -495.836051077     A.U. after   15 cycles

  Exact polarizability:   0.000   0.000   0.000   0.000   0.000   0.000
 Approx polarizability: 119.049  -8.294 119.251   2.315  17.138  96.792

 SCF Done:  E(RB3LYP) =  -495.838957708     A.U. after   12 cycles
 SCF Done:  E(RB3LYP) =  -495.842384485     A.U. after   12 cycles
 SCF Done:  E(RB3LYP) =  -495.843660467     A.U. after   16 cycles
 SCF Done:  E(RB3LYP) =  -495.786233147     A.U. after   14 cycles
 SCF Done:  E(RB3LYP) =  -495.843660745     A.U. after   14 cycles
 SCF Done:  E(RB3LYP) =  -495.843913788     A.U. after   12 cycles
 SCF Done:  E(RB3LYP) =  -495.842947378     A.U. after   13 cycles
 SCF Done:  E(RB3LYP) =  -495.844061977     A.U. after   13 cycles
 SCF Done:  E(RB3LYP) =  -495.844079740     A.U. after   10 cycles
 SCF Done:  E(RB3LYP) =  -495.844089043     A.U. after   11 cycles
 SCF Done:  E(RB3LYP) =  -495.844100628     A.U. after   10 cycles
 SCF Done:  E(RB3LYP) =  -495.844121019     A.U. after   11 cycles
 SCF Done:  E(RB3LYP) =  -495.844130459     A.U. after   11 cycles
 SCF Done:  E(RB3LYP) =  -495.844132162     A.U. after   10 cycles
 SCF Done:  E(RB3LYP) =  -495.844132461     A.U. after    8 cycles
 SCF Done:  E(RB3LYP) =  -495.844132601     A.U. after    7 cycles
 SCF Done:  E(RB3LYP) =  -495.844132880     A.U. after    7 cycles
 SCF Done:  E(RB3LYP) =  -495.844132974     A.U. after    7 cycles
 SCF Done:  E(RB3LYP) =  -495.844133026     A.U. after    7 cycles
 Optimization completed.
    -- Stationary point found.

                         Standard orientation:
 ---------------------------------------------------------------------
 Center     Atomic      Atomic             Coordinates (Angstroms)
 Number     Number       Type             X           Y           Z
 ---------------------------------------------------------------------
      1          1           0        3.841523   -1.479692   -0.617270
      2          6           0        3.029637   -1.539265    0.112466
      3          1           0        3.486799   -1.649373    1.101855
      4          1           0        2.423591   -2.426354   -0.097303
      5          6           0        2.242994   -0.235915    0.073116
      6          8           0        2.794194    0.855890    0.096665
      7          7           0        0.876548   -0.377196    0.000458
      8          1           0        0.498085   -1.285098    0.237390
      9          6           0       -0.020703    0.772736    0.190881
     10          1           0        0.267004    1.315312    1.097224
     11          6           0        0.027530    1.746148   -0.999653
     12          1           0       -0.254059    1.245522   -1.933144
     13          1           0       -0.664812    2.576471   -0.825691
     14          1           0        1.039391    2.141136   -1.104123
     15          6           0       -1.456162    0.283423    0.429645
     16          8           0       -2.163786    0.761888    1.304097
     17          7           0       -1.876299   -0.710169   -0.418710
     18          1           0       -1.298221   -0.916334   -1.222680
     19          6           0       -3.251461   -1.184141   -0.421033
     20          1           0       -3.676096   -0.974499    0.561394
     21          1           0       -3.860093   -0.673894   -1.178837
     22          1           0       -3.279130   -2.261786   -0.609682
 ---------------------------------------------------------------------

 The electronic state is 1-A.
 Alpha  occ. eigenvalues --  -19.11854 -19.11401 -14.37161 -14.36603 -10.29181
 Alpha  occ. eigenvalues --  -10.29171 -10.23615 -10.22565 -10.19661 -10.18213
 Alpha  occ. eigenvalues --   -1.03967  -1.03253  -0.93602  -0.91750  -0.78233
 Alpha  occ. eigenvalues --   -0.73175  -0.71429  -0.64768  -0.59041  -0.57911
 Alpha  occ. eigenvalues --   -0.54007  -0.49891  -0.47396  -0.45870  -0.45305
 Alpha  occ. eigenvalues --   -0.44288  -0.43063  -0.41561  -0.40972  -0.40038
 Alpha  occ. eigenvalues --   -0.39724  -0.38296  -0.37497  -0.36344  -0.34598
 Alpha  occ. eigenvalues --   -0.26950  -0.26306  -0.25298  -0.24660
 Alpha virt. eigenvalues --    0.01144   0.02620   0.06376   0.08488   0.11542
 Alpha virt. eigenvalues --    0.12510   0.13685   0.14577   0.15328   0.15555
 Alpha virt. eigenvalues --    0.16506   0.17675   0.18141   0.18411   0.19963

 Mulliken atomic charges:
              1
     1  H    0.189083
     2  C   -0.538025
     3  H    0.187131
     4  H    0.144333
     5  C    0.595294
     6  O   -0.499630
     7  N   -0.626603
     8  H    0.327634
     9  C   -0.011822
    10  H    0.183970
    11  C   -0.454619
    12  H    0.132362
    13  H    0.163547
    14  H    0.200105
    15  C    0.560415
    16  O   -0.506572
    17  N   -0.590366
    18  H    0.329812
    19  C   -0.307975
    20  H    0.203715
    21  H    0.162869
    22  H    0.155343
 Sum of Mulliken atomic charges =   0.00000

 Dipole moment (field-independent basis, Debye):
    X=             -1.0067    Y=             -4.1791    Z=             -2.4873  Tot=              4.9663
 Quadrupole moment (field-independent basis, Debye-Ang):
   XX=            -65.8525   YY=            -57.7727   ZZ=            -61.1532
   XY=             -2.1554   XZ=              6.4478   YZ=             -1.6947

 Normal termination of Gaussian 09 at Fri Feb 10 21:42:49 2017.
