 Gaussian 09, Revision A.02,
 Gaussian 09:  EM64L-G09RevA.02 11-Jun-2009

 ----------------------------------------------------------------------
 # b3lyp/6-31G* Opt=(ModRedundant, maxcycles=1000, calcfc) geom=nocrowd
 ----------------------------------------------------------------------

 ------------------
 Phi Psi fixed scan
 ------------------
 Symbolic Z-matrix:
 Charge =  0 Multiplicity = 1

 SCF Done:  E(RB3LYP) =  -495.828258594     A.U. after   15 cycles

  Exact polarizability:   0.000   0.000   0.000   0.000   0.000   0.000
 Approx polarizability: 121.280  -4.036 126.703  -0.769  16.493  86.913

 SCF Done:  E(RB3LYP) =  -495.829164427     A.U. after   13 cycles
 SCF Done:  E(RB3LYP) =  -495.836368185     A.U. after   16 cycles
 SCF Done:  E(RB3LYP) =  -495.840919869     A.U. after   14 cycles
 SCF Done:  E(RB3LYP) =  -495.839648892     A.U. after   15 cycles
 SCF Done:  E(RB3LYP) =  -495.842246356     A.U. after   13 cycles
 SCF Done:  E(RB3LYP) =  -495.842310255     A.U. after   11 cycles
 SCF Done:  E(RB3LYP) =  -495.842605681     A.U. after   12 cycles
 SCF Done:  E(RB3LYP) =  -495.842731580     A.U. after   11 cycles
 SCF Done:  E(RB3LYP) =  -495.842828946     A.U. after   11 cycles
 SCF Done:  E(RB3LYP) =  -495.843212250     A.U. after   10 cycles
 SCF Done:  E(RB3LYP) =  -495.843238910     A.U. after   11 cycles
 SCF Done:  E(RB3LYP) =  -495.843245886     A.U. after   10 cycles
 SCF Done:  E(RB3LYP) =  -495.843252526     A.U. after   10 cycles
 SCF Done:  E(RB3LYP) =  -495.843255696     A.U. after    9 cycles
 SCF Done:  E(RB3LYP) =  -495.843257273     A.U. after    9 cycles
 SCF Done:  E(RB3LYP) =  -495.843257910     A.U. after   10 cycles
 SCF Done:  E(RB3LYP) =  -495.843258117     A.U. after    9 cycles
 SCF Done:  E(RB3LYP) =  -495.843258161     A.U. after    9 cycles
 SCF Done:  E(RB3LYP) =  -495.843258162     A.U. after    7 cycles
 Optimization completed on the basis of negligible forces.
    -- Stationary point found.

                         Standard orientation:
 ---------------------------------------------------------------------
 Center     Atomic      Atomic             Coordinates (Angstroms)
 Number     Number       Type             X           Y           Z
 ---------------------------------------------------------------------
      1          1           0       -3.949239   -1.521532   -0.353738
      2          6           0       -3.108280   -1.369677    0.326115
      3          1           0       -2.571245   -2.314168    0.459664
      4          1           0       -3.516368   -1.061078    1.296273
      5          6           0       -2.228119   -0.258331   -0.226531
      6          8           0       -2.681888    0.694842   -0.838431
      7          7           0       -0.866240   -0.425932   -0.007541
      8          1           0       -0.665336   -1.012650    0.797645
      9          6           0        0.023291    0.738438   -0.128668
     10          1           0       -0.241888    1.223779   -1.071196
     11          6           0       -0.159604    1.755303    1.011198
     12          1           0        0.060816    1.296455    1.982979
     13          1           0        0.523089    2.595922    0.865030
     14          1           0       -1.188439    2.124956    1.014925
     15          6           0        1.506514    0.351308   -0.224803
     16          8           0        2.347136    1.204769   -0.473834
     17          7           0        1.837548   -0.934726    0.126479
     18          1           0        1.128693   -1.636688   -0.043590
     19          6           0        3.224356   -1.372422    0.024677
     20          1           0        3.863771   -0.597300    0.449442
     21          1           0        3.349663   -2.299203    0.590894
     22          1           0        3.536391   -1.538477   -1.014705
 ---------------------------------------------------------------------

 The electronic state is 1-A.
 Alpha  occ. eigenvalues --  -19.12251 -19.11492 -14.36874 -14.36669 -10.29726
 Alpha  occ. eigenvalues --  -10.28807 -10.23506 -10.22182 -10.20078 -10.18217
 Alpha  occ. eigenvalues --   -1.04209  -1.03457  -0.93649  -0.91682  -0.78048
 Alpha  occ. eigenvalues --   -0.73371  -0.71220  -0.64482  -0.58965  -0.58010
 Alpha  occ. eigenvalues --   -0.53820  -0.48220  -0.48031  -0.46142  -0.45639
 Alpha  occ. eigenvalues --   -0.44010  -0.42798  -0.41898  -0.41163  -0.40579
 Alpha  occ. eigenvalues --   -0.39568  -0.38199  -0.36850  -0.36321  -0.34732
 Alpha  occ. eigenvalues --   -0.27968  -0.26287  -0.25819  -0.24412
 Alpha virt. eigenvalues --    0.01093   0.01958   0.05535   0.09935   0.12014
 Alpha virt. eigenvalues --    0.12497   0.13321   0.14287   0.14661   0.15430
 Alpha virt. eigenvalues --    0.16944   0.17335   0.17806   0.18392   0.19521

 Mulliken atomic charges:
              1
     1  H    0.193448
     2  C   -0.545299
     3  H    0.152567
     4  H    0.182884
     5  C    0.593001
     6  O   -0.487033
     7  N   -0.615289
     8  H    0.315577
     9  C   -0.046744
    10  H    0.202717
    11  C   -0.456244
    12  H    0.137630
    13  H    0.183901
    14  H    0.174325
    15  C    0.591251
    16  O   -0.512123
    17  N   -0.599063
    18  H    0.327784
    19  C   -0.303774
    20  H    0.194856
    21  H    0.151019
    22  H    0.164609
 Sum of Mulliken atomic charges =   0.00000

 Dipole moment (field-independent basis, Debye):
    X=             -0.1311    Y=             -4.5993    Z=              2.5409  Tot=              5.2562
 Quadrupole moment (field-independent basis, Debye-Ang):
   XX=            -65.9011   YY=            -58.1474   ZZ=            -60.5994
   XY=             -1.7566   XZ=             -3.4004   YZ=              1.7380

 Normal termination of Gaussian 09 at Fri Feb 10 21:51:59 2017.
