 Gaussian 09, Revision A.02,
 Gaussian 09:  EM64L-G09RevA.02 11-Jun-2009

 ----------------------------------------------------------------------
 # b3lyp/6-31G* Opt=(ModRedundant, maxcycles=1000, calcfc) geom=nocrowd
 ----------------------------------------------------------------------

 ------------------
 Phi Psi fixed scan
 ------------------
 Symbolic Z-matrix:
 Charge =  0 Multiplicity = 1

 SCF Done:  E(RB3LYP) =  -495.839485770     A.U. after   15 cycles

  Exact polarizability:   0.000   0.000   0.000   0.000   0.000   0.000
 Approx polarizability: 116.245  -1.559 110.424  13.433   3.933 108.910

 SCF Done:  E(RB3LYP) =  -495.842412659     A.U. after   12 cycles
 SCF Done:  E(RB3LYP) =  -495.845545102     A.U. after   13 cycles
 SCF Done:  E(RB3LYP) =  -495.846378658     A.U. after   13 cycles
 SCF Done:  E(RB3LYP) =  -495.838989059     A.U. after   15 cycles
 SCF Done:  E(RB3LYP) =  -495.842795166     A.U. after   12 cycles
 SCF Done:  E(RB3LYP) =  -495.844644726     A.U. after   12 cycles
 SCF Done:  E(RB3LYP) =  -495.844753666     A.U. after   16 cycles
 SCF Done:  E(RB3LYP) =  -495.845197757     A.U. after   12 cycles
 SCF Done:  E(RB3LYP) =  -495.846378819     A.U. after   14 cycles
 SCF Done:  E(RB3LYP) =  -495.846677079     A.U. after   16 cycles
 SCF Done:  E(RB3LYP) =  -495.846576149     A.U. after   13 cycles
 SCF Done:  E(RB3LYP) =  -495.846891806     A.U. after   12 cycles
 SCF Done:  E(RB3LYP) =  -495.846932269     A.U. after   11 cycles
 SCF Done:  E(RB3LYP) =  -495.846947086     A.U. after   10 cycles
 SCF Done:  E(RB3LYP) =  -495.846953091     A.U. after   10 cycles
 SCF Done:  E(RB3LYP) =  -495.846958447     A.U. after   10 cycles
 SCF Done:  E(RB3LYP) =  -495.846958961     A.U. after    9 cycles
 SCF Done:  E(RB3LYP) =  -495.846959030     A.U. after    7 cycles
 Optimization completed.
    -- Stationary point found.

                         Standard orientation:
 ---------------------------------------------------------------------
 Center     Atomic      Atomic             Coordinates (Angstroms)
 Number     Number       Type             X           Y           Z
 ---------------------------------------------------------------------
      1          1           0        3.746463   -1.807272   -0.258370
      2          6           0        3.082670   -1.167545   -0.844628
      3          1           0        2.538646   -1.777814   -1.572581
      4          1           0        3.709125   -0.451297   -1.388950
      5          6           0        2.169620   -0.408102    0.106984
      6          8           0        2.560067    0.031577    1.179921
      7          7           0        0.866758   -0.268586   -0.315757
      8          1           0        0.677523   -0.451431   -1.294245
      9          6           0       -0.039345    0.680041    0.347226
     10          1           0        0.076581    0.503723    1.421600
     11          6           0        0.291450    2.140241    0.035530
     12          1           0        0.161024    2.344558   -1.030731
     13          1           0       -0.379129    2.808489    0.585471
     14          1           0        1.321207    2.353422    0.333114
     15          6           0       -1.476481    0.328506   -0.089616
     16          8           0       -2.091082    0.993660   -0.914852
     17          7           0       -1.982953   -0.789513    0.506446
     18          1           0       -1.374991   -1.316052    1.118205
     19          6           0       -3.285276   -1.339045    0.174611
     20          1           0       -3.797546   -0.608864   -0.453302
     21          1           0       -3.198086   -2.283635   -0.377328
     22          1           0       -3.875178   -1.513608    1.081106
 ---------------------------------------------------------------------

 The electronic state is 1-A.
 Alpha  occ. eigenvalues --  -19.11667 -19.11392 -14.36682 -14.36496 -10.29105
 Alpha  occ. eigenvalues --  -10.28857 -10.23466 -10.22220 -10.19602 -10.17276
 Alpha  occ. eigenvalues --   -1.03755  -1.03152  -0.92991  -0.91874  -0.77779
 Alpha  occ. eigenvalues --   -0.72970  -0.71402  -0.64056  -0.58610  -0.58466
 Alpha  occ. eigenvalues --   -0.53438  -0.48148  -0.47656  -0.46287  -0.45299
 Alpha  occ. eigenvalues --   -0.44856  -0.42124  -0.41613  -0.40405  -0.39976
 Alpha  occ. eigenvalues --   -0.39357  -0.37580  -0.36907  -0.36147  -0.34845
 Alpha  occ. eigenvalues --   -0.26874  -0.25586  -0.25390  -0.24621
 Alpha virt. eigenvalues --    0.01869   0.02172   0.07428   0.08024   0.11876
 Alpha virt. eigenvalues --    0.12703   0.12906   0.14949   0.15580   0.16347
 Alpha virt. eigenvalues --    0.16721   0.17059   0.18066   0.19041   0.19527

 Mulliken atomic charges:
              1
     1  H    0.188560
     2  C   -0.540583
     3  H    0.150834
     4  H    0.184715
     5  C    0.594118
     6  O   -0.504048
     7  N   -0.603121
     8  H    0.328973
     9  C   -0.040466
    10  H    0.171872
    11  C   -0.441692
    12  H    0.159523
    13  H    0.155417
    14  H    0.167172
    15  C    0.577420
    16  O   -0.512210
    17  N   -0.579004
    18  H    0.333356
    19  C   -0.312265
    20  H    0.204237
    21  H    0.157239
    22  H    0.159953
 Sum of Mulliken atomic charges =   0.00000

 Dipole moment (field-independent basis, Debye):
    X=             -0.5824    Y=             -3.0432    Z=             -0.8405  Tot=              3.2104
 Quadrupole moment (field-independent basis, Debye-Ang):
   XX=            -63.2072   YY=            -57.8834   ZZ=            -61.1089
   XY=              4.1768   XZ=            -11.8933   YZ=              1.3680

 Normal termination of Gaussian 09 at Fri Feb 10 21:38:32 2017.
