 Gaussian 09, Revision A.02,
 Gaussian 09:  EM64L-G09RevA.02 11-Jun-2009

 ----------------------------------------------------------------------
 # b3lyp/6-31G* Opt=(ModRedundant, maxcycles=1000, calcfc) geom=nocrowd
 ----------------------------------------------------------------------

 ------------------
 Phi Psi fixed scan
 ------------------
 Symbolic Z-matrix:
 Charge =  0 Multiplicity = 1

 SCF Done:  E(RB3LYP) =  -495.834642809     A.U. after   15 cycles

  Exact polarizability:   0.000   0.000   0.000   0.000   0.000   0.000
 Approx polarizability: 122.679   0.426 121.432   9.901  -4.020  92.491

 SCF Done:  E(RB3LYP) =  -495.839463759     A.U. after   12 cycles
 SCF Done:  E(RB3LYP) =  -495.844918285     A.U. after   12 cycles
 SCF Done:  E(RB3LYP) =  -495.846605864     A.U. after   12 cycles
 SCF Done:  E(RB3LYP) =  -495.847290186     A.U. after   12 cycles
 SCF Done:  E(RB3LYP) =  -495.846640801     A.U. after   12 cycles
 SCF Done:  E(RB3LYP) =  -495.847337853     A.U. after   13 cycles
 SCF Done:  E(RB3LYP) =  -495.847767814     A.U. after   12 cycles
 SCF Done:  E(RB3LYP) =  -495.847353981     A.U. after   12 cycles
 SCF Done:  E(RB3LYP) =  -495.847925602     A.U. after   12 cycles
 SCF Done:  E(RB3LYP) =  -495.847950377     A.U. after    8 cycles
 SCF Done:  E(RB3LYP) =  -495.847975053     A.U. after   10 cycles
 SCF Done:  E(RB3LYP) =  -495.847997188     A.U. after   11 cycles
 SCF Done:  E(RB3LYP) =  -495.848014115     A.U. after   10 cycles
 SCF Done:  E(RB3LYP) =  -495.848022835     A.U. after   10 cycles
 SCF Done:  E(RB3LYP) =  -495.848023674     A.U. after    9 cycles
 SCF Done:  E(RB3LYP) =  -495.848023913     A.U. after    7 cycles
 SCF Done:  E(RB3LYP) =  -495.848024144     A.U. after    7 cycles
 SCF Done:  E(RB3LYP) =  -495.848024236     A.U. after    7 cycles
 SCF Done:  E(RB3LYP) =  -495.848024273     A.U. after    7 cycles
 Optimization completed.
    -- Stationary point found.

                         Standard orientation:
 ---------------------------------------------------------------------
 Center     Atomic      Atomic             Coordinates (Angstroms)
 Number     Number       Type             X           Y           Z
 ---------------------------------------------------------------------
      1          1           0       -4.033927   -0.739925    1.124093
      2          6           0       -3.271754   -1.181974    0.476121
      3          1           0       -3.786435   -1.597804   -0.396673
      4          1           0       -2.770694   -1.992857    1.013244
      5          6           0       -2.326557   -0.082292    0.012062
      6          8           0       -2.740395    0.961371   -0.481368
      7          7           0       -0.994611   -0.343157    0.201560
      8          1           0       -0.711868   -1.310033    0.318078
      9          6           0        0.044849    0.504630   -0.382408
     10          1           0       -0.155867    0.632752   -1.457343
     11          6           0        0.071026    1.892814    0.269962
     12          1           0        0.318991    1.826126    1.335199
     13          1           0        0.790019    2.552407   -0.232261
     14          1           0       -0.916938    2.344430    0.170007
     15          6           0        1.347522   -0.317688   -0.272169
     16          8           0        1.334165   -1.518740   -0.536546
     17          7           0        2.454569    0.332487    0.169833
     18          1           0        2.389403    1.317606    0.375438
     19          6           0        3.748988   -0.318038    0.287201
     20          1           0        3.601643   -1.380670    0.091991
     21          1           0        4.465677    0.084282   -0.438836
     22          1           0        4.155679   -0.187383    1.296013
 ---------------------------------------------------------------------

 The electronic state is 1-A.
 Alpha  occ. eigenvalues --  -19.12004 -19.10479 -14.37472 -14.35246 -10.29514
 Alpha  occ. eigenvalues --  -10.28183 -10.23834 -10.22646 -10.18662 -10.18506
 Alpha  occ. eigenvalues --   -1.04203  -1.02296  -0.93146  -0.91603  -0.78056
 Alpha  occ. eigenvalues --   -0.72795  -0.70996  -0.65338  -0.59584  -0.56834
 Alpha  occ. eigenvalues --   -0.53646  -0.49436  -0.47399  -0.45584  -0.45398
 Alpha  occ. eigenvalues --   -0.44225  -0.42537  -0.41516  -0.40002  -0.39544
 Alpha  occ. eigenvalues --   -0.39290  -0.38267  -0.37845  -0.37088  -0.34066
 Alpha  occ. eigenvalues --   -0.26352  -0.26276  -0.25140  -0.24055
 Alpha virt. eigenvalues --    0.01704   0.03022   0.07287   0.09828   0.11395
 Alpha virt. eigenvalues --    0.13536   0.14043   0.14779   0.15045   0.15869
 Alpha virt. eigenvalues --    0.15918   0.17553   0.18453   0.18991   0.19528

 Mulliken atomic charges:
              1
     1  H    0.183872
     2  C   -0.535273
     3  H    0.183242
     4  H    0.150654
     5  C    0.591467
     6  O   -0.513001
     7  N   -0.605547
     8  H    0.345592
     9  C    0.005745
    10  H    0.178469
    11  C   -0.489544
    12  H    0.150421
    13  H    0.135693
    14  H    0.211170
    15  C    0.572109
    16  O   -0.529967
    17  N   -0.590146
    18  H    0.337526
    19  C   -0.314281
    20  H    0.207631
    21  H    0.162862
    22  H    0.161308
 Sum of Mulliken atomic charges =   0.00000

 Dipole moment (field-independent basis, Debye):
    X=              3.1095    Y=              0.5118    Z=              1.6956  Tot=              3.5785
 Quadrupole moment (field-independent basis, Debye-Ang):
   XX=            -55.5904   YY=            -61.8667   ZZ=            -60.4136
   XY=             11.9678   XZ=             -0.9736   YZ=             -0.7737

 Normal termination of Gaussian 09 at Fri Feb 10 21:29:05 2017.
