 Gaussian 09, Revision A.02,
 Gaussian 09:  EM64L-G09RevA.02 11-Jun-2009

 ----------------------------------------------------------------------
 # b3lyp/6-31G* Opt=(ModRedundant, maxcycles=1000, calcfc) geom=nocrowd
 ----------------------------------------------------------------------

 ------------------
 Phi Psi fixed scan
 ------------------
 Symbolic Z-matrix:
 Charge =  0 Multiplicity = 1

 SCF Done:  E(RB3LYP) =  -495.841909088     A.U. after   14 cycles

  Exact polarizability:   0.000   0.000   0.000   0.000   0.000   0.000
 Approx polarizability: 122.169   2.010 126.086   3.865 -12.208  86.476

 SCF Done:  E(RB3LYP) =  -495.845623305     A.U. after   12 cycles
 SCF Done:  E(RB3LYP) =  -495.849640877     A.U. after   12 cycles
 SCF Done:  E(RB3LYP) =  -495.850644474     A.U. after   12 cycles
 SCF Done:  E(RB3LYP) =  -495.849523664     A.U. after   12 cycles
 SCF Done:  E(RB3LYP) =  -495.850707011     A.U. after   12 cycles
 SCF Done:  E(RB3LYP) =  -495.850996898     A.U. after   11 cycles
 SCF Done:  E(RB3LYP) =  -495.850767041     A.U. after   12 cycles
 SCF Done:  E(RB3LYP) =  -495.851101490     A.U. after   11 cycles
 SCF Done:  E(RB3LYP) =  -495.851183019     A.U. after   11 cycles
 SCF Done:  E(RB3LYP) =  -495.851228602     A.U. after   11 cycles
 SCF Done:  E(RB3LYP) =  -495.851271669     A.U. after   11 cycles
 SCF Done:  E(RB3LYP) =  -495.851298274     A.U. after   11 cycles
 SCF Done:  E(RB3LYP) =  -495.851301119     A.U. after   10 cycles
 SCF Done:  E(RB3LYP) =  -495.851302974     A.U. after   10 cycles
 SCF Done:  E(RB3LYP) =  -495.851303982     A.U. after   10 cycles
 SCF Done:  E(RB3LYP) =  -495.851304196     A.U. after    7 cycles
 SCF Done:  E(RB3LYP) =  -495.851304265     A.U. after    7 cycles
 Optimization completed.
    -- Stationary point found.

                         Standard orientation:
 ---------------------------------------------------------------------
 Center     Atomic      Atomic             Coordinates (Angstroms)
 Number     Number       Type             X           Y           Z
 ---------------------------------------------------------------------
      1          1           0       -4.080385   -0.724873    0.951469
      2          6           0       -3.349691   -1.141156    0.251160
      3          1           0       -3.894012   -1.429723   -0.653639
      4          1           0       -2.897657   -2.032494    0.696599
      5          6           0       -2.341593   -0.058381   -0.107199
      6          8           0       -2.687480    1.014330   -0.595056
      7          7           0       -1.039474   -0.360530    0.164764
      8          1           0       -0.758134   -1.312661    0.373165
      9          6           0        0.055701    0.507433   -0.232937
     10          1           0       -0.065165    0.776894   -1.293646
     11          6           0        0.074822    1.806146    0.593247
     12          1           0        0.288835    1.597462    1.646433
     13          1           0        0.816557    2.521293    0.216834
     14          1           0       -0.905383    2.279347    0.512328
     15          6           0        1.340481   -0.339184   -0.099384
     16          8           0        1.285199   -1.561716    0.022634
     17          7           0        2.510434    0.350713   -0.114027
     18          1           0        2.479005    1.353004   -0.225039
     19          6           0        3.808789   -0.300013   -0.054011
     20          1           0        3.637907   -1.358303    0.144984
     21          1           0        4.351609   -0.197597   -1.001449
     22          1           0        4.417298    0.126387    0.750921
 ---------------------------------------------------------------------

 The electronic state is 1-A.
 Alpha  occ. eigenvalues --  -19.12540 -19.09961 -14.37497 -14.34829 -10.29767
 Alpha  occ. eigenvalues --  -10.27838 -10.23897 -10.22738 -10.18576 -10.18412
 Alpha  occ. eigenvalues --   -1.04578  -1.01881  -0.93303  -0.91383  -0.77981
 Alpha  occ. eigenvalues --   -0.72700  -0.71002  -0.65186  -0.59855  -0.56878
 Alpha  occ. eigenvalues --   -0.53669  -0.48849  -0.47509  -0.45964  -0.45341
 Alpha  occ. eigenvalues --   -0.44116  -0.42787  -0.41446  -0.40236  -0.40014
 Alpha  occ. eigenvalues --   -0.38859  -0.38254  -0.37423  -0.36845  -0.33842
 Alpha  occ. eigenvalues --   -0.26825  -0.26418  -0.24627  -0.23823
 Alpha virt. eigenvalues --    0.01694   0.03606   0.06403   0.10195   0.11270
 Alpha virt. eigenvalues --    0.13273   0.14444   0.14821   0.15253   0.15690
 Alpha virt. eigenvalues --    0.16001   0.18216   0.18409   0.19479   0.19943

 Mulliken atomic charges:
              1
     1  H    0.182056
     2  C   -0.533346
     3  H    0.181611
     4  H    0.149533
     5  C    0.593705
     6  O   -0.521805
     7  N   -0.607922
     8  H    0.350319
     9  C   -0.021322
    10  H    0.178564
    11  C   -0.463920
    12  H    0.156049
    13  H    0.126443
    14  H    0.205177
    15  C    0.597876
    16  O   -0.531155
    17  N   -0.593666
    18  H    0.332974
    19  C   -0.312986
    20  H    0.207424
    21  H    0.162914
    22  H    0.161475
 Sum of Mulliken atomic charges =   0.00000

 Dipole moment (field-independent basis, Debye):
    X=              3.3596    Y=              0.4935    Z=              0.6756  Tot=              3.4622
 Quadrupole moment (field-independent basis, Debye-Ang):
   XX=            -54.6010   YY=            -62.3896   ZZ=            -60.2432
   XY=             12.1336   XZ=             -4.0391   YZ=              0.7371

 Normal termination of Gaussian 09 at Fri Feb 10 21:34:04 2017.
