 Gaussian 09, Revision A.02,
 Gaussian 09:  EM64L-G09RevA.02 11-Jun-2009

 ----------------------------------------------------------------------
 # b3lyp/6-31G* Opt=(ModRedundant, maxcycles=1000, calcfc) geom=nocrowd
 ----------------------------------------------------------------------

 ------------------
 Phi Psi fixed scan
 ------------------
 Symbolic Z-matrix:
 Charge =  0 Multiplicity = 1

 SCF Done:  E(RB3LYP) =  -495.845599385     A.U. after   14 cycles

  Exact polarizability:   0.000   0.000   0.000   0.000   0.000   0.000
 Approx polarizability: 120.751   1.586 125.954   1.479 -15.974  87.020

 SCF Done:  E(RB3LYP) =  -495.849031350     A.U. after   12 cycles
 SCF Done:  E(RB3LYP) =  -495.851727871     A.U. after   12 cycles
 SCF Done:  E(RB3LYP) =  -495.852038002     A.U. after   11 cycles
 SCF Done:  E(RB3LYP) =  -495.851994889     A.U. after   12 cycles
 SCF Done:  E(RB3LYP) =  -495.852066127     A.U. after   12 cycles
 SCF Done:  E(RB3LYP) =  -495.836677924     A.U. after   13 cycles
 SCF Done:  E(RB3LYP) =  -495.852070962     A.U. after   13 cycles
 SCF Done:  E(RB3LYP) =  -495.852207460     A.U. after   11 cycles
 SCF Done:  E(RB3LYP) =  -495.852271264     A.U. after   11 cycles
 SCF Done:  E(RB3LYP) =  -495.852283188     A.U. after   10 cycles
 SCF Done:  E(RB3LYP) =  -495.852302375     A.U. after   10 cycles
 SCF Done:  E(RB3LYP) =  -495.852320287     A.U. after   10 cycles
 SCF Done:  E(RB3LYP) =  -495.852336691     A.U. after   10 cycles
 SCF Done:  E(RB3LYP) =  -495.852344194     A.U. after   10 cycles
 SCF Done:  E(RB3LYP) =  -495.852346892     A.U. after   10 cycles
 SCF Done:  E(RB3LYP) =  -495.852347287     A.U. after   10 cycles
 SCF Done:  E(RB3LYP) =  -495.852347358     A.U. after    7 cycles
 SCF Done:  E(RB3LYP) =  -495.852347360     A.U. after    6 cycles
 Optimization completed.
    -- Stationary point found.

                         Standard orientation:
 ---------------------------------------------------------------------
 Center     Atomic      Atomic             Coordinates (Angstroms)
 Number     Number       Type             X           Y           Z
 ---------------------------------------------------------------------
      1          1           0       -4.103873   -0.732550    0.839756
      2          6           0       -3.366660   -1.135214    0.138101
      3          1           0       -3.899159   -1.386308   -0.784532
      4          1           0       -2.933935   -2.046899    0.561127
      5          6           0       -2.338805   -0.055121   -0.167531
      6          8           0       -2.658074    1.028756   -0.649822
      7          7           0       -1.049466   -0.371832    0.136392
      8          1           0       -0.776979   -1.305496    0.423368
      9          6           0        0.057721    0.516475   -0.158101
     10          1           0       -0.034913    0.870409   -1.195026
     11          6           0        0.066853    1.743991    0.774290
     12          1           0        0.211132    1.435819    1.814968
     13          1           0        0.859771    2.452631    0.508640
     14          1           0       -0.892315    2.257184    0.680882
     15          6           0        1.341660   -0.327544   -0.028988
     16          8           0        1.301953   -1.513976    0.290686
     17          7           0        2.501150    0.339135   -0.271203
     18          1           0        2.450131    1.306564   -0.555878
     19          6           0        3.806295   -0.297388   -0.209421
     20          1           0        3.657142   -1.317407    0.145837
     21          1           0        4.281128   -0.328704   -1.197280
     22          1           0        4.466660    0.234205    0.484802
 ---------------------------------------------------------------------

 The electronic state is 1-A.
 Alpha  occ. eigenvalues --  -19.12652 -19.09805 -14.37510 -14.34814 -10.29782
 Alpha  occ. eigenvalues --  -10.27773 -10.23839 -10.22759 -10.18516 -10.18384
 Alpha  occ. eigenvalues --   -1.04632  -1.01776  -0.93326  -0.91368  -0.77961
 Alpha  occ. eigenvalues --   -0.72692  -0.71046  -0.65014  -0.59890  -0.57092
 Alpha  occ. eigenvalues --   -0.53656  -0.48572  -0.47461  -0.46112  -0.45305
 Alpha  occ. eigenvalues --   -0.44159  -0.42891  -0.41418  -0.40340  -0.40135
 Alpha  occ. eigenvalues --   -0.38734  -0.38239  -0.37244  -0.36720  -0.33817
 Alpha  occ. eigenvalues --   -0.26810  -0.26560  -0.24431  -0.23766
 Alpha virt. eigenvalues --    0.01673   0.03798   0.06297   0.10081   0.11314
 Alpha virt. eigenvalues --    0.13189   0.14521   0.14792   0.15447   0.15709
 Alpha virt. eigenvalues --    0.16077   0.18329   0.18456   0.18920   0.19519

 Mulliken atomic charges:
              1
     1  H    0.181639
     2  C   -0.533111
     3  H    0.181537
     4  H    0.148875
     5  C    0.596342
     6  O   -0.524942
     7  N   -0.608782
     8  H    0.349818
     9  C   -0.027405
    10  H    0.173275
    11  C   -0.451055
    12  H    0.156132
    13  H    0.127119
    14  H    0.200051
    15  C    0.603177
    16  O   -0.530492
    17  N   -0.593097
    18  H    0.331926
    19  C   -0.312801
    20  H    0.207357
    21  H    0.162696
    22  H    0.161741
 Sum of Mulliken atomic charges =   0.00000

 Dipole moment (field-independent basis, Debye):
    X=              3.3237    Y=              0.3794    Z=              0.2367  Tot=              3.3536
 Quadrupole moment (field-independent basis, Debye-Ang):
   XX=            -54.5844   YY=            -62.3751   ZZ=            -60.2283
   XY=             12.0316   XZ=             -5.5358   YZ=              1.2885

 Normal termination of Gaussian 09 at Fri Feb 10 21:27:05 2017.
