 Gaussian 09, Revision A.02,
 Gaussian 09:  EM64L-G09RevA.02 11-Jun-2009

 ----------------------------------------------------------------------
 # b3lyp/6-31G* Opt=(ModRedundant, maxcycles=1000, calcfc) geom=nocrowd
 ----------------------------------------------------------------------

 ------------------
 Phi Psi fixed scan
 ------------------
 Symbolic Z-matrix:
 Charge =  0 Multiplicity = 1

 SCF Done:  E(RB3LYP) =  -495.834494175     A.U. after   15 cycles

  Exact polarizability:   0.000   0.000   0.000   0.000   0.000   0.000
 Approx polarizability: 117.849  12.164 105.808   2.572   9.885 112.193

 SCF Done:  E(RB3LYP) =  -495.837980544     A.U. after   12 cycles
 SCF Done:  E(RB3LYP) =  -495.841688705     A.U. after   12 cycles
 SCF Done:  E(RB3LYP) =  -495.842219060     A.U. after   12 cycles
 SCF Done:  E(RB3LYP) =  -495.817479360     A.U. after   14 cycles
 SCF Done:  E(RB3LYP) =  -495.842234333     A.U. after   14 cycles
 SCF Done:  E(RB3LYP) =  -495.842342417     A.U. after   12 cycles
 SCF Done:  E(RB3LYP) =  -495.824647008     A.U. after   13 cycles
 SCF Done:  E(RB3LYP) =  -495.842375884     A.U. after   13 cycles
 SCF Done:  E(RB3LYP) =  -495.842440700     A.U. after   12 cycles
 SCF Done:  E(RB3LYP) =  -495.842463358     A.U. after   11 cycles
 SCF Done:  E(RB3LYP) =  -495.842482096     A.U. after   11 cycles
 SCF Done:  E(RB3LYP) =  -495.842513991     A.U. after   12 cycles
 SCF Done:  E(RB3LYP) =  -495.842516215     A.U. after   10 cycles
 SCF Done:  E(RB3LYP) =  -495.842525182     A.U. after   10 cycles
 SCF Done:  E(RB3LYP) =  -495.842529422     A.U. after   11 cycles
 SCF Done:  E(RB3LYP) =  -495.842541257     A.U. after   12 cycles
 SCF Done:  E(RB3LYP) =  -495.842542243     A.U. after   10 cycles
 SCF Done:  E(RB3LYP) =  -495.842542351     A.U. after    8 cycles
 SCF Done:  E(RB3LYP) =  -495.842542370     A.U. after    7 cycles
 Optimization completed.
    -- Stationary point found.

                         Standard orientation:
 ---------------------------------------------------------------------
 Center     Atomic      Atomic             Coordinates (Angstroms)
 Number     Number       Type             X           Y           Z
 ---------------------------------------------------------------------
      1          1           0        3.816834   -1.278339   -1.015985
      2          6           0        3.074565   -1.493902   -0.242275
      3          1           0        3.620286   -1.758035    0.669515
      4          1           0        2.472147   -2.353291   -0.553560
      5          6           0        2.262710   -0.232892    0.020876
      6          8           0        2.794863    0.843982    0.261832
      7          7           0        0.903629   -0.388146   -0.021498
      8          1           0        0.519113   -1.313071   -0.148962
      9          6           0       -0.019042    0.710232    0.294130
     10          1           0        0.271314    1.134546    1.259607
     11          6           0        0.021114    1.825133   -0.763127
     12          1           0       -0.185900    1.445708   -1.771407
     13          1           0       -0.711094    2.604645   -0.525466
     14          1           0        1.018768    2.267943   -0.772743
     15          6           0       -1.418434    0.105967    0.517790
     16          8           0       -1.883727   -0.041739    1.639622
     17          7           0       -2.071356   -0.284017   -0.620470
     18          1           0       -1.675568   -0.026540   -1.513058
     19          6           0       -3.417198   -0.832746   -0.596269
     20          1           0       -3.645366   -1.095279    0.437370
     21          1           0       -4.158115   -0.103150   -0.946774
     22          1           0       -3.479717   -1.728699   -1.223147
 ---------------------------------------------------------------------

 The electronic state is 1-A.
 Alpha  occ. eigenvalues --  -19.11781 -19.10821 -14.37166 -14.36457 -10.29165
 Alpha  occ. eigenvalues --  -10.28781 -10.23659 -10.22543 -10.19375 -10.18591
 Alpha  occ. eigenvalues --   -1.03864  -1.02801  -0.93187  -0.91885  -0.78227
 Alpha  occ. eigenvalues --   -0.73074  -0.71243  -0.65267  -0.59087  -0.58320
 Alpha  occ. eigenvalues --   -0.53853  -0.49611  -0.47288  -0.45811  -0.44908
 Alpha  occ. eigenvalues --   -0.44586  -0.42635  -0.41626  -0.41017  -0.39980
 Alpha  occ. eigenvalues --   -0.39390  -0.38363  -0.37799  -0.36625  -0.34525
 Alpha  occ. eigenvalues --   -0.26724  -0.25830  -0.24972  -0.24454
 Alpha virt. eigenvalues --    0.01321   0.03036   0.06348   0.07679   0.11289
 Alpha virt. eigenvalues --    0.12602   0.13566   0.15007   0.15576   0.15819
 Alpha virt. eigenvalues --    0.16365   0.17764   0.18239   0.19081   0.19500

 Mulliken atomic charges:
              1
     1  H    0.185813
     2  C   -0.535468
     3  H    0.188701
     4  H    0.142202
     5  C    0.602656
     6  O   -0.510073
     7  N   -0.617248
     8  H    0.329576
     9  C    0.003964
    10  H    0.189473
    11  C   -0.467648
    12  H    0.127450
    13  H    0.157115
    14  H    0.202517
    15  C    0.541863
    16  O   -0.500518
    17  N   -0.583466
    18  H    0.330069
    19  C   -0.311554
    20  H    0.205896
    21  H    0.162568
    22  H    0.156111
 Sum of Mulliken atomic charges =   0.00000

 Dipole moment (field-independent basis, Debye):
    X=             -1.7981    Y=             -2.4743    Z=             -3.9506  Tot=              4.9962
 Quadrupole moment (field-independent basis, Debye-Ang):
   XX=            -63.0663   YY=            -57.2792   ZZ=            -62.8389
   XY=             -6.1364   XZ=              5.7999   YZ=              0.1751

 Normal termination of Gaussian 09 at Fri Feb 10 21:35:54 2017.
