 Gaussian 09, Revision A.02,
 Gaussian 09:  EM64L-G09RevA.02 11-Jun-2009

 ----------------------------------------------------------------------
 # b3lyp/6-31G* Opt=(ModRedundant, maxcycles=1000, calcfc) geom=nocrowd
 ----------------------------------------------------------------------

 ------------------
 Phi Psi fixed scan
 ------------------
 Symbolic Z-matrix:
 Charge =  0 Multiplicity = 1

 SCF Done:  E(RB3LYP) =  -495.847183185     A.U. after   14 cycles

  Exact polarizability:   0.000   0.000   0.000   0.000   0.000   0.000
 Approx polarizability: 119.451   0.334 123.742  -0.205 -19.349  90.109

 SCF Done:  E(RB3LYP) =  -495.850246971     A.U. after   12 cycles
 SCF Done:  E(RB3LYP) =  -495.852418849     A.U. after   12 cycles
 SCF Done:  E(RB3LYP) =  -495.852484946     A.U. after   11 cycles
 SCF Done:  E(RB3LYP) =  -495.852651208     A.U. after   11 cycles
 SCF Done:  E(RB3LYP) =  -495.852555393     A.U. after   12 cycles
 SCF Done:  E(RB3LYP) =  -495.852692265     A.U. after   12 cycles
 SCF Done:  E(RB3LYP) =  -495.852742349     A.U. after   12 cycles
 SCF Done:  E(RB3LYP) =  -495.852767118     A.U. after   11 cycles
 SCF Done:  E(RB3LYP) =  -495.852775407     A.U. after   10 cycles
 SCF Done:  E(RB3LYP) =  -495.852778020     A.U. after    8 cycles
 SCF Done:  E(RB3LYP) =  -495.852785739     A.U. after   10 cycles
 SCF Done:  E(RB3LYP) =  -495.852792416     A.U. after   10 cycles
 SCF Done:  E(RB3LYP) =  -495.852793419     A.U. after    7 cycles
 SCF Done:  E(RB3LYP) =  -495.852795227     A.U. after   10 cycles
 SCF Done:  E(RB3LYP) =  -495.852795194     A.U. after    7 cycles
 SCF Done:  E(RB3LYP) =  -495.852795256     A.U. after    6 cycles
 Optimization completed.
    -- Stationary point found.

                         Standard orientation:
 ---------------------------------------------------------------------
 Center     Atomic      Atomic             Coordinates (Angstroms)
 Number     Number       Type             X           Y           Z
 ---------------------------------------------------------------------
      1          1           0       -4.107650   -0.754151    0.751068
      2          6           0       -3.367108   -1.141170    0.043891
      3          1           0       -3.893189   -1.361042   -0.890093
      4          1           0       -2.944421   -2.068107    0.443388
      5          6           0       -2.329190   -0.060266   -0.221684
      6          8           0       -2.630823    1.028247   -0.704855
      7          7           0       -1.048850   -0.383061    0.110025
      8          1           0       -0.794602   -1.289065    0.486385
      9          6           0        0.058723    0.529915   -0.087946
     10          1           0       -0.015404    0.954459   -1.097765
     11          6           0        0.047375    1.688228    0.930546
     12          1           0        0.144891    1.300611    1.949988
     13          1           0        0.868232    2.390779    0.746098
     14          1           0       -0.898556    2.226556    0.839222
     15          6           0        1.346030   -0.302752    0.036395
     16          8           0        1.341003   -1.421904    0.544381
     17          7           0        2.469885    0.304467   -0.429415
     18          1           0        2.381921    1.218185   -0.851174
     19          6           0        3.788726   -0.300597   -0.349065
     20          1           0        3.670766   -1.281009    0.113610
     21          1           0        4.225647   -0.424544   -1.346488
     22          1           0        4.466329    0.306591    0.262461
 ---------------------------------------------------------------------

 The electronic state is 1-A.
 Alpha  occ. eigenvalues --  -19.12566 -19.09778 -14.37530 -14.34917 -10.29694
 Alpha  occ. eigenvalues --  -10.27799 -10.23761 -10.22750 -10.18448 -10.18424
 Alpha  occ. eigenvalues --   -1.04543  -1.01779  -0.93307  -0.91414  -0.77951
 Alpha  occ. eigenvalues --   -0.72701  -0.71150  -0.64851  -0.59851  -0.57335
 Alpha  occ. eigenvalues --   -0.53631  -0.48409  -0.47302  -0.46220  -0.45263
 Alpha  occ. eigenvalues --   -0.44269  -0.42952  -0.41413  -0.40445  -0.40109
 Alpha  occ. eigenvalues --   -0.38728  -0.38188  -0.37079  -0.36659  -0.33868
 Alpha  occ. eigenvalues --   -0.26695  -0.26614  -0.24360  -0.23773
 Alpha virt. eigenvalues --    0.01669   0.03900   0.06386   0.09868   0.11439
 Alpha virt. eigenvalues --    0.13164   0.14209   0.14779   0.15540   0.15793
 Alpha virt. eigenvalues --    0.16469   0.17937   0.18419   0.18706   0.19048

 Mulliken atomic charges:
              1
     1  H    0.181459
     2  C   -0.533091
     3  H    0.182066
     4  H    0.148367
     5  C    0.598555
     6  O   -0.526359
     7  N   -0.608345
     8  H    0.347586
     9  C   -0.024851
    10  H    0.166464
    11  C   -0.446972
    12  H    0.157123
    13  H    0.131995
    14  H    0.195660
    15  C    0.602759
    16  O   -0.530547
    17  N   -0.592078
    18  H    0.331390
    19  C   -0.313145
    20  H    0.207331
    21  H    0.162554
    22  H    0.162083
 Sum of Mulliken atomic charges =   0.00000

 Dipole moment (field-independent basis, Debye):
    X=              3.1797    Y=              0.2579    Z=             -0.1054  Tot=              3.1919
 Quadrupole moment (field-independent basis, Debye-Ang):
   XX=            -54.7188   YY=            -62.1331   ZZ=            -60.3309
   XY=             11.7987   XZ=             -6.8782   YZ=              1.7826

 Normal termination of Gaussian 09 at Fri Feb 10 21:26:03 2017.
