 Gaussian 09, Revision A.02,
 Gaussian 09:  EM64L-G09RevA.02 11-Jun-2009

 ----------------------------------------------------------------------
 # b3lyp/6-31G* Opt=(ModRedundant, maxcycles=1000, calcfc) geom=nocrowd
 ----------------------------------------------------------------------

 ------------------
 Phi Psi fixed scan
 ------------------
 Symbolic Z-matrix:
 Charge =  0 Multiplicity = 1

 SCF Done:  E(RB3LYP) =  -495.842070894     A.U. after   15 cycles

  Exact polarizability:   0.000   0.000   0.000   0.000   0.000   0.000
 Approx polarizability: 115.658  -5.750  96.709   7.905   0.457 123.201

 SCF Done:  E(RB3LYP) =  -495.844674557     A.U. after   12 cycles
 SCF Done:  E(RB3LYP) =  -495.847534766     A.U. after   12 cycles
 SCF Done:  E(RB3LYP) =  -495.848395882     A.U. after   12 cycles
 SCF Done:  E(RB3LYP) =  -495.838122069     A.U. after   15 cycles
 SCF Done:  E(RB3LYP) =  -495.842687621     A.U. after   12 cycles
 SCF Done:  E(RB3LYP) =  -495.845420238     A.U. after   12 cycles
 SCF Done:  E(RB3LYP) =  -495.846910500     A.U. after   12 cycles
 SCF Done:  E(RB3LYP) =  -495.846586393     A.U. after   12 cycles
 SCF Done:  E(RB3LYP) =  -495.847494126     A.U. after   12 cycles
 SCF Done:  E(RB3LYP) =  -495.848814444     A.U. after   12 cycles
 SCF Done:  E(RB3LYP) =  -495.848844287     A.U. after   10 cycles
 SCF Done:  E(RB3LYP) =  -495.848859198     A.U. after   10 cycles
 SCF Done:  E(RB3LYP) =  -495.848865940     A.U. after    9 cycles
 SCF Done:  E(RB3LYP) =  -495.848869942     A.U. after   10 cycles
 SCF Done:  E(RB3LYP) =  -495.848870391     A.U. after    8 cycles
 SCF Done:  E(RB3LYP) =  -495.848870577     A.U. after    7 cycles
 SCF Done:  E(RB3LYP) =  -495.848870688     A.U. after    7 cycles
 SCF Done:  E(RB3LYP) =  -495.848870778     A.U. after    7 cycles
 SCF Done:  E(RB3LYP) =  -495.848870861     A.U. after    8 cycles
 Optimization completed on the basis of negligible forces.
    -- Stationary point found.

                         Standard orientation:
 ---------------------------------------------------------------------
 Center     Atomic      Atomic             Coordinates (Angstroms)
 Number     Number       Type             X           Y           Z
 ---------------------------------------------------------------------
      1          1           0       -3.762532   -1.830599    0.056347
      2          6           0       -3.176737   -1.165427    0.695955
      3          1           0       -2.681122   -1.755055    1.473389
      4          1           0       -3.875748   -0.469934    1.173984
      5          6           0       -2.210597   -0.376500   -0.175889
      6          8           0       -2.551315    0.127903   -1.239173
      7          7           0       -0.927555   -0.287800    0.301456
      8          1           0       -0.749078   -0.534536    1.267625
      9          6           0        0.043789    0.627069   -0.302222
     10          1           0       -0.037474    0.492092   -1.385395
     11          6           0       -0.223331    2.095924    0.047184
     12          1           0       -0.117199    2.249601    1.124734
     13          1           0        0.493175    2.749629   -0.463754
     14          1           0       -1.232059    2.371180   -0.270762
     15          6           0        1.421046    0.186032    0.216559
     16          8           0        1.743641    0.384432    1.384564
     17          7           0        2.198949   -0.482095   -0.678524
     18          1           0        1.839993   -0.627059   -1.611203
     19          6           0        3.506551   -1.017815   -0.341542
     20          1           0        3.711316   -0.747367    0.695109
     21          1           0        3.523294   -2.109854   -0.437949
     22          1           0        4.284737   -0.593208   -0.986042
 ---------------------------------------------------------------------

 The electronic state is 1-A.
 Alpha  occ. eigenvalues --  -19.11752 -19.10762 -14.37207 -14.35916 -10.29066
 Alpha  occ. eigenvalues --  -10.28589 -10.23491 -10.22421 -10.19119 -10.17600
 Alpha  occ. eigenvalues --   -1.03844  -1.02649  -0.92840  -0.91953  -0.77732
 Alpha  occ. eigenvalues --   -0.72808  -0.71434  -0.64290  -0.59134  -0.58111
 Alpha  occ. eigenvalues --   -0.53433  -0.48163  -0.47067  -0.46298  -0.45461
 Alpha  occ. eigenvalues --   -0.44677  -0.42244  -0.41431  -0.40682  -0.39673
 Alpha  occ. eigenvalues --   -0.39484  -0.37652  -0.36784  -0.36095  -0.34622
 Alpha  occ. eigenvalues --   -0.26597  -0.25910  -0.25019  -0.24343
 Alpha virt. eigenvalues --    0.01736   0.03125   0.06907   0.08458   0.11767
 Alpha virt. eigenvalues --    0.13146   0.13329   0.15274   0.15981   0.16093
 Alpha virt. eigenvalues --    0.16755   0.16861   0.18275   0.19155   0.19657

 Mulliken atomic charges:
              1
     1  H    0.186340
     2  C   -0.537411
     3  H    0.150133
     4  H    0.183338
     5  C    0.596954
     6  O   -0.513104
     7  N   -0.601468
     8  H    0.335338
     9  C   -0.019094
    10  H    0.157780
    11  C   -0.451508
    12  H    0.167342
    13  H    0.146731
    14  H    0.174209
    15  C    0.591635
    16  O   -0.528554
    17  N   -0.585701
    18  H    0.332382
    19  C   -0.314129
    20  H    0.206246
    21  H    0.161413
    22  H    0.161129
 Sum of Mulliken atomic charges =   0.00000

 Dipole moment (field-independent basis, Debye):
    X=              1.6603    Y=             -1.8305    Z=             -0.3216  Tot=              2.4921
 Quadrupole moment (field-independent basis, Debye-Ang):
   XX=            -58.7151   YY=            -57.8005   ZZ=            -62.6102
   XY=             -0.7638   XZ=            -14.1610   YZ=             -0.5336

 Normal termination of Gaussian 09 at Fri Feb 10 21:24:02 2017.
