 Gaussian 09, Revision A.02,
 Gaussian 09:  EM64L-G09RevA.02 11-Jun-2009

 ----------------------------------------------------------------------
 # b3lyp/6-31G* Opt=(ModRedundant, maxcycles=1000, calcfc) geom=nocrowd
 ----------------------------------------------------------------------

 ------------------
 Phi Psi fixed scan
 ------------------
 Symbolic Z-matrix:
 Charge =  0 Multiplicity = 1

 SCF Done:  E(RB3LYP) =  -495.839988599     A.U. after   15 cycles

  Exact polarizability:   0.000   0.000   0.000   0.000   0.000   0.000
 Approx polarizability: 119.740   0.510 121.305  12.500  -2.804  94.942

 SCF Done:  E(RB3LYP) =  -495.842993901     A.U. after   16 cycles
 SCF Done:  E(RB3LYP) =  -495.846334639     A.U. after   12 cycles
 SCF Done:  E(RB3LYP) =  -495.847356307     A.U. after   13 cycles
 SCF Done:  E(RB3LYP) =  -495.838433401     A.U. after   14 cycles
 SCF Done:  E(RB3LYP) =  -495.842814537     A.U. after   12 cycles
 SCF Done:  E(RB3LYP) =  -495.845023903     A.U. after   12 cycles
 SCF Done:  E(RB3LYP) =  -495.845570029     A.U. after   12 cycles
 SCF Done:  E(RB3LYP) =  -495.846314139     A.U. after   12 cycles
 SCF Done:  E(RB3LYP) =  -495.845953230     A.U. after   12 cycles
 SCF Done:  E(RB3LYP) =  -495.848028534     A.U. after   12 cycles
 SCF Done:  E(RB3LYP) =  -495.848017386     A.U. after   11 cycles
 SCF Done:  E(RB3LYP) =  -495.848031979     A.U. after   10 cycles
 SCF Done:  E(RB3LYP) =  -495.848059219     A.U. after   11 cycles
 SCF Done:  E(RB3LYP) =  -495.848062406     A.U. after    8 cycles
 SCF Done:  E(RB3LYP) =  -495.848062983     A.U. after    8 cycles
 SCF Done:  E(RB3LYP) =  -495.848063254     A.U. after    7 cycles
 SCF Done:  E(RB3LYP) =  -495.848063333     A.U. after    8 cycles
 SCF Done:  E(RB3LYP) =  -495.848063335     A.U. after    7 cycles
 SCF Done:  E(RB3LYP) =  -495.848063332     A.U. after    6 cycles
 Optimization completed.
    -- Stationary point found.

                         Standard orientation:
 ---------------------------------------------------------------------
 Center     Atomic      Atomic             Coordinates (Angstroms)
 Number     Number       Type             X           Y           Z
 ---------------------------------------------------------------------
      1          1           0        3.791365   -1.738960   -0.082233
      2          6           0        3.053640   -1.252080   -0.723708
      3          1           0        2.495535   -2.011815   -1.280427
      4          1           0        3.597899   -0.626630   -1.441303
      5          6           0        2.164387   -0.367548    0.137923
      6          8           0        2.585225    0.235184    1.114238
      7          7           0        0.840407   -0.309883   -0.250320
      8          1           0        0.633837   -0.627469   -1.190680
      9          6           0       -0.045184    0.739323    0.275759
     10          1           0        0.106489    0.741336    1.361307
     11          6           0        0.280782    2.129033   -0.275109
     12          1           0        0.163017    2.155184   -1.363554
     13          1           0       -0.400728    2.871036    0.147774
     14          1           0        1.308562    2.393533   -0.013735
     15          6           0       -1.513487    0.358421   -0.007750
     16          8           0       -2.331079    1.174001   -0.414300
     17          7           0       -1.818103   -0.942891    0.271067
     18          1           0       -1.068961   -1.539158    0.594801
     19          6           0       -3.156611   -1.486628    0.133266
     20          1           0       -3.793926   -0.690625   -0.254507
     21          1           0       -3.172426   -2.332279   -0.564690
     22          1           0       -3.551115   -1.821346    1.100219
 ---------------------------------------------------------------------

 The electronic state is 1-A.
 Alpha  occ. eigenvalues --  -19.11865 -19.11405 -14.36848 -14.36415 -10.29493
 Alpha  occ. eigenvalues --  -10.28734 -10.23532 -10.22119 -10.19934 -10.17292
 Alpha  occ. eigenvalues --   -1.03921  -1.03230  -0.93416  -0.91598  -0.77872
 Alpha  occ. eigenvalues --   -0.73121  -0.71431  -0.64006  -0.58848  -0.58231
 Alpha  occ. eigenvalues --   -0.53588  -0.48253  -0.48048  -0.46290  -0.45416
 Alpha  occ. eigenvalues --   -0.44756  -0.42187  -0.41809  -0.40350  -0.40124
 Alpha  occ. eigenvalues --   -0.39177  -0.37963  -0.36624  -0.36465  -0.34882
 Alpha  occ. eigenvalues --   -0.27051  -0.25796  -0.25442  -0.24667
 Alpha virt. eigenvalues --    0.01358   0.02363   0.07039   0.09337   0.12065
 Alpha virt. eigenvalues --    0.12601   0.12832   0.14586   0.15588   0.15867
 Alpha virt. eigenvalues --    0.16542   0.17371   0.17679   0.18397   0.19651

 Mulliken atomic charges:
              1
     1  H    0.190795
     2  C   -0.542927
     3  H    0.151090
     4  H    0.185037
     5  C    0.593775
     6  O   -0.495980
     7  N   -0.614433
     8  H    0.323778
     9  C   -0.046166
    10  H    0.192253
    11  C   -0.439620
    12  H    0.143619
    13  H    0.171304
    14  H    0.166217
    15  C    0.576113
    16  O   -0.514789
    17  N   -0.583060
    18  H    0.334139
    19  C   -0.310303
    20  H    0.204419
    21  H    0.154447
    22  H    0.160292
 Sum of Mulliken atomic charges =   0.00000

 Dipole moment (field-independent basis, Debye):
    X=              0.0840    Y=             -3.7879    Z=             -1.6811  Tot=              4.1451
 Quadrupole moment (field-independent basis, Debye-Ang):
   XX=            -65.9517   YY=            -57.9566   ZZ=            -60.2257
   XY=              4.0427   XZ=             -9.2627   YZ=              0.8121

 Normal termination of Gaussian 09 at Fri Feb 10 21:42:52 2017.
