 Gaussian 09, Revision A.02,
 Gaussian 09:  EM64L-G09RevA.02 11-Jun-2009

 ----------------------------------------------------------------------
 # b3lyp/6-31G* Opt=(ModRedundant, maxcycles=1000, calcfc) geom=nocrowd
 ----------------------------------------------------------------------

 ------------------
 Phi Psi fixed scan
 ------------------
 Symbolic Z-matrix:
 Charge =  0 Multiplicity = 1

 SCF Done:  E(RB3LYP) =  -495.833044935     A.U. after   15 cycles

  Exact polarizability:   0.000   0.000   0.000   0.000   0.000   0.000
 Approx polarizability: 121.509  -1.800 116.812  11.719   0.023  98.586

 SCF Done:  E(RB3LYP) =  -495.837762985     A.U. after   12 cycles
 SCF Done:  E(RB3LYP) =  -495.843055970     A.U. after   12 cycles
 SCF Done:  E(RB3LYP) =  -495.844511029     A.U. after   12 cycles
 SCF Done:  E(RB3LYP) =  -495.843628853     A.U. after   12 cycles
 SCF Done:  E(RB3LYP) =  -495.844578402     A.U. after   12 cycles
 SCF Done:  E(RB3LYP) =  -495.845197287     A.U. after   12 cycles
 SCF Done:  E(RB3LYP) =  -495.844149618     A.U. after   13 cycles
 SCF Done:  E(RB3LYP) =  -495.845551993     A.U. after   12 cycles
 SCF Done:  E(RB3LYP) =  -495.845539011     A.U. after   11 cycles
 SCF Done:  E(RB3LYP) =  -495.845780480     A.U. after   11 cycles
 SCF Done:  E(RB3LYP) =  -495.845797677     A.U. after   10 cycles
 SCF Done:  E(RB3LYP) =  -495.845808885     A.U. after   11 cycles
 SCF Done:  E(RB3LYP) =  -495.845812130     A.U. after    9 cycles
 SCF Done:  E(RB3LYP) =  -495.845813433     A.U. after    9 cycles
 SCF Done:  E(RB3LYP) =  -495.845815400     A.U. after   10 cycles
 SCF Done:  E(RB3LYP) =  -495.845821242     A.U. after   10 cycles
 SCF Done:  E(RB3LYP) =  -495.845825225     A.U. after   10 cycles
 SCF Done:  E(RB3LYP) =  -495.845825433     A.U. after    9 cycles
 SCF Done:  E(RB3LYP) =  -495.845825526     A.U. after    7 cycles
 Optimization completed.
    -- Stationary point found.

                         Standard orientation:
 ---------------------------------------------------------------------
 Center     Atomic      Atomic             Coordinates (Angstroms)
 Number     Number       Type             X           Y           Z
 ---------------------------------------------------------------------
      1          1           0       -4.005014   -0.779473    1.177449
      2          6           0       -3.215383   -1.221184    0.563705
      3          1           0       -3.697691   -1.704009   -0.293352
      4          1           0       -2.688205   -1.981614    1.147712
      5          6           0       -2.309532   -0.107044    0.057221
      6          8           0       -2.759619    0.921207   -0.434236
      7          7           0       -0.964475   -0.340361    0.205546
      8          1           0       -0.676202   -1.306165    0.311878
      9          6           0        0.036344    0.514258   -0.443924
     10          1           0       -0.202655    0.600614   -1.513594
     11          6           0        0.052215    1.920702    0.165776
     12          1           0        0.266429    1.885000    1.240479
     13          1           0        0.794235    2.554716   -0.334852
     14          1           0       -0.929852    2.375824    0.031295
     15          6           0        1.358441   -0.278500   -0.361288
     16          8           0        1.409625   -1.416389   -0.823294
     17          7           0        2.390641    0.300583    0.306395
     18          1           0        2.278868    1.242075    0.650381
     19          6           0        3.685221   -0.343530    0.452040
     20          1           0        3.591522   -1.358572    0.064684
     21          1           0        4.461658    0.186048   -0.113142
     22          1           0        3.979860   -0.382749    1.506538
 ---------------------------------------------------------------------

 The electronic state is 1-A.
 Alpha  occ. eigenvalues --  -19.11774 -19.10749 -14.37366 -14.35573 -10.29340
 Alpha  occ. eigenvalues --  -10.28408 -10.23758 -10.22570 -10.18855 -10.18463
 Alpha  occ. eigenvalues --   -1.04008  -1.02537  -0.93003  -0.91781  -0.78086
 Alpha  occ. eigenvalues --   -0.72871  -0.70997  -0.65334  -0.59365  -0.57013
 Alpha  occ. eigenvalues --   -0.53630  -0.49645  -0.47369  -0.45469  -0.45293
 Alpha  occ. eigenvalues --   -0.44365  -0.42432  -0.41542  -0.40134  -0.39556
 Alpha  occ. eigenvalues --   -0.39081  -0.38366  -0.38067  -0.37038  -0.34222
 Alpha  occ. eigenvalues --   -0.26383  -0.25902  -0.25376  -0.24205
 Alpha virt. eigenvalues --    0.01705   0.02725   0.07489   0.09301   0.11436
 Alpha virt. eigenvalues --    0.13427   0.13830   0.14961   0.15203   0.15810
 Alpha virt. eigenvalues --    0.16063   0.17196   0.18366   0.18800   0.19544

 Mulliken atomic charges:
              1
     1  H    0.185098
     2  C   -0.536954
     3  H    0.184343
     4  H    0.150896
     5  C    0.591830
     6  O   -0.508660
     7  N   -0.604977
     8  H    0.342018
     9  C    0.015676
    10  H    0.177227
    11  C   -0.492260
    12  H    0.146150
    13  H    0.140871
    14  H    0.210790
    15  C    0.556470
    16  O   -0.526337
    17  N   -0.586067
    18  H    0.337920
    19  C   -0.314409
    20  H    0.207145
    21  H    0.162505
    22  H    0.160724
 Sum of Mulliken atomic charges =   0.00000

 Dipole moment (field-independent basis, Debye):
    X=              2.8334    Y=              0.3546    Z=              2.2832  Tot=              3.6561
 Quadrupole moment (field-independent basis, Debye-Ang):
   XX=            -56.7659   YY=            -61.1414   ZZ=            -60.7432
   XY=             11.6321   XZ=              0.5016   YZ=             -1.5418

 Normal termination of Gaussian 09 at Fri Feb 10 21:39:44 2017.
