 Gaussian 09, Revision A.02,
 Gaussian 09:  EM64L-G09RevA.02 11-Jun-2009

 ----------------------------------------------------------------------
 # b3lyp/6-31G* Opt=(ModRedundant, maxcycles=1000, calcfc) geom=nocrowd
 ----------------------------------------------------------------------

 ------------------
 Phi Psi fixed scan
 ------------------
 Symbolic Z-matrix:
 Charge =  0 Multiplicity = 1

 SCF Done:  E(RB3LYP) =  -495.834141548     A.U. after   15 cycles

  Exact polarizability:   0.000   0.000   0.000   0.000   0.000   0.000
 Approx polarizability: 122.115  -0.958 127.590   7.101 -10.867  86.448

 SCF Done:  E(RB3LYP) =  -495.838561495     A.U. after   12 cycles
 SCF Done:  E(RB3LYP) =  -495.844600891     A.U. after   12 cycles
 SCF Done:  E(RB3LYP) =  -495.842973904     A.U. after   13 cycles
 SCF Done:  E(RB3LYP) =  -495.845608544     A.U. after   12 cycles
 SCF Done:  E(RB3LYP) =  -495.846306911     A.U. after   12 cycles
 SCF Done:  E(RB3LYP) =  -495.847004151     A.U. after   13 cycles
 SCF Done:  E(RB3LYP) =  -495.847067927     A.U. after   12 cycles
 SCF Done:  E(RB3LYP) =  -495.829990735     A.U. after   15 cycles
 SCF Done:  E(RB3LYP) =  -495.847131268     A.U. after   13 cycles
 SCF Done:  E(RB3LYP) =  -495.847572276     A.U. after   12 cycles
 SCF Done:  E(RB3LYP) =  -495.847603144     A.U. after   11 cycles
 SCF Done:  E(RB3LYP) =  -495.847607043     A.U. after   10 cycles
 SCF Done:  E(RB3LYP) =  -495.847607246     A.U. after   10 cycles
 SCF Done:  E(RB3LYP) =  -495.847607876     A.U. after    8 cycles
 SCF Done:  E(RB3LYP) =  -495.847608389     A.U. after    8 cycles
 SCF Done:  E(RB3LYP) =  -495.847609793     A.U. after   10 cycles
 SCF Done:  E(RB3LYP) =  -495.847612137     A.U. after   10 cycles
 SCF Done:  E(RB3LYP) =  -495.847612435     A.U. after    8 cycles
 SCF Done:  E(RB3LYP) =  -495.847612436     A.U. after    7 cycles
 Optimization completed.
    -- Stationary point found.

                         Standard orientation:
 ---------------------------------------------------------------------
 Center     Atomic      Atomic             Coordinates (Angstroms)
 Number     Number       Type             X           Y           Z
 ---------------------------------------------------------------------
      1          1           0       -3.817116   -1.700684   -0.160291
      2          6           0       -3.066301   -1.323835    0.537936
      3          1           0       -2.506087   -2.164666    0.959227
      4          1           0       -3.597023   -0.815779    1.351826
      5          6           0       -2.184561   -0.318549   -0.188000
      6          8           0       -2.625435    0.460825   -1.018097
      7          7           0       -0.839863   -0.370636    0.140681
      8          1           0       -0.634352   -0.811551    1.031617
      9          6           0        0.039867    0.756782   -0.198222
     10          1           0       -0.163997    0.988520   -1.249655
     11          6           0       -0.240447    2.011094    0.639419
     12          1           0       -0.109254    1.803552    1.708240
     13          1           0        0.458655    2.802596    0.361919
     14          1           0       -1.264462    2.350348    0.464147
     15          6           0        1.525423    0.363174   -0.094306
     16          8           0        2.401352    1.216974   -0.043175
     17          7           0        1.782602   -0.978927   -0.033706
     18          1           0        1.026016   -1.598489   -0.292504
     19          6           0        3.144073   -1.488100   -0.067960
     20          1           0        3.794242   -0.743259    0.392875
     21          1           0        3.204002   -2.424805    0.494242
     22          1           0        3.494551   -1.664630   -1.093489
 ---------------------------------------------------------------------

 The electronic state is 1-A.
 Alpha  occ. eigenvalues --  -19.12125 -19.11276 -14.36926 -14.36484 -10.29689
 Alpha  occ. eigenvalues --  -10.28739 -10.23586 -10.22131 -10.20067 -10.17651
 Alpha  occ. eigenvalues --   -1.04120  -1.03255  -0.93651  -0.91555  -0.77946
 Alpha  occ. eigenvalues --   -0.73242  -0.71387  -0.64192  -0.58980  -0.58065
 Alpha  occ. eigenvalues --   -0.53778  -0.48280  -0.48059  -0.46266  -0.45547
 Alpha  occ. eigenvalues --   -0.44364  -0.42464  -0.41847  -0.40656  -0.40470
 Alpha  occ. eigenvalues --   -0.39330  -0.38192  -0.36737  -0.36283  -0.34740
 Alpha  occ. eigenvalues --   -0.27458  -0.25997  -0.25785  -0.24470
 Alpha virt. eigenvalues --    0.01140   0.02465   0.06457   0.09911   0.12207
 Alpha virt. eigenvalues --    0.12910   0.12961   0.14291   0.14845   0.15385
 Alpha virt. eigenvalues --    0.16949   0.17623   0.17701   0.18145   0.19615

 Mulliken atomic charges:
              1
     1  H    0.192228
     2  C   -0.543368
     3  H    0.150076
     4  H    0.185395
     5  C    0.594199
     6  O   -0.490866
     7  N   -0.623704
     8  H    0.321395
     9  C   -0.046707
    10  H    0.202012
    11  C   -0.449680
    12  H    0.136839
    13  H    0.184094
    14  H    0.169693
    15  C    0.590075
    16  O   -0.518300
    17  N   -0.596434
    18  H    0.334337
    19  C   -0.305986
    20  H    0.199709
    21  H    0.152704
    22  H    0.162288
 Sum of Mulliken atomic charges =   0.00000

 Dipole moment (field-independent basis, Debye):
    X=             -0.2905    Y=             -4.2178    Z=              2.1252  Tot=              4.7319
 Quadrupole moment (field-independent basis, Debye-Ang):
   XX=            -66.6514   YY=            -58.0471   ZZ=            -60.0316
   XY=             -3.1958   XZ=             -6.4978   YZ=              0.5589

 Normal termination of Gaussian 09 at Fri Feb 10 21:28:26 2017.
