 Gaussian 09, Revision A.02,
 Gaussian 09:  EM64L-G09RevA.02 11-Jun-2009

 ----------------------------------------------------------------------
 # b3lyp/6-31G* Opt=(ModRedundant, maxcycles=1000, calcfc) geom=nocrowd
 ----------------------------------------------------------------------

 ------------------
 Phi Psi fixed scan
 ------------------
 Symbolic Z-matrix:
 Charge =  0 Multiplicity = 1

 SCF Done:  E(RB3LYP) =  -495.836258182     A.U. after   16 cycles

  Exact polarizability:   0.000   0.000   0.000   0.000   0.000   0.000
 Approx polarizability: 118.025 -10.639 113.181   1.381  15.183 104.077

 SCF Done:  E(RB3LYP) =  -495.839248905     A.U. after   16 cycles
 SCF Done:  E(RB3LYP) =  -495.842439645     A.U. after   16 cycles
 SCF Done:  E(RB3LYP) =  -495.843034493     A.U. after   12 cycles
 SCF Done:  E(RB3LYP) =  -495.797901559     A.U. after   14 cycles
 SCF Done:  E(RB3LYP) =  -495.811955968     A.U. after   12 cycles
 SCF Done:  E(RB3LYP) =  -495.822771033     A.U. after   12 cycles
 SCF Done:  E(RB3LYP) =  -495.830847936     A.U. after   12 cycles
 SCF Done:  E(RB3LYP) =  -495.836788457     A.U. after   12 cycles
 SCF Done:  E(RB3LYP) =  -495.839956109     A.U. after   13 cycles
 SCF Done:  E(RB3LYP) =  -495.843353010     A.U. after   11 cycles
 SCF Done:  E(RB3LYP) =  -495.843382887     A.U. after   11 cycles
 SCF Done:  E(RB3LYP) =  -495.843404407     A.U. after   10 cycles
 SCF Done:  E(RB3LYP) =  -495.843434184     A.U. after   11 cycles
 SCF Done:  E(RB3LYP) =  -495.843440707     A.U. after   11 cycles
 SCF Done:  E(RB3LYP) =  -495.843442465     A.U. after    9 cycles
 SCF Done:  E(RB3LYP) =  -495.843444799     A.U. after   10 cycles
 SCF Done:  E(RB3LYP) =  -495.843445903     A.U. after   10 cycles
 SCF Done:  E(RB3LYP) =  -495.843446203     A.U. after    8 cycles
 SCF Done:  E(RB3LYP) =  -495.843446209     A.U. after    7 cycles
 Optimization completed.
    -- Stationary point found.

                         Standard orientation:
 ---------------------------------------------------------------------
 Center     Atomic      Atomic             Coordinates (Angstroms)
 Number     Number       Type             X           Y           Z
 ---------------------------------------------------------------------
      1          1           0        3.808980   -1.451410   -0.765142
      2          6           0        3.045184   -1.535675    0.012934
      3          1           0        3.564983   -1.666541    0.967876
      4          1           0        2.433875   -2.422889   -0.180783
      5          6           0        2.250494   -0.237478    0.059444
      6          8           0        2.796585    0.856044    0.129948
      7          7           0        0.887388   -0.380624    0.014831
      8          1           0        0.500335   -1.307897    0.121493
      9          6           0       -0.019284    0.759637    0.211741
     10          1           0        0.272133    1.290950    1.122775
     11          6           0        0.021603    1.746330   -0.966830
     12          1           0       -0.238250    1.259127   -1.913886
     13          1           0       -0.683369    2.566651   -0.793587
     14          1           0        1.028850    2.157043   -1.055938
     15          6           0       -1.437404    0.227703    0.477919
     16          8           0       -2.038853    0.471594    1.514293
     17          7           0       -1.961415   -0.535294   -0.533021
     18          1           0       -1.453361   -0.585085   -1.405239
     19          6           0       -3.321537   -1.047114   -0.495901
     20          1           0       -3.671407   -0.974026    0.534521
     21          1           0       -3.993069   -0.462368   -1.137373
     22          1           0       -3.347695   -2.093656   -0.817151
 ---------------------------------------------------------------------

 The electronic state is 1-A.
 Alpha  occ. eigenvalues --  -19.11859 -19.11071 -14.37185 -14.36545 -10.29191
 Alpha  occ. eigenvalues --  -10.28961 -10.23624 -10.22576 -10.19520 -10.18405
 Alpha  occ. eigenvalues --   -1.03923  -1.03009  -0.93416  -0.91812  -0.78244
 Alpha  occ. eigenvalues --   -0.73126  -0.71358  -0.65026  -0.59083  -0.58174
 Alpha  occ. eigenvalues --   -0.53924  -0.49791  -0.47316  -0.45870  -0.45070
 Alpha  occ. eigenvalues --   -0.44411  -0.42892  -0.41575  -0.41058  -0.40020
 Alpha  occ. eigenvalues --   -0.39560  -0.38336  -0.37626  -0.36526  -0.34586
 Alpha  occ. eigenvalues --   -0.26847  -0.26018  -0.25097  -0.24579
 Alpha virt. eigenvalues --    0.01208   0.02888   0.06340   0.07931   0.11358
 Alpha virt. eigenvalues --    0.12542   0.13648   0.15024   0.15452   0.15584
 Alpha virt. eigenvalues --    0.16373   0.17668   0.18231   0.18599   0.19837

 Mulliken atomic charges:
              1
     1  H    0.187358
     2  C   -0.536532
     3  H    0.188028
     4  H    0.142676
     5  C    0.599327
     6  O   -0.505495
     7  N   -0.622757
     8  H    0.328335
     9  C   -0.005962
    10  H    0.187026
    11  C   -0.458746
    12  H    0.128713
    13  H    0.159982
    14  H    0.201196
    15  C    0.551864
    16  O   -0.503504
    17  N   -0.584630
    18  H    0.329315
    19  C   -0.310267
    20  H    0.205563
    21  H    0.162663
    22  H    0.155846
 Sum of Mulliken atomic charges =   0.00000

 Dipole moment (field-independent basis, Debye):
    X=             -1.3869    Y=             -3.6174    Z=             -3.1541  Tot=              4.9957
 Quadrupole moment (field-independent basis, Debye-Ang):
   XX=            -64.7300   YY=            -57.3745   ZZ=            -62.1146
   XY=             -3.7238   XZ=              6.6893   YZ=             -1.1630

 Normal termination of Gaussian 09 at Fri Feb 10 21:38:53 2017.
