 Gaussian 09, Revision A.02,
 Gaussian 09:  EM64L-G09RevA.02 11-Jun-2009

 ----------------------------------------------------------------------
 # b3lyp/6-31G* Opt=(ModRedundant, maxcycles=1000, calcfc) geom=nocrowd
 ----------------------------------------------------------------------

 ------------------
 Phi Psi fixed scan
 ------------------
 Symbolic Z-matrix:
 Charge =  0 Multiplicity = 1

 SCF Done:  E(RB3LYP) =  -495.847046477     A.U. after   14 cycles

  Exact polarizability:   0.000   0.000   0.000   0.000   0.000   0.000
 Approx polarizability: 118.408  -1.753 118.576  -1.141 -21.994  96.701

 SCF Done:  E(RB3LYP) =  -495.849596037     A.U. after   12 cycles
 SCF Done:  E(RB3LYP) =  -495.852002285     A.U. after   12 cycles
 SCF Done:  E(RB3LYP) =  -495.852095322     A.U. after   12 cycles
 SCF Done:  E(RB3LYP) =  -495.852287005     A.U. after   12 cycles
 SCF Done:  E(RB3LYP) =  -495.799882746     A.U. after   13 cycles
 SCF Done:  E(RB3LYP) =  -495.852313670     A.U. after   15 cycles
 SCF Done:  E(RB3LYP) =  -495.852390264     A.U. after   11 cycles
 SCF Done:  E(RB3LYP) =  -495.852443952     A.U. after   11 cycles
 SCF Done:  E(RB3LYP) =  -495.852469416     A.U. after   11 cycles
 SCF Done:  E(RB3LYP) =  -495.852484491     A.U. after   10 cycles
 SCF Done:  E(RB3LYP) =  -495.852487446     A.U. after   10 cycles
 SCF Done:  E(RB3LYP) =  -495.852488612     A.U. after    9 cycles
 SCF Done:  E(RB3LYP) =  -495.852489390     A.U. after    9 cycles
 SCF Done:  E(RB3LYP) =  -495.852489479     A.U. after    7 cycles
 Optimization completed.
    -- Stationary point found.

                         Standard orientation:
 ---------------------------------------------------------------------
 Center     Atomic      Atomic             Coordinates (Angstroms)
 Number     Number       Type             X           Y           Z
 ---------------------------------------------------------------------
      1          1           0       -3.864610   -1.393804   -0.945993
      2          6           0       -3.345569   -1.168950   -0.009489
      3          1           0       -2.922376   -2.093027    0.396108
      4          1           0       -4.092096   -0.782021    0.691696
      5          6           0       -2.309588   -0.085529   -0.272255
      6          8           0       -2.605199    0.987554   -0.791240
      7          7           0       -1.034160   -0.391665    0.096696
      8          1           0       -0.804253   -1.251607    0.580186
      9          6           0        0.058378    0.555013   -0.031042
     10          1           0       -0.005787    1.012616   -1.025465
     11          6           0       -0.002410    1.671052    1.030810
     12          1           0        0.069340    1.241693    2.035361
     13          1           0        0.817649    2.386323    0.898294
     14          1           0       -0.951105    2.203768    0.931626
     15          6           0        1.357193   -0.250245    0.113285
     16          8           0        1.404686   -1.256564    0.817140
     17          7           0        2.425004    0.244671   -0.567765
     18          1           0        2.288734    1.063345   -1.143639
     19          6           0        3.753380   -0.339597   -0.488744
     20          1           0        3.688429   -1.208713    0.166809
     21          1           0        4.100414   -0.660509   -1.477455
     22          1           0        4.475553    0.372514   -0.072641
 ---------------------------------------------------------------------

 The electronic state is 1-A.
 Alpha  occ. eigenvalues --  -19.12344 -19.09883 -14.37547 -14.35094 -10.29543
 Alpha  occ. eigenvalues --  -10.27905 -10.23684 -10.22704 -10.18524 -10.18317
 Alpha  occ. eigenvalues --   -1.04364  -1.01883  -0.93234  -0.91500  -0.77905
 Alpha  occ. eigenvalues --   -0.72706  -0.71268  -0.64699  -0.59762  -0.57551
 Alpha  occ. eigenvalues --   -0.53583  -0.48305  -0.47096  -0.46316  -0.45296
 Alpha  occ. eigenvalues --   -0.44360  -0.42882  -0.41417  -0.40510  -0.40014
 Alpha  occ. eigenvalues --   -0.38825  -0.38061  -0.36916  -0.36601  -0.33994
 Alpha  occ. eigenvalues --   -0.26664  -0.26485  -0.24403  -0.23841
 Alpha virt. eigenvalues --    0.01665   0.03901   0.06514   0.09608   0.11572
 Alpha virt. eigenvalues --    0.13202   0.13738   0.14994   0.15703   0.15893
 Alpha virt. eigenvalues --    0.16775   0.17475   0.18377   0.18647   0.19013

 Mulliken atomic charges:
              1
     1  H    0.182900
     2  C   -0.533344
     3  H    0.148147
     4  H    0.181590
     5  C    0.599430
     6  O   -0.525577
     7  N   -0.605995
     8  H    0.344443
     9  C   -0.020225
    10  H    0.160618
    11  C   -0.447215
    12  H    0.159693
    13  H    0.137418
    14  H    0.190890
    15  C    0.601019
    16  O   -0.532385
    17  N   -0.591320
    18  H    0.331401
    19  C   -0.313642
    20  H    0.207351
    21  H    0.162907
    22  H    0.161895
 Sum of Mulliken atomic charges =   0.00000

 Dipole moment (field-independent basis, Debye):
    X=              2.9351    Y=              0.0618    Z=             -0.4525  Tot=              2.9704
 Quadrupole moment (field-independent basis, Debye-Ang):
   XX=            -55.0626   YY=            -61.5231   ZZ=            -60.6270
   XY=             11.1044   XZ=             -8.5576   YZ=              2.2050

 Normal termination of Gaussian 09 at Fri Feb 10 21:23:44 2017.
