 Gaussian 09, Revision A.02,
 Gaussian 09:  EM64L-G09RevA.02 11-Jun-2009

 ----------------------------------------------------------------------
 # b3lyp/6-31G* Opt=(ModRedundant, maxcycles=1000, calcfc) geom=nocrowd
 ----------------------------------------------------------------------

 ------------------
 Phi Psi fixed scan
 ------------------
 Symbolic Z-matrix:
 Charge =  0 Multiplicity = 1

 SCF Done:  E(RB3LYP) =  -495.838686050     A.U. after   15 cycles

  Exact polarizability:   0.000   0.000   0.000   0.000   0.000   0.000
 Approx polarizability: 121.316   0.068 125.203  10.115  -6.957  89.766

 SCF Done:  E(RB3LYP) =  -495.841872615     A.U. after   12 cycles
 SCF Done:  E(RB3LYP) =  -495.845805350     A.U. after   12 cycles
 SCF Done:  E(RB3LYP) =  -495.847475139     A.U. after   16 cycles
 SCF Done:  E(RB3LYP) =  -495.847562860     A.U. after   13 cycles
 SCF Done:  E(RB3LYP) =  -495.848064244     A.U. after   12 cycles
 SCF Done:  E(RB3LYP) =  -495.847792287     A.U. after   12 cycles
 SCF Done:  E(RB3LYP) =  -495.848208688     A.U. after   12 cycles
 SCF Done:  E(RB3LYP) =  -495.848265925     A.U. after   11 cycles
 SCF Done:  E(RB3LYP) =  -495.848271499     A.U. after   10 cycles
 SCF Done:  E(RB3LYP) =  -495.848277478     A.U. after   10 cycles
 SCF Done:  E(RB3LYP) =  -495.848285449     A.U. after   10 cycles
 SCF Done:  E(RB3LYP) =  -495.848297483     A.U. after   10 cycles
 SCF Done:  E(RB3LYP) =  -495.848322331     A.U. after   11 cycles
 SCF Done:  E(RB3LYP) =  -495.848323835     A.U. after   11 cycles
 SCF Done:  E(RB3LYP) =  -495.848328878     A.U. after   10 cycles
 SCF Done:  E(RB3LYP) =  -495.848329781     A.U. after    9 cycles
 SCF Done:  E(RB3LYP) =  -495.848329778     A.U. after    7 cycles
 Optimization completed.
    -- Stationary point found.

                         Standard orientation:
 ---------------------------------------------------------------------
 Center     Atomic      Atomic             Coordinates (Angstroms)
 Number     Number       Type             X           Y           Z
 ---------------------------------------------------------------------
      1          1           0        3.808697   -1.714465    0.031427
      2          6           0        3.055959   -1.289224   -0.635957
      3          1           0        2.496980   -2.097658   -1.118149
      4          1           0        3.582745   -0.720752   -1.411681
      5          6           0        2.171020   -0.344358    0.163647
      6          8           0        2.601292    0.344855    1.075762
      7          7           0        0.837058   -0.338970   -0.201705
      8          1           0        0.631051   -0.717099   -1.120180
      9          6           0       -0.044768    0.752940    0.235055
     10          1           0        0.128489    0.862568    1.312111
     11          6           0        0.265678    2.086738   -0.450825
     12          1           0        0.151672    2.002686   -1.537648
     13          1           0       -0.428271    2.854509   -0.102287
     14          1           0        1.289879    2.389330   -0.218587
     15          6           0       -1.523435    0.363355    0.036079
     16          8           0       -2.384357    1.205699   -0.183800
     17          7           0       -1.785500   -0.973165    0.141135
     18          1           0       -1.021689   -1.573390    0.421246
     19          6           0       -3.136389   -1.504846    0.109481
     20          1           0       -3.788828   -0.722696   -0.281068
     21          1           0       -3.189930   -2.383220   -0.542798
     22          1           0       -3.485575   -1.786928    1.111025
 ---------------------------------------------------------------------

 The electronic state is 1-A.
 Alpha  occ. eigenvalues --  -19.12026 -19.11287 -14.36910 -14.36422 -10.29617
 Alpha  occ. eigenvalues --  -10.28730 -10.23579 -10.22101 -10.20021 -10.17429
 Alpha  occ. eigenvalues --   -1.04038  -1.03211  -0.93567  -0.91544  -0.77916
 Alpha  occ. eigenvalues --   -0.73184  -0.71428  -0.64073  -0.58936  -0.58142
 Alpha  occ. eigenvalues --   -0.53697  -0.48286  -0.48074  -0.46286  -0.45493
 Alpha  occ. eigenvalues --   -0.44591  -0.42308  -0.41832  -0.40484  -0.40269
 Alpha  occ. eigenvalues --   -0.39207  -0.38136  -0.36655  -0.36374  -0.34828
 Alpha  occ. eigenvalues --   -0.27195  -0.25804  -0.25708  -0.24568
 Alpha virt. eigenvalues --    0.01222   0.02514   0.06789   0.09740   0.12167
 Alpha virt. eigenvalues --    0.12760   0.12922   0.14409   0.15256   0.15621
 Alpha virt. eigenvalues --    0.16656   0.17439   0.17683   0.18230   0.19651

 Mulliken atomic charges:
              1
     1  H    0.191608
     2  C   -0.543517
     3  H    0.150946
     4  H    0.185117
     5  C    0.594013
     6  O   -0.493015
     7  N   -0.620861
     8  H    0.322638
     9  C   -0.045913
    10  H    0.198455
    11  C   -0.444376
    12  H    0.138987
    13  H    0.179032
    14  H    0.167656
    15  C    0.583234
    16  O   -0.517763
    17  N   -0.590168
    18  H    0.334743
    19  C   -0.309044
    20  H    0.203485
    21  H    0.154009
    22  H    0.160732
 Sum of Mulliken atomic charges =   0.00000

 Dipole moment (field-independent basis, Debye):
    X=              0.2408    Y=             -4.0141    Z=             -1.9155  Tot=              4.4542
 Quadrupole moment (field-independent basis, Debye-Ang):
   XX=            -66.4979   YY=            -58.0317   ZZ=            -60.0227
   XY=              3.6976   XZ=             -7.9722   YZ=              0.1747

 Normal termination of Gaussian 09 at Fri Feb 10 21:43:50 2017.
