 Gaussian 09, Revision A.02,
 Gaussian 09:  EM64L-G09RevA.02 11-Jun-2009

 ----------------------------------------------------------------------
 # b3lyp/6-31G* Opt=(ModRedundant, maxcycles=1000, calcfc) geom=nocrowd
 ----------------------------------------------------------------------

 ------------------
 Phi Psi fixed scan
 ------------------
 Symbolic Z-matrix:
 Charge =  0 Multiplicity = 1

 SCF Done:  E(RB3LYP) =  -495.831937571     A.U. after   15 cycles

  Exact polarizability:   0.000   0.000   0.000   0.000   0.000   0.000
 Approx polarizability: 120.162   5.371 110.676  11.820  -2.442 106.096

 SCF Done:  E(RB3LYP) =  -495.836484462     A.U. after   13 cycles
 SCF Done:  E(RB3LYP) =  -495.841498808     A.U. after   13 cycles
 SCF Done:  E(RB3LYP) =  -495.842605293     A.U. after   12 cycles
 SCF Done:  E(RB3LYP) =  -495.841319709     A.U. after   12 cycles
 SCF Done:  E(RB3LYP) =  -495.842681150     A.U. after   12 cycles
 SCF Done:  E(RB3LYP) =  -495.843070515     A.U. after   12 cycles
 SCF Done:  E(RB3LYP) =  -495.842568471     A.U. after   13 cycles
 SCF Done:  E(RB3LYP) =  -495.843510951     A.U. after   12 cycles
 SCF Done:  E(RB3LYP) =  -495.843486340     A.U. after   11 cycles
 SCF Done:  E(RB3LYP) =  -495.843638607     A.U. after   10 cycles
 SCF Done:  E(RB3LYP) =  -495.843643375     A.U. after   10 cycles
 SCF Done:  E(RB3LYP) =  -495.843648120     A.U. after    9 cycles
 SCF Done:  E(RB3LYP) =  -495.843656370     A.U. after    9 cycles
 SCF Done:  E(RB3LYP) =  -495.843668080     A.U. after   10 cycles
 SCF Done:  E(RB3LYP) =  -495.843674915     A.U. after   10 cycles
 SCF Done:  E(RB3LYP) =  -495.843676424     A.U. after   10 cycles
 SCF Done:  E(RB3LYP) =  -495.843676716     A.U. after    9 cycles
 SCF Done:  E(RB3LYP) =  -495.843676715     A.U. after    7 cycles
 SCF Done:  E(RB3LYP) =  -495.843676704     A.U. after    6 cycles
 Optimization completed.
    -- Stationary point found.

                         Standard orientation:
 ---------------------------------------------------------------------
 Center     Atomic      Atomic             Coordinates (Angstroms)
 Number     Number       Type             X           Y           Z
 ---------------------------------------------------------------------
      1          1           0        3.968211   -0.853964   -1.205767
      2          6           0        3.158661   -1.279235   -0.607038
      3          1           0        3.615894   -1.799334    0.242143
      4          1           0        2.607479   -2.006863   -1.210629
      5          6           0        2.291184   -0.143037   -0.082439
      6          8           0        2.774813    0.875446    0.395487
      7          7           0        0.936753   -0.346402   -0.194868
      8          1           0        0.631767   -1.304716   -0.313380
      9          6           0       -0.027638    0.536566    0.478336
     10          1           0        0.239082    0.616680    1.540006
     11          6           0       -0.024654    1.941414   -0.136170
     12          1           0       -0.200475    1.904821   -1.218370
     13          1           0       -0.788054    2.571375    0.335087
     14          1           0        0.952493    2.398870    0.023581
     15          6           0       -1.375174   -0.214404    0.441251
     16          8           0       -1.530482   -1.219528    1.129208
     17          7           0       -2.303459    0.230569   -0.448945
     18          1           0       -2.115524    1.078219   -0.962560
     19          6           0       -3.605083   -0.397643   -0.598743
     20          1           0       -3.602656   -1.304057    0.007665
     21          1           0       -4.410371    0.262175   -0.253700
     22          1           0       -3.789321   -0.661676   -1.646121
 ---------------------------------------------------------------------

 The electronic state is 1-A.
 Alpha  occ. eigenvalues --  -19.11640 -19.10944 -14.37193 -14.35931 -10.29176
 Alpha  occ. eigenvalues --  -10.28620 -10.23696 -10.22485 -10.19068 -10.18454
 Alpha  occ. eigenvalues --   -1.03857  -1.02736  -0.92877  -0.91939  -0.78122
 Alpha  occ. eigenvalues --   -0.72957  -0.71002  -0.65313  -0.59144  -0.57322
 Alpha  occ. eigenvalues --   -0.53645  -0.49782  -0.47344  -0.45495  -0.45045
 Alpha  occ. eigenvalues --   -0.44537  -0.42379  -0.41561  -0.40336  -0.39791
 Alpha  occ. eigenvalues --   -0.38759  -0.38547  -0.38169  -0.36883  -0.34370
 Alpha  occ. eigenvalues --   -0.26451  -0.25601  -0.25452  -0.24368
 Alpha virt. eigenvalues --    0.01649   0.02616   0.07382   0.08576   0.11427
 Alpha virt. eigenvalues --    0.13057   0.13704   0.14945   0.15718   0.15780
 Alpha virt. eigenvalues --    0.16226   0.17144   0.18284   0.18812   0.19551

 Mulliken atomic charges:
              1
     1  H    0.186263
     2  C   -0.538294
     3  H    0.185424
     4  H    0.150058
     5  C    0.593453
     6  O   -0.505896
     7  N   -0.606439
     8  H    0.338980
     9  C    0.019484
    10  H    0.178160
    11  C   -0.488765
    12  H    0.140810
    13  H    0.146661
    14  H    0.208854
    15  C    0.543001
    16  O   -0.519450
    17  N   -0.582468
    18  H    0.336321
    19  C   -0.314171
    20  H    0.206471
    21  H    0.162051
    22  H    0.159492
 Sum of Mulliken atomic charges =   0.00000

 Dipole moment (field-independent basis, Debye):
    X=             -2.4678    Y=             -0.0237    Z=             -2.9672  Tot=              3.8594
 Quadrupole moment (field-independent basis, Debye-Ang):
   XX=            -58.5361   YY=            -60.0216   ZZ=            -61.3259
   XY=            -10.9113   XZ=              2.1209   YZ=              2.0511

 Normal termination of Gaussian 09 at Fri Feb 10 21:32:10 2017.
