 Gaussian 09, Revision A.02,
 Gaussian 09:  EM64L-G09RevA.02 11-Jun-2009

 ----------------------------------------------------------------------
 # b3lyp/6-31G* Opt=(ModRedundant, maxcycles=1000, calcfc) geom=nocrowd
 ----------------------------------------------------------------------

 ------------------
 Phi Psi fixed scan
 ------------------
 Symbolic Z-matrix:
 Charge =  0 Multiplicity = 1

 SCF Done:  E(RB3LYP) =  -495.840326521     A.U. after   15 cycles

  Exact polarizability:   0.000   0.000   0.000   0.000   0.000   0.000
 Approx polarizability: 115.482  -3.729 103.614  11.438   4.537 116.519

 SCF Done:  E(RB3LYP) =  -495.843103504     A.U. after   12 cycles
 SCF Done:  E(RB3LYP) =  -495.846132728     A.U. after   12 cycles
 SCF Done:  E(RB3LYP) =  -495.847036523     A.U. after   12 cycles
 SCF Done:  E(RB3LYP) =  -495.800528850     A.U. after   16 cycles
 SCF Done:  E(RB3LYP) =  -495.847036529     A.U. after   16 cycles
 SCF Done:  E(RB3LYP) =  -495.847351272     A.U. after   12 cycles
 SCF Done:  E(RB3LYP) =  -495.847216165     A.U. after   13 cycles
 SCF Done:  E(RB3LYP) =  -495.847544106     A.U. after   12 cycles
 SCF Done:  E(RB3LYP) =  -495.847561673     A.U. after   11 cycles
 SCF Done:  E(RB3LYP) =  -495.847566442     A.U. after   10 cycles
 SCF Done:  E(RB3LYP) =  -495.847570696     A.U. after    9 cycles
 SCF Done:  E(RB3LYP) =  -495.847577380     A.U. after   10 cycles
 SCF Done:  E(RB3LYP) =  -495.847580804     A.U. after   10 cycles
 SCF Done:  E(RB3LYP) =  -495.847582420     A.U. after   10 cycles
 SCF Done:  E(RB3LYP) =  -495.847582942     A.U. after    9 cycles
 SCF Done:  E(RB3LYP) =  -495.847583120     A.U. after    9 cycles
 Optimization completed.
    -- Stationary point found.

                         Standard orientation:
 ---------------------------------------------------------------------
 Center     Atomic      Atomic             Coordinates (Angstroms)
 Number     Number       Type             X           Y           Z
 ---------------------------------------------------------------------
      1          1           0       -3.718172   -1.853628    0.249384
      2          6           0       -3.118416   -1.145733    0.826997
      3          1           0       -2.595582   -1.681163    1.625678
      4          1           0       -3.807559   -0.424406    1.280697
      5          6           0       -2.183464   -0.409622   -0.121685
      6          8           0       -2.551120    0.003870   -1.213810
      7          7           0       -0.891522   -0.262640    0.323985
      8          1           0       -0.711837   -0.420372    1.308520
      9          6           0        0.039776    0.647563   -0.353153
     10          1           0       -0.058005    0.438537   -1.423228
     11          6           0       -0.271313    2.123843   -0.095237
     12          1           0       -0.143135    2.358164    0.964989
     13          1           0        0.410753    2.763735   -0.666219
     14          1           0       -1.295888    2.342947   -0.405957
     15          6           0        1.449126    0.282791    0.148161
     16          8           0        1.912781    0.774628    1.171736
     17          7           0        2.091654   -0.663885   -0.592044
     18          1           0        1.614744   -1.045320   -1.396601
     19          6           0        3.390485   -1.202847   -0.229312
     20          1           0        3.736780   -0.654770    0.647882
     21          1           0        3.325065   -2.269568    0.017526
     22          1           0        4.111461   -1.072439   -1.044295
 ---------------------------------------------------------------------

 The electronic state is 1-A.
 Alpha  occ. eigenvalues --  -19.11698 -19.11083 -14.36946 -14.36220 -10.28954
 Alpha  occ. eigenvalues --  -10.28853 -10.23474 -10.22309 -10.19366 -10.17399
 Alpha  occ. eigenvalues --   -1.03769  -1.02923  -0.92834  -0.91992  -0.77744
 Alpha  occ. eigenvalues --   -0.72883  -0.71425  -0.64168  -0.58845  -0.58310
 Alpha  occ. eigenvalues --   -0.53423  -0.48153  -0.47321  -0.46282  -0.45369
 Alpha  occ. eigenvalues --   -0.44801  -0.42143  -0.41486  -0.40613  -0.39739
 Alpha  occ. eigenvalues --   -0.39518  -0.37593  -0.36863  -0.36031  -0.34760
 Alpha  occ. eigenvalues --   -0.26711  -0.25663  -0.25277  -0.24504
 Alpha virt. eigenvalues --    0.01829   0.02650   0.07232   0.07987   0.11832
 Alpha virt. eigenvalues --    0.12908   0.13149   0.15155   0.15783   0.16207
 Alpha virt. eigenvalues --    0.16790   0.17023   0.18199   0.19346   0.19468

 Mulliken atomic charges:
              1
     1  H    0.187371
     2  C   -0.538574
     3  H    0.150087
     4  H    0.184349
     5  C    0.595744
     6  O   -0.508730
     7  N   -0.602089
     8  H    0.332502
     9  C   -0.028276
    10  H    0.162122
    11  C   -0.447839
    12  H    0.165816
    13  H    0.149990
    14  H    0.170086
    15  C    0.584950
    16  O   -0.519577
    17  N   -0.582637
    18  H    0.332852
    19  C   -0.313636
    20  H    0.205259
    21  H    0.159545
    22  H    0.160686
 Sum of Mulliken atomic charges =   0.00000

 Dipole moment (field-independent basis, Debye):
    X=              1.1137    Y=             -2.4740    Z=              0.2349  Tot=              2.7233
 Quadrupole moment (field-independent basis, Debye-Ang):
   XX=            -60.9553   YY=            -57.8822   ZZ=            -61.7701
   XY=             -3.2743   XZ=            -13.2179   YZ=             -1.2658

 Normal termination of Gaussian 09 at Fri Feb 10 21:38:36 2017.
