 Gaussian 09, Revision A.02,
 Gaussian 09:  EM64L-G09RevA.02 11-Jun-2009

 ----------------------------------------------------------------------
 # b3lyp/6-31G* Opt=(ModRedundant, maxcycles=1000, calcfc) geom=nocrowd
 ----------------------------------------------------------------------

 ------------------
 Phi Psi fixed scan
 ------------------
 Symbolic Z-matrix:
 Charge =  0 Multiplicity = 1

 SCF Done:  E(RB3LYP) =  -495.832403580     A.U. after   15 cycles

  Exact polarizability:   0.000   0.000   0.000   0.000   0.000   0.000
 Approx polarizability: 118.746   9.872 104.292   8.900   0.478 113.494

 SCF Done:  E(RB3LYP) =  -495.836529048     A.U. after   12 cycles
 SCF Done:  E(RB3LYP) =  -495.841021409     A.U. after   13 cycles
 SCF Done:  E(RB3LYP) =  -495.841718706     A.U. after   13 cycles
 SCF Done:  E(RB3LYP) =  -495.837984758     A.U. after   13 cycles
 SCF Done:  E(RB3LYP) =  -495.841806719     A.U. after   14 cycles
 SCF Done:  E(RB3LYP) =  -495.841986099     A.U. after   12 cycles
 SCF Done:  E(RB3LYP) =  -495.792033253     A.U. after   15 cycles
 SCF Done:  E(RB3LYP) =  -495.842037963     A.U. after   15 cycles
 SCF Done:  E(RB3LYP) =  -495.842205956     A.U. after   12 cycles
 SCF Done:  E(RB3LYP) =  -495.842309792     A.U. after   11 cycles
 SCF Done:  E(RB3LYP) =  -495.842319093     A.U. after   11 cycles
 SCF Done:  E(RB3LYP) =  -495.842338457     A.U. after   11 cycles
 SCF Done:  E(RB3LYP) =  -495.842343942     A.U. after   11 cycles
 SCF Done:  E(RB3LYP) =  -495.842346198     A.U. after    9 cycles
 SCF Done:  E(RB3LYP) =  -495.842351177     A.U. after   10 cycles
 SCF Done:  E(RB3LYP) =  -495.842353361     A.U. after   10 cycles
 SCF Done:  E(RB3LYP) =  -495.842351593     A.U. after   11 cycles
 SCF Done:  E(RB3LYP) =  -495.842349897     A.U. after    9 cycles
 SCF Done:  E(RB3LYP) =  -495.842349311     A.U. after    7 cycles
 Optimization completed.
    -- Stationary point found.

                         Standard orientation:
 ---------------------------------------------------------------------
 Center     Atomic      Atomic             Coordinates (Angstroms)
 Number     Number       Type             X           Y           Z
 ---------------------------------------------------------------------
      1          1           0        3.870207   -1.001584   -1.240418
      2          6           0        3.116650   -1.370373   -0.539100
      3          1           0        3.648407   -1.796173    0.318444
      4          1           0        2.534563   -2.161262   -1.022462
      5          6           0        2.277119   -0.193182   -0.061453
      6          8           0        2.786477    0.838660    0.357875
      7          7           0        0.919392   -0.370895   -0.141492
      8          1           0        0.578709   -1.310670   -0.292015
      9          6           0       -0.021757    0.594911    0.445843
     10          1           0        0.258755    0.769232    1.490566
     11          6           0        0.004340    1.936338   -0.299802
     12          1           0       -0.155099    1.806430   -1.377598
     13          1           0       -0.762182    2.611978    0.095693
     14          1           0        0.984476    2.397319   -0.169172
     15          6           0       -1.398215   -0.099374    0.504848
     16          8           0       -1.703810   -0.800229    1.462941
     17          7           0       -2.194737    0.056264   -0.591606
     18          1           0       -1.896636    0.689043   -1.318880
     19          6           0       -3.517129   -0.538111   -0.686682
     20          1           0       -3.651488   -1.175961    0.187711
     21          1           0       -4.300681    0.229278   -0.693291
     22          1           0       -3.609001   -1.143915   -1.595335
 ---------------------------------------------------------------------

 The electronic state is 1-A.
 Alpha  occ. eigenvalues --  -19.11636 -19.10921 -14.37081 -14.36284 -10.29101
 Alpha  occ. eigenvalues --  -10.28743 -10.23669 -10.22452 -10.19263 -10.18485
 Alpha  occ. eigenvalues --   -1.03790  -1.02804  -0.92935  -0.91964  -0.78167
 Alpha  occ. eigenvalues --   -0.73034  -0.71070  -0.65286  -0.59029  -0.57841
 Alpha  occ. eigenvalues --   -0.53743  -0.49773  -0.47318  -0.45603  -0.44847
 Alpha  occ. eigenvalues --   -0.44665  -0.42423  -0.41584  -0.40630  -0.39922
 Alpha  occ. eigenvalues --   -0.39087  -0.38317  -0.38120  -0.36708  -0.34439
 Alpha  occ. eigenvalues --   -0.26514  -0.25714  -0.25080  -0.24503
 Alpha virt. eigenvalues --    0.01450   0.02841   0.06927   0.07863   0.11371
 Alpha virt. eigenvalues --    0.12722   0.13643   0.14914   0.15765   0.15907
 Alpha virt. eigenvalues --    0.16442   0.17687   0.18043   0.19174   0.19438

 Mulliken atomic charges:
              1
     1  H    0.186467
     2  C   -0.536663
     3  H    0.187278
     4  H    0.145539
     5  C    0.598266
     6  O   -0.507388
     7  N   -0.612049
     8  H    0.335437
     9  C    0.015353
    10  H    0.183157
    11  C   -0.479031
    12  H    0.133713
    13  H    0.152409
    14  H    0.206045
    15  C    0.534432
    16  O   -0.508140
    17  N   -0.580653
    18  H    0.333347
    19  C   -0.313559
    20  H    0.206490
    21  H    0.161654
    22  H    0.157897
 Sum of Mulliken atomic charges =   0.00000

 Dipole moment (field-independent basis, Debye):
    X=             -2.0821    Y=             -0.8929    Z=             -3.7318  Tot=              4.3656
 Quadrupole moment (field-independent basis, Debye-Ang):
   XX=            -60.7989   YY=            -58.4891   ZZ=            -62.2595
   XY=             -9.2564   XZ=              3.9780   YZ=              1.8565

 Normal termination of Gaussian 09 at Fri Feb 10 21:34:08 2017.
