 Gaussian 09, Revision A.02,
 Gaussian 09:  EM64L-G09RevA.02 11-Jun-2009

 -------------------------------------------
 # HF/6-31G* Opt=(ModRedundant) geom=nocrowd
 -------------------------------------------

 ------------------
 Phi Psi fixed scan
 ------------------
 Symbolic Z-matrix:
 Charge =  0 Multiplicity = 1

 SCF Done:  E(RHF) =  -492.836884712     A.U. after   15 cycles
 SCF Done:  E(RHF) =  -492.846142024     A.U. after   14 cycles
 SCF Done:  E(RHF) =  -492.848235966     A.U. after   13 cycles
 SCF Done:  E(RHF) =  -492.848519355     A.U. after   13 cycles
 SCF Done:  E(RHF) =  -492.848520716     A.U. after   13 cycles
 SCF Done:  E(RHF) =  -492.848687612     A.U. after   12 cycles
 SCF Done:  E(RHF) =  -492.848732112     A.U. after   12 cycles
 SCF Done:  E(RHF) =  -492.848818051     A.U. after   13 cycles
 SCF Done:  E(RHF) =  -492.848876384     A.U. after   13 cycles
 SCF Done:  E(RHF) =  -492.848972411     A.U. after   13 cycles
 SCF Done:  E(RHF) =  -492.849235327     A.U. after   14 cycles
 SCF Done:  E(RHF) =  -492.849481293     A.U. after   14 cycles
 SCF Done:  E(RHF) =  -492.849517934     A.U. after   11 cycles
 SCF Done:  E(RHF) =  -492.849574546     A.U. after   12 cycles
 SCF Done:  E(RHF) =  -492.849584188     A.U. after   11 cycles
 SCF Done:  E(RHF) =  -492.849584653     A.U. after   11 cycles
 SCF Done:  E(RHF) =  -492.849589223     A.U. after   11 cycles
 SCF Done:  E(RHF) =  -492.849589533     A.U. after   10 cycles
 SCF Done:  E(RHF) =  -492.849589761     A.U. after    8 cycles
 SCF Done:  E(RHF) =  -492.849589895     A.U. after    9 cycles
 Optimization completed.
    -- Stationary point found.

                         Standard orientation:
 ---------------------------------------------------------------------
 Center     Atomic      Atomic             Coordinates (Angstroms)
 Number     Number       Type             X           Y           Z
 ---------------------------------------------------------------------
      1          1           0        4.070432   -1.041235   -0.791663
      2          6           0        3.082959   -1.379803   -0.513615
      3          1           0        3.178328   -2.075098    0.315088
      4          1           0        2.626203   -1.902310   -1.346288
      5          6           0        2.263580   -0.187143   -0.068181
      6          8           0        2.770996    0.820912    0.337213
      7          7           0        0.915422   -0.352424   -0.153053
      8          1           0        0.587748   -1.285521   -0.267902
      9          6           0       -0.014016    0.603263    0.444288
     10          1           0        0.252463    0.763412    1.480882
     11          6           0       -0.000695    1.947145   -0.285237
     12          1           0       -0.140305    1.822428   -1.354735
     13          1           0       -0.782850    2.594780    0.098950
     14          1           0        0.952059    2.431231   -0.134678
     15          6           0       -1.379685   -0.091961    0.481395
     16          8           0       -1.677025   -0.795287    1.409581
     17          7           0       -2.182506    0.061507   -0.588854
     18          1           0       -1.926715    0.695716   -1.306746
     19          6           0       -3.489370   -0.560114   -0.640485
     20          1           0       -3.405183   -1.630687   -0.511719
     21          1           0       -4.140220   -0.174947    0.135143
     22          1           0       -3.930775   -0.354673   -1.606324
 ---------------------------------------------------------------------

 The electronic state is 1-A.
 Alpha  occ. eigenvalues --  -20.52929 -20.52756 -15.59367 -15.58970 -11.35128
 Alpha  occ. eigenvalues --  -11.35009 -11.28097 -11.26446 -11.23450 -11.22302
 Alpha  occ. eigenvalues --   -1.40053  -1.39377  -1.24612  -1.23435  -1.05770
 Alpha  occ. eigenvalues --   -0.99510  -0.96085  -0.89123  -0.79870  -0.78658
 Alpha  occ. eigenvalues --   -0.73184  -0.67943  -0.66782  -0.64574  -0.62876
 Alpha  occ. eigenvalues --   -0.62421  -0.59550  -0.58795  -0.56928  -0.56763
 Alpha  occ. eigenvalues --   -0.55923  -0.54779  -0.53808  -0.52159  -0.50072
 Alpha  occ. eigenvalues --   -0.43036  -0.41142  -0.40357  -0.39035
 Alpha virt. eigenvalues --    0.18926   0.19981   0.21663   0.22599   0.25739
 Alpha virt. eigenvalues --    0.27569   0.28142   0.30148   0.30526   0.31435
 Alpha virt. eigenvalues --    0.32855   0.33852   0.34492   0.35066   0.37635

 Mulliken atomic charges:
              1
     1  H    0.215278
     2  C   -0.588598
     3  H    0.201460
     4  H    0.179425
     5  C    0.748772
     6  O   -0.600766
     7  N   -0.814869
     8  H    0.394072
     9  C    0.012367
    10  H    0.225560
    11  C   -0.520164
    12  H    0.150342
    13  H    0.168548
    14  H    0.235924
    15  C    0.708998
    16  O   -0.606257
    17  N   -0.791181
    18  H    0.400116
    19  C   -0.269636
    20  H    0.193504
    21  H    0.188299
    22  H    0.168808
 Sum of Mulliken atomic charges =   0.00000

 Dipole moment (field-independent basis, Debye):
    X=             -1.8748    Y=             -0.9133    Z=             -3.8728  Tot=              4.3985
 Quadrupole moment (field-independent basis, Debye-Ang):
   XX=            -61.9965   YY=            -58.9818   ZZ=            -63.1706
   XY=            -10.6879   XZ=              4.3478   YZ=              2.1604

 Normal termination of Gaussian 09 at Fri Feb 10 08:39:42 2017.
