 Gaussian 09, Revision A.02,
 Gaussian 09:  EM64L-G09RevA.02 11-Jun-2009

 -------------------------------------------
 # HF/6-31G* Opt=(ModRedundant) geom=nocrowd
 -------------------------------------------

 ------------------
 Phi Psi fixed scan
 ------------------
 Symbolic Z-matrix:
 Charge =  0 Multiplicity = 1

 SCF Done:  E(RHF) =  -492.833028278     A.U. after   15 cycles
 SCF Done:  E(RHF) =  -492.842463133     A.U. after   15 cycles
 SCF Done:  E(RHF) =  -492.845613613     A.U. after   13 cycles
 SCF Done:  E(RHF) =  -492.847512363     A.U. after   13 cycles
 SCF Done:  E(RHF) =  -492.850314487     A.U. after   14 cycles
 SCF Done:  E(RHF) =  -492.851816625     A.U. after   13 cycles
 SCF Done:  E(RHF) =  -492.852694347     A.U. after   13 cycles
 SCF Done:  E(RHF) =  -492.852749698     A.U. after   12 cycles
 SCF Done:  E(RHF) =  -492.852940883     A.U. after   12 cycles
 SCF Done:  E(RHF) =  -492.853070087     A.U. after   12 cycles
 SCF Done:  E(RHF) =  -492.853574480     A.U. after   14 cycles
 SCF Done:  E(RHF) =  -492.853576137     A.U. after   13 cycles
 SCF Done:  E(RHF) =  -492.853727683     A.U. after   11 cycles
 SCF Done:  E(RHF) =  -492.853803740     A.U. after   11 cycles
 SCF Done:  E(RHF) =  -492.853819115     A.U. after   11 cycles
 SCF Done:  E(RHF) =  -492.853824709     A.U. after   10 cycles
 SCF Done:  E(RHF) =  -492.853826205     A.U. after   10 cycles
 SCF Done:  E(RHF) =  -492.853827221     A.U. after    8 cycles
 SCF Done:  E(RHF) =  -492.853828476     A.U. after   10 cycles
 SCF Done:  E(RHF) =  -492.853828808     A.U. after    9 cycles
 Optimization completed.
    -- Stationary point found.

                         Standard orientation:
 ---------------------------------------------------------------------
 Center     Atomic      Atomic             Coordinates (Angstroms)
 Number     Number       Type             X           Y           Z
 ---------------------------------------------------------------------
      1          1           0       -4.011892   -1.377633   -0.078892
      2          6           0       -3.063868   -1.338366    0.436916
      3          1           0       -2.595014   -2.315780    0.419998
      4          1           0       -3.243743   -1.066662    1.473280
      5          6           0       -2.191732   -0.287972   -0.215723
      6          8           0       -2.634049    0.557572   -0.936112
      7          7           0       -0.850645   -0.394370    0.065749
      8          1           0       -0.654630   -0.897094    0.906589
      9          6           0        0.026872    0.747660   -0.167539
     10          1           0       -0.186287    1.105997   -1.164647
     11          6           0       -0.202542    1.889031    0.827687
     12          1           0       -0.014405    1.556140    1.845054
     13          1           0        0.465006    2.710981    0.611087
     14          1           0       -1.225399    2.236365    0.757240
     15          6           0        1.502655    0.348974   -0.154372
     16          8           0        2.349676    1.190231   -0.273361
     17          7           0        1.795819   -0.957360    0.062792
     18          1           0        1.090436   -1.616744   -0.175035
     19          6           0        3.172107   -1.406526   -0.016872
     20          1           0        3.786585   -0.797544    0.628733
     21          1           0        3.220255   -2.434722    0.317248
     22          1           0        3.566907   -1.340431   -1.025243
 ---------------------------------------------------------------------

 The electronic state is 1-A.
 Alpha  occ. eigenvalues --  -20.53970 -20.52693 -15.59593 -15.58945 -11.36005
 Alpha  occ. eigenvalues --  -11.34852 -11.27975 -11.25978 -11.24294 -11.21843
 Alpha  occ. eigenvalues --   -1.40738  -1.39652  -1.25597  -1.22839  -1.05628
 Alpha  occ. eigenvalues --   -0.99852  -0.96304  -0.88038  -0.80019  -0.78689
 Alpha  occ. eigenvalues --   -0.73601  -0.67981  -0.65785  -0.64419  -0.63286
 Alpha  occ. eigenvalues --   -0.62876  -0.59687  -0.59530  -0.58300  -0.56871
 Alpha  occ. eigenvalues --   -0.55483  -0.54478  -0.52779  -0.52000  -0.49915
 Alpha  occ. eigenvalues --   -0.43427  -0.43085  -0.39830  -0.39720
 Alpha virt. eigenvalues --    0.18254   0.19479   0.20819   0.24585   0.26931
 Alpha virt. eigenvalues --    0.27425   0.28494   0.29572   0.30136   0.31502
 Alpha virt. eigenvalues --    0.32501   0.33038   0.33645   0.34437   0.37095

 Mulliken atomic charges:
              1
     1  H    0.220698
     2  C   -0.591964
     3  H    0.183956
     4  H    0.194991
     5  C    0.744558
     6  O   -0.580759
     7  N   -0.822027
     8  H    0.374763
     9  C   -0.049727
    10  H    0.247834
    11  C   -0.498451
    12  H    0.152758
    13  H    0.210732
    14  H    0.195077
    15  C    0.761815
    16  O   -0.609462
    17  N   -0.800730
    18  H    0.393131
    19  C   -0.279214
    20  H    0.205606
    21  H    0.167924
    22  H    0.178490
 Sum of Mulliken atomic charges =   0.00000

 Dipole moment (field-independent basis, Debye):
    X=             -0.5658    Y=             -4.7060    Z=              2.5392  Tot=              5.3772
 Quadrupole moment (field-independent basis, Debye-Ang):
   XX=            -68.1637   YY=            -58.7964   ZZ=            -61.0072
   XY=             -2.3052   XZ=             -5.5519   YZ=              1.5020

 Normal termination of Gaussian 09 at Fri Feb 10 07:09:06 2017.
