 Gaussian 09, Revision A.02,
 Gaussian 09:  EM64L-G09RevA.02 11-Jun-2009

 -------------------------------------------
 # HF/6-31G* Opt=(ModRedundant) geom=nocrowd
 -------------------------------------------

 ------------------
 Phi Psi fixed scan
 ------------------
 Symbolic Z-matrix:
 Charge =  0 Multiplicity = 1

 SCF Done:  E(RHF) =  -492.838585473     A.U. after   15 cycles
 SCF Done:  E(RHF) =  -492.845673037     A.U. after   13 cycles
 SCF Done:  E(RHF) =  -492.847297321     A.U. after   13 cycles
 SCF Done:  E(RHF) =  -492.848227199     A.U. after   13 cycles
 SCF Done:  E(RHF) =  -492.849728738     A.U. after   16 cycles
 SCF Done:  E(RHF) =  -492.850729258     A.U. after   13 cycles
 SCF Done:  E(RHF) =  -492.851174079     A.U. after   13 cycles
 SCF Done:  E(RHF) =  -492.851207726     A.U. after   11 cycles
 SCF Done:  E(RHF) =  -492.851386334     A.U. after   11 cycles
 SCF Done:  E(RHF) =  -492.851527077     A.U. after   12 cycles
 SCF Done:  E(RHF) =  -492.851752749     A.U. after   12 cycles
 SCF Done:  E(RHF) =  -492.851866842     A.U. after   12 cycles
 SCF Done:  E(RHF) =  -492.851980906     A.U. after   12 cycles
 SCF Done:  E(RHF) =  -492.852022093     A.U. after   12 cycles
 SCF Done:  E(RHF) =  -492.852043149     A.U. after   11 cycles
 SCF Done:  E(RHF) =  -492.852044510     A.U. after    9 cycles
 SCF Done:  E(RHF) =  -492.852046076     A.U. after   10 cycles
 SCF Done:  E(RHF) =  -492.852048421     A.U. after   10 cycles
 SCF Done:  E(RHF) =  -492.852050016     A.U. after   10 cycles
 SCF Done:  E(RHF) =  -492.852050088     A.U. after    8 cycles
 Optimization completed.
    -- Stationary point found.

                         Standard orientation:
 ---------------------------------------------------------------------
 Center     Atomic      Atomic             Coordinates (Angstroms)
 Number     Number       Type             X           Y           Z
 ---------------------------------------------------------------------
      1          1           0       -4.030670   -1.337125    0.167112
      2          6           0       -3.002997   -1.532310   -0.102102
      3          1           0       -2.981965   -1.936821   -1.109985
      4          1           0       -2.581146   -2.271153    0.569714
      5          6           0       -2.231025   -0.230141   -0.068408
      6          8           0       -2.771909    0.835241   -0.142877
      7          7           0       -0.875457   -0.369211    0.049866
      8          1           0       -0.521152   -1.262852   -0.212737
      9          6           0        0.013958    0.762488   -0.199986
     10          1           0       -0.252419    1.250777   -1.128051
     11          6           0       -0.036772    1.791738    0.935526
     12          1           0        0.239269    1.334388    1.880850
     13          1           0        0.654100    2.599664    0.724465
     14          1           0       -1.033953    2.195765    1.024184
     15          6           0        1.455417    0.293905   -0.370734
     16          8           0        2.215449    0.900931   -1.070248
     17          7           0        1.817069   -0.828560    0.305952
     18          1           0        1.248513   -1.093633    1.079039
     19          6           0        3.207577   -1.239576    0.338557
     20          1           0        3.591840   -1.282501   -0.669141
     21          1           0        3.823211   -0.553148    0.910205
     22          1           0        3.267811   -2.224968    0.781498
 ---------------------------------------------------------------------

 The electronic state is 1-A.
 Alpha  occ. eigenvalues --  -20.53485 -20.53243 -15.59507 -15.59290 -11.35647
 Alpha  occ. eigenvalues --  -11.35217 -11.28019 -11.26396 -11.23969 -11.21882
 Alpha  occ. eigenvalues --   -1.40433  -1.39951  -1.25575  -1.23001  -1.05835
 Alpha  occ. eigenvalues --   -0.99727  -0.96412  -0.88256  -0.79855  -0.78400
 Alpha  occ. eigenvalues --   -0.73750  -0.68268  -0.67197  -0.63738  -0.63280
 Alpha  occ. eigenvalues --   -0.62740  -0.60274  -0.59749  -0.57257  -0.56642
 Alpha  occ. eigenvalues --   -0.55976  -0.54668  -0.52995  -0.51854  -0.49962
 Alpha  occ. eigenvalues --   -0.43711  -0.41742  -0.40477  -0.39852
 Alpha virt. eigenvalues --    0.18133   0.19700   0.21291   0.23683   0.26630
 Alpha virt. eigenvalues --    0.27735   0.28405   0.29387   0.30003   0.31298
 Alpha virt. eigenvalues --    0.32596   0.33621   0.34502   0.35263   0.36834

 Mulliken atomic charges:
              1
     1  H    0.218635
     2  C   -0.589464
     3  H    0.197210
     4  H    0.180976
     5  C    0.743426
     6  O   -0.587790
     7  N   -0.829526
     8  H    0.387345
     9  C   -0.022764
    10  H    0.228120
    11  C   -0.499068
    12  H    0.152797
    13  H    0.189450
    14  H    0.226599
    15  C    0.735133
    16  O   -0.600730
    17  N   -0.796749
    18  H    0.388318
    19  C   -0.278698
    20  H    0.208043
    21  H    0.178739
    22  H    0.169997
 Sum of Mulliken atomic charges =   0.00000

 Dipole moment (field-independent basis, Debye):
    X=              0.4683    Y=             -4.7776    Z=              2.2445  Tot=              5.2993
 Quadrupole moment (field-independent basis, Debye-Ang):
   XX=            -68.2362   YY=            -58.7904   ZZ=            -61.0787
   XY=              1.8268   XZ=              6.0154   YZ=              1.9801

 Normal termination of Gaussian 09 at Fri Feb 10 08:49:43 2017.
