 Gaussian 09, Revision A.02,
 Gaussian 09:  EM64L-G09RevA.02 11-Jun-2009

 -------------------------------------------
 # HF/6-31G* Opt=(ModRedundant) geom=nocrowd
 -------------------------------------------

 ------------------
 Phi Psi fixed scan
 ------------------
 Symbolic Z-matrix:
 Charge =  0 Multiplicity = 1

 SCF Done:  E(RHF) =  -492.844011363     A.U. after   15 cycles
 SCF Done:  E(RHF) =  -492.851501388     A.U. after   14 cycles
 SCF Done:  E(RHF) =  -492.853700366     A.U. after   13 cycles
 SCF Done:  E(RHF) =  -492.854934042     A.U. after   16 cycles
 SCF Done:  E(RHF) =  -492.855237215     A.U. after   13 cycles
 SCF Done:  E(RHF) =  -492.855306689     A.U. after   13 cycles
 SCF Done:  E(RHF) =  -492.855493568     A.U. after   12 cycles
 SCF Done:  E(RHF) =  -492.855536459     A.U. after   12 cycles
 SCF Done:  E(RHF) =  -492.855610170     A.U. after   12 cycles
 SCF Done:  E(RHF) =  -492.855667359     A.U. after   11 cycles
 SCF Done:  E(RHF) =  -492.855731303     A.U. after   11 cycles
 SCF Done:  E(RHF) =  -492.855847146     A.U. after   11 cycles
 SCF Done:  E(RHF) =  -492.855965784     A.U. after   12 cycles
 SCF Done:  E(RHF) =  -492.856007812     A.U. after   12 cycles
 SCF Done:  E(RHF) =  -492.856028505     A.U. after   12 cycles
 SCF Done:  E(RHF) =  -492.856035637     A.U. after    9 cycles
 SCF Done:  E(RHF) =  -492.856062516     A.U. after   11 cycles
 SCF Done:  E(RHF) =  -492.856069677     A.U. after   11 cycles
 SCF Done:  E(RHF) =  -492.856070436     A.U. after   10 cycles
 SCF Done:  E(RHF) =  -492.856070477     A.U. after    7 cycles
 Optimization completed.
    -- Stationary point found.

                         Standard orientation:
 ---------------------------------------------------------------------
 Center     Atomic      Atomic             Coordinates (Angstroms)
 Number     Number       Type             X           Y           Z
 ---------------------------------------------------------------------
      1          1           0        3.937284   -1.486855   -0.067527
      2          6           0        3.043419   -1.273096   -0.634926
      3          1           0        2.536183   -2.198268   -0.884395
      4          1           0        3.330717   -0.783303   -1.560869
      5          6           0        2.161356   -0.342904    0.169335
      6          8           0        2.583628    0.325741    1.067800
      7          7           0        0.842213   -0.335328   -0.196322
      8          1           0        0.642618   -0.715820   -1.096897
      9          6           0       -0.039781    0.742263    0.238094
     10          1           0        0.105339    0.849124    1.306134
     11          6           0        0.266113    2.075665   -0.440897
     12          1           0        0.138599    1.998207   -1.516147
     13          1           0       -0.404243    2.843367   -0.081263
     14          1           0        1.286112    2.367339   -0.226059
     15          6           0       -1.504503    0.347072    0.028714
     16          8           0       -2.348786    1.172774   -0.184714
     17          7           0       -1.780717   -0.972277    0.119035
     18          1           0       -1.065182   -1.573336    0.457175
     19          6           0       -3.147392   -1.449547    0.112496
     20          1           0       -3.679305   -1.019267   -0.723127
     21          1           0       -3.138957   -2.526605    0.008516
     22          1           0       -3.673653   -1.186196    1.023889
 ---------------------------------------------------------------------

 The electronic state is 1-A.
 Alpha  occ. eigenvalues --  -20.53659 -20.52674 -15.59576 -15.58766 -11.35865
 Alpha  occ. eigenvalues --  -11.34766 -11.28039 -11.26038 -11.24191 -11.21262
 Alpha  occ. eigenvalues --   -1.40497  -1.39546  -1.25476  -1.22782  -1.05520
 Alpha  occ. eigenvalues --   -0.99674  -0.96485  -0.87754  -0.79928  -0.78879
 Alpha  occ. eigenvalues --   -0.73503  -0.67816  -0.65713  -0.65106  -0.63021
 Alpha  occ. eigenvalues --   -0.62486  -0.60026  -0.59523  -0.58045  -0.56359
 Alpha  occ. eigenvalues --   -0.55616  -0.53846  -0.52623  -0.51989  -0.50085
 Alpha  occ. eigenvalues --   -0.43191  -0.42504  -0.40219  -0.39087
 Alpha virt. eigenvalues --    0.18311   0.19516   0.21829   0.24147   0.26933
 Alpha virt. eigenvalues --    0.27628   0.27988   0.29754   0.29941   0.31468
 Alpha virt. eigenvalues --    0.32840   0.33265   0.33798   0.34277   0.37191

 Mulliken atomic charges:
              1
     1  H    0.219249
     2  C   -0.590331
     3  H    0.181049
     4  H    0.198091
     5  C    0.746720
     6  O   -0.587940
     7  N   -0.824974
     8  H    0.380771
     9  C   -0.053533
    10  H    0.240035
    11  C   -0.483132
    12  H    0.155727
    13  H    0.201760
    14  H    0.191906
    15  C    0.754452
    16  O   -0.611301
    17  N   -0.793557
    18  H    0.398190
    19  C   -0.273342
    20  H    0.203625
    21  H    0.167854
    22  H    0.178682
 Sum of Mulliken atomic charges =   0.00000

 Dipole moment (field-independent basis, Debye):
    X=              0.5159    Y=             -4.2734    Z=             -2.0073  Tot=              4.7495
 Quadrupole moment (field-independent basis, Debye-Ang):
   XX=            -68.2044   YY=            -58.6771   ZZ=            -60.6895
   XY=              3.6682   XZ=             -9.0174   YZ=              0.0734

 Normal termination of Gaussian 09 at Fri Feb 10 07:13:39 2017.
