 Gaussian 09, Revision A.02,
 Gaussian 09:  EM64L-G09RevA.02 11-Jun-2009

 -------------------------------------------
 # HF/6-31G* Opt=(ModRedundant) geom=nocrowd
 -------------------------------------------

 ------------------
 Phi Psi fixed scan
 ------------------
 Symbolic Z-matrix:
 Charge =  0 Multiplicity = 1

 SCF Done:  E(RHF) =  -492.839928677     A.U. after   15 cycles
 SCF Done:  E(RHF) =  -492.847937040     A.U. after   14 cycles
 SCF Done:  E(RHF) =  -492.849077819     A.U. after   13 cycles
 SCF Done:  E(RHF) =  -492.849236254     A.U. after   12 cycles
 SCF Done:  E(RHF) =  -492.849338971     A.U. after   12 cycles
 SCF Done:  E(RHF) =  -492.849414729     A.U. after   10 cycles
 SCF Done:  E(RHF) =  -492.849455079     A.U. after   13 cycles
 SCF Done:  E(RHF) =  -492.849489826     A.U. after   12 cycles
 SCF Done:  E(RHF) =  -492.849509866     A.U. after   11 cycles
 SCF Done:  E(RHF) =  -492.849554656     A.U. after   12 cycles
 SCF Done:  E(RHF) =  -492.850024149     A.U. after   12 cycles
 SCF Done:  E(RHF) =  -492.850038246     A.U. after   12 cycles
 SCF Done:  E(RHF) =  -492.850045950     A.U. after   11 cycles
 SCF Done:  E(RHF) =  -492.850066766     A.U. after   12 cycles
 SCF Done:  E(RHF) =  -492.850068811     A.U. after   10 cycles
 SCF Done:  E(RHF) =  -492.850069528     A.U. after    9 cycles
 SCF Done:  E(RHF) =  -492.850069676     A.U. after    8 cycles
 SCF Done:  E(RHF) =  -492.850070248     A.U. after    9 cycles
 SCF Done:  E(RHF) =  -492.850071126     A.U. after   10 cycles
 SCF Done:  E(RHF) =  -492.850071269     A.U. after    9 cycles
 Optimization completed.
    -- Stationary point found.

                         Standard orientation:
 ---------------------------------------------------------------------
 Center     Atomic      Atomic             Coordinates (Angstroms)
 Number     Number       Type             X           Y           Z
 ---------------------------------------------------------------------
      1          1           0        4.005508   -1.190375   -0.699481
      2          6           0        3.056064   -1.476273   -0.269784
      3          1           0        3.247310   -1.987993    0.668108
      4          1           0        2.545935   -2.162349   -0.936251
      5          6           0        2.251760   -0.225002    0.012492
      6          8           0        2.775783    0.818746    0.289895
      7          7           0        0.906141   -0.374993   -0.037702
      8          1           0        0.532929   -1.277564   -0.221566
      9          6           0       -0.013372    0.704482    0.302296
     10          1           0        0.262475    1.099900    1.268783
     11          6           0        0.008854    1.842269   -0.722012
     12          1           0       -0.163099    1.482847   -1.732038
     13          1           0       -0.749458    2.581549   -0.483102
     14          1           0        0.976183    2.322466   -0.703229
     15          6           0       -1.399293    0.084805    0.499524
     16          8           0       -1.853319   -0.092786    1.594996
     17          7           0       -2.057176   -0.282213   -0.624984
     18          1           0       -1.718399    0.033937   -1.502876
     19          6           0       -3.406008   -0.807273   -0.563177
     20          1           0       -3.452736   -1.615211    0.152206
     21          1           0       -4.120833   -0.047582   -0.266591
     22          1           0       -3.676316   -1.184913   -1.540323
 ---------------------------------------------------------------------

 The electronic state is 1-A.
 Alpha  occ. eigenvalues --  -20.53188 -20.52447 -15.59456 -15.59190 -11.35138
 Alpha  occ. eigenvalues --  -11.35109 -11.28110 -11.26490 -11.23565 -11.22508
 Alpha  occ. eigenvalues --   -1.40150  -1.39273  -1.24959  -1.23299  -1.05876
 Alpha  occ. eigenvalues --   -0.99573  -0.96243  -0.89153  -0.79824  -0.79363
 Alpha  occ. eigenvalues --   -0.73374  -0.67634  -0.66732  -0.64416  -0.63065
 Alpha  occ. eigenvalues --   -0.62554  -0.59464  -0.59064  -0.57370  -0.57030
 Alpha  occ. eigenvalues --   -0.56163  -0.55010  -0.53464  -0.52100  -0.50072
 Alpha  occ. eigenvalues --   -0.43203  -0.41521  -0.39993  -0.39015
 Alpha virt. eigenvalues --    0.18718   0.19827   0.21560   0.22456   0.25721
 Alpha virt. eigenvalues --    0.27489   0.28099   0.30045   0.30599   0.31278
 Alpha virt. eigenvalues --    0.32729   0.33931   0.34804   0.35076   0.37259

 Mulliken atomic charges:
              1
     1  H    0.213726
     2  C   -0.581679
     3  H    0.206037
     4  H    0.169811
     5  C    0.755437
     6  O   -0.606979
     7  N   -0.827526
     8  H    0.392462
     9  C    0.001352
    10  H    0.238188
    11  C   -0.510024
    12  H    0.142937
    13  H    0.173201
    14  H    0.230752
    15  C    0.713417
    16  O   -0.593917
    17  N   -0.789883
    18  H    0.393170
    19  C   -0.274392
    20  H    0.202700
    21  H    0.182265
    22  H    0.168945
 Sum of Mulliken atomic charges =   0.00000

 Dipole moment (field-independent basis, Debye):
    X=             -1.6148    Y=             -2.4644    Z=             -4.3337  Tot=              5.2404
 Quadrupole moment (field-independent basis, Debye-Ang):
   XX=            -64.3360   YY=            -57.6531   ZZ=            -63.9388
   XY=             -7.5159   XZ=              6.0003   YZ=              0.2905

 Normal termination of Gaussian 09 at Fri Feb 10 08:42:26 2017.
