 Gaussian 09, Revision A.02,
 Gaussian 09:  EM64L-G09RevA.02 11-Jun-2009

 -------------------------------------------
 # HF/6-31G* Opt=(ModRedundant) geom=nocrowd
 -------------------------------------------

 ------------------
 Phi Psi fixed scan
 ------------------
 Symbolic Z-matrix:
 Charge =  0 Multiplicity = 1

 SCF Done:  E(RHF) =  -492.833180814     A.U. after   15 cycles
 SCF Done:  E(RHF) =  -492.841886811     A.U. after   16 cycles
 SCF Done:  E(RHF) =  -492.844784143     A.U. after   13 cycles
 SCF Done:  E(RHF) =  -492.845350147     A.U. after   12 cycles
 SCF Done:  E(RHF) =  -492.845448377     A.U. after   12 cycles
 SCF Done:  E(RHF) =  -492.845743046     A.U. after   13 cycles
 SCF Done:  E(RHF) =  -492.845803794     A.U. after   14 cycles
 SCF Done:  E(RHF) =  -492.846476949     A.U. after   13 cycles
 SCF Done:  E(RHF) =  -492.847294183     A.U. after   13 cycles
 SCF Done:  E(RHF) =  -492.848142817     A.U. after   13 cycles
 SCF Done:  E(RHF) =  -492.851149905     A.U. after   13 cycles
 SCF Done:  E(RHF) =  -492.851314078     A.U. after   11 cycles
 SCF Done:  E(RHF) =  -492.851407909     A.U. after   12 cycles
 SCF Done:  E(RHF) =  -492.851391897     A.U. after   11 cycles
 SCF Done:  E(RHF) =  -492.851421468     A.U. after   11 cycles
 SCF Done:  E(RHF) =  -492.851421625     A.U. after    7 cycles
 SCF Done:  E(RHF) =  -492.851421748     A.U. after    8 cycles
 SCF Done:  E(RHF) =  -492.851421882     A.U. after    8 cycles
 SCF Done:  E(RHF) =  -492.851421977     A.U. after    8 cycles
 SCF Done:  E(RHF) =  -492.851421989     A.U. after    6 cycles
 Optimization completed.
    -- Stationary point found.

                         Standard orientation:
 ---------------------------------------------------------------------
 Center     Atomic      Atomic             Coordinates (Angstroms)
 Number     Number       Type             X           Y           Z
 ---------------------------------------------------------------------
      1          1           0       -4.055810   -1.313152   -0.142803
      2          6           0       -3.084411   -1.361137    0.326571
      3          1           0       -2.642992   -2.337246    0.159872
      4          1           0       -3.208615   -1.223595    1.397122
      5          6           0       -2.214299   -0.254775   -0.229165
      6          8           0       -2.662958    0.674351   -0.832397
      7          7           0       -0.865391   -0.415084   -0.006727
      8          1           0       -0.669216   -0.992494    0.784917
      9          6           0        0.018738    0.739189   -0.132865
     10          1           0       -0.225087    1.220149   -1.067583
     11          6           0       -0.153505    1.750039    1.007001
     12          1           0        0.077068    1.292758    1.965698
     13          1           0        0.511346    2.590541    0.861203
     14          1           0       -1.174372    2.109859    1.027404
     15          6           0        1.491006    0.343489   -0.219104
     16          8           0        2.311043    1.175921   -0.488143
     17          7           0        1.828092   -0.925071    0.136737
     18          1           0        1.143543   -1.625822   -0.034976
     19          6           0        3.212360   -1.346179    0.026423
     20          1           0        3.839891   -0.659889    0.574306
     21          1           0        3.308025   -2.333498    0.459104
     22          1           0        3.553287   -1.372448   -1.003163
 ---------------------------------------------------------------------

 The electronic state is 1-A.
 Alpha  occ. eigenvalues --  -20.54052 -20.52856 -15.59605 -15.59032 -11.36027
 Alpha  occ. eigenvalues --  -11.34889 -11.27914 -11.25979 -11.24308 -11.22139
 Alpha  occ. eigenvalues --   -1.40803  -1.39781  -1.25579  -1.22906  -1.05707
 Alpha  occ. eigenvalues --   -0.99941  -0.96178  -0.88200  -0.80012  -0.78675
 Alpha  occ. eigenvalues --   -0.73582  -0.68020  -0.65777  -0.64186  -0.63423
 Alpha  occ. eigenvalues --   -0.63081  -0.59543  -0.59477  -0.58413  -0.57137
 Alpha  occ. eigenvalues --   -0.55465  -0.54681  -0.52764  -0.52095  -0.49943
 Alpha  occ. eigenvalues --   -0.43576  -0.43305  -0.39944  -0.39717
 Alpha virt. eigenvalues --    0.18279   0.19386   0.20277   0.24492   0.26688
 Alpha virt. eigenvalues --    0.27139   0.28765   0.29648   0.30367   0.31547
 Alpha virt. eigenvalues --    0.32420   0.32888   0.33441   0.34427   0.37233

 Mulliken atomic charges:
              1
     1  H    0.221234
     2  C   -0.592836
     3  H    0.185990
     4  H    0.193158
     5  C    0.742951
     6  O   -0.578462
     7  N   -0.814194
     8  H    0.370095
     9  C   -0.047881
    10  H    0.249365
    11  C   -0.503529
    12  H    0.154746
    13  H    0.208765
    14  H    0.197171
    15  C    0.758749
    16  O   -0.605178
    17  N   -0.797252
    18  H    0.386509
    19  C   -0.281772
    20  H    0.205858
    21  H    0.167932
    22  H    0.178582
 Sum of Mulliken atomic charges =   0.00000

 Dipole moment (field-independent basis, Debye):
    X=             -0.4636    Y=             -4.9195    Z=              2.7491  Tot=              5.6545
 Quadrupole moment (field-independent basis, Debye-Ang):
   XX=            -67.6102   YY=            -58.8517   ZZ=            -61.4415
   XY=             -1.3689   XZ=             -3.7546   YZ=              2.0994

 Normal termination of Gaussian 09 at Fri Feb 10 08:52:50 2017.
