 Gaussian 09, Revision A.02,
 Gaussian 09:  EM64L-G09RevA.02 11-Jun-2009

 -------------------------------------------
 # HF/6-31G* Opt=(ModRedundant) geom=nocrowd
 -------------------------------------------

 ------------------
 Phi Psi fixed scan
 ------------------
 Symbolic Z-matrix:
 Charge =  0 Multiplicity = 1

 SCF Done:  E(RHF) =  -492.835939557     A.U. after   15 cycles
 SCF Done:  E(RHF) =  -492.845952341     A.U. after   14 cycles
 SCF Done:  E(RHF) =  -492.848496569     A.U. after   13 cycles
 SCF Done:  E(RHF) =  -492.848905663     A.U. after   13 cycles
 SCF Done:  E(RHF) =  -492.848969392     A.U. after   13 cycles
 SCF Done:  E(RHF) =  -492.849274588     A.U. after   12 cycles
 SCF Done:  E(RHF) =  -492.849772306     A.U. after   14 cycles
 SCF Done:  E(RHF) =  -492.849763637     A.U. after   14 cycles
 SCF Done:  E(RHF) =  -492.850196505     A.U. after   13 cycles
 SCF Done:  E(RHF) =  -492.850245337     A.U. after   12 cycles
 SCF Done:  E(RHF) =  -492.850508858     A.U. after   11 cycles
 SCF Done:  E(RHF) =  -492.850571484     A.U. after   11 cycles
 SCF Done:  E(RHF) =  -492.850674733     A.U. after   12 cycles
 SCF Done:  E(RHF) =  -492.850671525     A.U. after   12 cycles
 SCF Done:  E(RHF) =  -492.850742659     A.U. after   11 cycles
 SCF Done:  E(RHF) =  -492.850750871     A.U. after   11 cycles
 SCF Done:  E(RHF) =  -492.850751105     A.U. after    9 cycles
 SCF Done:  E(RHF) =  -492.850751142     A.U. after    8 cycles
 SCF Done:  E(RHF) =  -492.850751150     A.U. after    7 cycles
 SCF Done:  E(RHF) =  -492.850751156     A.U. after    7 cycles
 Optimization completed.
    -- Stationary point found.

                         Standard orientation:
 ---------------------------------------------------------------------
 Center     Atomic      Atomic             Coordinates (Angstroms)
 Number     Number       Type             X           Y           Z
 ---------------------------------------------------------------------
      1          1           0        4.120527   -0.934076   -0.788381
      2          6           0        3.125061   -1.296385   -0.577051
      3          1           0        3.190161   -2.052381    0.200014
      4          1           0        2.704474   -1.755990   -1.463985
      5          6           0        2.278067   -0.143846   -0.080754
      6          8           0        2.760986    0.852090    0.380229
      7          7           0        0.932968   -0.333311   -0.195563
      8          1           0        0.636161   -1.279477   -0.295633
      9          6           0       -0.019982    0.551670    0.468226
     10          1           0        0.230575    0.634234    1.519574
     11          6           0       -0.022460    1.947863   -0.152501
     12          1           0       -0.180035    1.901431   -1.225800
     13          1           0       -0.797398    2.562894    0.295622
     14          1           0        0.930658    2.422904    0.020237
     15          6           0       -1.361072   -0.191063    0.423116
     16          8           0       -1.519986   -1.167642    1.109089
     17          7           0       -2.291062    0.227658   -0.451310
     18          1           0       -2.134743    1.049763   -0.982346
     19          6           0       -3.570034   -0.443003   -0.561009
     20          1           0       -3.433588   -1.483716   -0.823191
     21          1           0       -4.117352   -0.396390    0.372120
     22          1           0       -4.148262    0.043366   -1.334835
 ---------------------------------------------------------------------

 The electronic state is 1-A.
 Alpha  occ. eigenvalues --  -20.52845 -20.52762 -15.59510 -15.58619 -11.35102
 Alpha  occ. eigenvalues --  -11.34983 -11.28126 -11.26476 -11.23254 -11.22259
 Alpha  occ. eigenvalues --   -1.40070  -1.39306  -1.24391  -1.23575  -1.05703
 Alpha  occ. eigenvalues --   -0.99401  -0.96046  -0.89163  -0.80037  -0.78186
 Alpha  occ. eigenvalues --   -0.73072  -0.67975  -0.66714  -0.64775  -0.62832
 Alpha  occ. eigenvalues --   -0.62290  -0.59505  -0.58714  -0.56820  -0.56466
 Alpha  occ. eigenvalues --   -0.55773  -0.54489  -0.54081  -0.52389  -0.49976
 Alpha  occ. eigenvalues --   -0.42827  -0.41311  -0.40187  -0.39170
 Alpha virt. eigenvalues --    0.19256   0.19739   0.21917   0.23203   0.25862
 Alpha virt. eigenvalues --    0.27860   0.28356   0.30059   0.30638   0.31484
 Alpha virt. eigenvalues --    0.32908   0.33484   0.34225   0.35163   0.37513

 Mulliken atomic charges:
              1
     1  H    0.214483
     2  C   -0.589422
     3  H    0.199852
     4  H    0.183327
     5  C    0.744564
     6  O   -0.599833
     7  N   -0.807538
     8  H    0.397926
     9  C    0.014921
    10  H    0.218435
    11  C   -0.530223
    12  H    0.157758
    13  H    0.163309
    14  H    0.240240
    15  C    0.720091
    16  O   -0.618630
    17  N   -0.795845
    18  H    0.403535
    19  C   -0.269525
    20  H    0.192689
    21  H    0.190668
    22  H    0.169216
 Sum of Mulliken atomic charges =   0.00000

 Dipole moment (field-independent basis, Debye):
    X=             -2.2624    Y=             -0.0404    Z=             -3.1640  Tot=              3.8898
 Quadrupole moment (field-independent basis, Debye-Ang):
   XX=            -59.6679   YY=            -60.6714   ZZ=            -62.1393
   XY=            -12.2758   XZ=              2.3042   YZ=              2.3638

 Normal termination of Gaussian 09 at Fri Feb 10 08:35:59 2017.
