 Gaussian 09, Revision A.02,
 Gaussian 09:  EM64L-G09RevA.02 11-Jun-2009

 -------------------------------------------
 # HF/6-31G* Opt=(ModRedundant) geom=nocrowd
 -------------------------------------------

 ------------------
 Phi Psi fixed scan
 ------------------
 Symbolic Z-matrix:
 Charge =  0 Multiplicity = 1

 SCF Done:  E(RHF) =  -492.842308291     A.U. after   15 cycles
 SCF Done:  E(RHF) =  -492.849091704     A.U. after   14 cycles
 SCF Done:  E(RHF) =  -492.850107049     A.U. after   13 cycles
 SCF Done:  E(RHF) =  -492.850938116     A.U. after   13 cycles
 SCF Done:  E(RHF) =  -492.851194466     A.U. after   17 cycles
 SCF Done:  E(RHF) =  -492.851540129     A.U. after   12 cycles
 SCF Done:  E(RHF) =  -492.851685994     A.U. after   16 cycles
 SCF Done:  E(RHF) =  -492.851715362     A.U. after   11 cycles
 SCF Done:  E(RHF) =  -492.851784323     A.U. after   11 cycles
 SCF Done:  E(RHF) =  -492.851880515     A.U. after   12 cycles
 SCF Done:  E(RHF) =  -492.852147507     A.U. after   11 cycles
 SCF Done:  E(RHF) =  -492.852241419     A.U. after   12 cycles
 SCF Done:  E(RHF) =  -492.852295107     A.U. after   12 cycles
 SCF Done:  E(RHF) =  -492.852309357     A.U. after   11 cycles
 SCF Done:  E(RHF) =  -492.852310360     A.U. after    9 cycles
 SCF Done:  E(RHF) =  -492.852310729     A.U. after    8 cycles
 SCF Done:  E(RHF) =  -492.852311182     A.U. after    9 cycles
 SCF Done:  E(RHF) =  -492.852311931     A.U. after   10 cycles
 SCF Done:  E(RHF) =  -492.852312264     A.U. after   10 cycles
 SCF Done:  E(RHF) =  -492.852312277     A.U. after    7 cycles
 Optimization completed.
    -- Stationary point found.

                         Standard orientation:
 ---------------------------------------------------------------------
 Center     Atomic      Atomic             Coordinates (Angstroms)
 Number     Number       Type             X           Y           Z
 ---------------------------------------------------------------------
      1          1           0        4.020262   -1.335238   -0.263703
      2          6           0        3.017262   -1.523450    0.090692
      3          1           0        3.076881   -1.880174    1.114692
      4          1           0        2.554051   -2.295537   -0.513051
      5          6           0        2.236059   -0.226730    0.061443
      6          8           0        2.773487    0.843261    0.109639
      7          7           0        0.882987   -0.370101   -0.011951
      8          1           0        0.520007   -1.274551    0.191080
      9          6           0       -0.013886    0.762595    0.199532
     10          1           0        0.263237    1.286662    1.103663
     11          6           0        0.008395    1.749252   -0.973189
     12          1           0       -0.258236    1.258453   -1.903925
     13          1           0       -0.697889    2.551988   -0.790236
     14          1           0        0.996504    2.171890   -1.077831
     15          6           0       -1.436304    0.259557    0.427706
     16          8           0       -2.125993    0.712364    1.296717
     17          7           0       -1.865982   -0.710535   -0.419036
     18          1           0       -1.336500   -0.870489   -1.245995
     19          6           0       -3.250029   -1.140367   -0.411346
     20          1           0       -3.551932   -1.363538    0.600799
     21          1           0       -3.914549   -0.379269   -0.806474
     22          1           0       -3.339806   -2.035883   -1.011983
 ---------------------------------------------------------------------

 The electronic state is 1-A.
 Alpha  occ. eigenvalues --  -20.53273 -20.53121 -15.59461 -15.59280 -11.35483
 Alpha  occ. eigenvalues --  -11.35162 -11.28027 -11.26453 -11.23851 -11.22140
 Alpha  occ. eigenvalues --   -1.40291  -1.39757  -1.25432  -1.23044  -1.05896
 Alpha  occ. eigenvalues --   -0.99704  -0.96391  -0.88548  -0.79783  -0.78830
 Alpha  occ. eigenvalues --   -0.73616  -0.68115  -0.67045  -0.63793  -0.63320
 Alpha  occ. eigenvalues --   -0.62667  -0.59920  -0.59686  -0.57216  -0.56943
 Alpha  occ. eigenvalues --   -0.56101  -0.54822  -0.53177  -0.51939  -0.50054
 Alpha  occ. eigenvalues --   -0.43596  -0.41648  -0.39902  -0.39867
 Alpha virt. eigenvalues --    0.18257   0.19743   0.21608   0.23192   0.26179
 Alpha virt. eigenvalues --    0.27654   0.28320   0.29543   0.30050   0.31294
 Alpha virt. eigenvalues --    0.32569   0.33773   0.34618   0.35532   0.36584

 Mulliken atomic charges:
              1
     1  H    0.217326
     2  C   -0.587714
     3  H    0.200183
     4  H    0.177132
     5  C    0.747983
     6  O   -0.594826
     7  N   -0.830820
     8  H    0.390042
     9  C   -0.020197
    10  H    0.232167
    11  C   -0.499427
    12  H    0.149512
    13  H    0.183227
    14  H    0.228099
    15  C    0.728579
    16  O   -0.598730
    17  N   -0.790832
    18  H    0.389127
    19  C   -0.277060
    20  H    0.207319
    21  H    0.179138
    22  H    0.169773
 Sum of Mulliken atomic charges =   0.00000

 Dipole moment (field-independent basis, Debye):
    X=             -0.7597    Y=             -4.3967    Z=             -2.7584  Tot=              5.2456
 Quadrupole moment (field-independent basis, Debye-Ang):
   XX=            -67.4117   YY=            -58.3583   ZZ=            -62.0110
   XY=             -3.1030   XZ=              7.0607   YZ=             -1.9421

 Normal termination of Gaussian 09 at Fri Feb 10 08:47:14 2017.
