 Gaussian 09, Revision A.02,
 Gaussian 09:  EM64L-G09RevA.02 11-Jun-2009

 -------------------------------------------
 # HF/6-31G* Opt=(ModRedundant) geom=nocrowd
 -------------------------------------------

 ------------------
 Phi Psi fixed scan
 ------------------
 Symbolic Z-matrix:
 Charge =  0 Multiplicity = 1

 SCF Done:  E(RHF) =  -492.838812723     A.U. after   15 cycles
 SCF Done:  E(RHF) =  -492.849030473     A.U. after   14 cycles
 SCF Done:  E(RHF) =  -492.851875535     A.U. after   13 cycles
 SCF Done:  E(RHF) =  -492.852677521     A.U. after   13 cycles
 SCF Done:  E(RHF) =  -492.853089845     A.U. after   13 cycles
 SCF Done:  E(RHF) =  -492.853867767     A.U. after   13 cycles
 SCF Done:  E(RHF) =  -492.854008818     A.U. after   13 cycles
 SCF Done:  E(RHF) =  -492.854137762     A.U. after   12 cycles
 SCF Done:  E(RHF) =  -492.854215959     A.U. after   12 cycles
 SCF Done:  E(RHF) =  -492.854223108     A.U. after   10 cycles
 SCF Done:  E(RHF) =  -492.854683092     A.U. after   12 cycles
 SCF Done:  E(RHF) =  -492.854682153     A.U. after   10 cycles
 SCF Done:  E(RHF) =  -492.854691967     A.U. after   10 cycles
 SCF Done:  E(RHF) =  -492.854696276     A.U. after    8 cycles
 SCF Done:  E(RHF) =  -492.854733833     A.U. after   12 cycles
 SCF Done:  E(RHF) =  -492.854732397     A.U. after   11 cycles
 SCF Done:  E(RHF) =  -492.854733692     A.U. after   11 cycles
 SCF Done:  E(RHF) =  -492.854735845     A.U. after   10 cycles
 SCF Done:  E(RHF) =  -492.854735872     A.U. after    9 cycles
 SCF Done:  E(RHF) =  -492.854735897     A.U. after    7 cycles
 Optimization completed.
    -- Stationary point found.

                         Standard orientation:
 ---------------------------------------------------------------------
 Center     Atomic      Atomic             Coordinates (Angstroms)
 Number     Number       Type             X           Y           Z
 ---------------------------------------------------------------------
      1          1           0       -4.221274   -0.780671    0.648626
      2          6           0       -3.239722   -1.193549    0.466158
      3          1           0       -3.318709   -1.933500   -0.324849
      4          1           0       -2.876037   -1.688240    1.359129
      5          6           0       -2.315351   -0.082779    0.014724
      6          8           0       -2.729564    0.929734   -0.480269
      7          7           0       -0.992569   -0.330075    0.204639
      8          1           0       -0.723669   -1.280770    0.336287
      9          6           0        0.037561    0.513233   -0.378254
     10          1           0       -0.147489    0.635088   -1.442467
     11          6           0        0.065979    1.895657    0.274400
     12          1           0        0.307957    1.823738    1.329947
     13          1           0        0.787689    2.543383   -0.215545
     14          1           0       -0.904312    2.356649    0.176061
     15          6           0        1.338884   -0.292428   -0.263206
     16          8           0        1.339337   -1.466705   -0.536575
     17          7           0        2.441901    0.337107    0.168186
     18          1           0        2.403933    1.297863    0.407078
     19          6           0        3.706951   -0.360887    0.275271
     20          1           0        3.632492   -1.186777    0.970506
     21          1           0        4.016094   -0.751017   -0.685683
     22          1           0        4.454007    0.335319    0.631329
 ---------------------------------------------------------------------

 The electronic state is 1-A.
 Alpha  occ. eigenvalues --  -20.53063 -20.52279 -15.59733 -15.57941 -11.35420
 Alpha  occ. eigenvalues --  -11.34569 -11.28279 -11.26576 -11.22869 -11.22316
 Alpha  occ. eigenvalues --   -1.40279  -1.38888  -1.24403  -1.23462  -1.05646
 Alpha  occ. eigenvalues --   -0.99178  -0.96055  -0.89215  -0.80516  -0.77720
 Alpha  occ. eigenvalues --   -0.73083  -0.67725  -0.66436  -0.65200  -0.62881
 Alpha  occ. eigenvalues --   -0.62017  -0.59424  -0.58773  -0.56777  -0.55969
 Alpha  occ. eigenvalues --   -0.55949  -0.54575  -0.53783  -0.52665  -0.49670
 Alpha  occ. eigenvalues --   -0.42661  -0.41448  -0.39934  -0.39092
 Alpha virt. eigenvalues --    0.18958   0.20374   0.21946   0.24301   0.25951
 Alpha virt. eigenvalues --    0.28104   0.28998   0.29618   0.30957   0.32157
 Alpha virt. eigenvalues --    0.32544   0.33379   0.34498   0.35216   0.37359

 Mulliken atomic charges:
              1
     1  H    0.211794
     2  C   -0.586393
     3  H    0.199315
     4  H    0.183151
     5  C    0.743748
     6  O   -0.607757
     7  N   -0.808885
     8  H    0.411348
     9  C   -0.001296
    10  H    0.216713
    11  C   -0.530299
    12  H    0.168045
    13  H    0.151262
    14  H    0.243396
    15  C    0.752672
    16  O   -0.631689
    17  N   -0.806324
    18  H    0.404776
    19  C   -0.269541
    20  H    0.193130
    21  H    0.193126
    22  H    0.169706
 Sum of Mulliken atomic charges =   0.00000

 Dipole moment (field-independent basis, Debye):
    X=              2.8511    Y=              0.5357    Z=              1.9080  Tot=              3.4722
 Quadrupole moment (field-independent basis, Debye-Ang):
   XX=            -56.6487   YY=            -62.7678   ZZ=            -61.0778
   XY=             13.4655   XZ=             -1.1076   YZ=             -0.9086

 Normal termination of Gaussian 09 at Fri Feb 10 08:19:09 2017.
