 Gaussian 09, Revision A.02,
 Gaussian 09:  EM64L-G09RevA.02 11-Jun-2009

 -------------------------------------------
 # HF/6-31G* Opt=(ModRedundant) geom=nocrowd
 -------------------------------------------

 ------------------
 Phi Psi fixed scan
 ------------------
 Symbolic Z-matrix:
 Charge =  0 Multiplicity = 1

 SCF Done:  E(RHF) =  -492.842189525     A.U. after   15 cycles
 SCF Done:  E(RHF) =  -492.851366642     A.U. after   13 cycles
 SCF Done:  E(RHF) =  -492.854132651     A.U. after   13 cycles
 SCF Done:  E(RHF) =  -492.855003993     A.U. after   13 cycles
 SCF Done:  E(RHF) =  -492.855266699     A.U. after   13 cycles
 SCF Done:  E(RHF) =  -492.855895172     A.U. after   12 cycles
 SCF Done:  E(RHF) =  -492.856048841     A.U. after   12 cycles
 SCF Done:  E(RHF) =  -492.856065337     A.U. after   11 cycles
 SCF Done:  E(RHF) =  -492.856083721     A.U. after   11 cycles
 SCF Done:  E(RHF) =  -492.856088621     A.U. after    9 cycles
 SCF Done:  E(RHF) =  -492.856079556     A.U. after   14 cycles
 SCF Done:  E(RHF) =  -492.856510606     A.U. after   15 cycles
 SCF Done:  E(RHF) =  -492.856571352     A.U. after   12 cycles
 SCF Done:  E(RHF) =  -492.856599933     A.U. after   12 cycles
 SCF Done:  E(RHF) =  -492.856588858     A.U. after   12 cycles
 SCF Done:  E(RHF) =  -492.856612647     A.U. after   11 cycles
 SCF Done:  E(RHF) =  -492.856613353     A.U. after   10 cycles
 SCF Done:  E(RHF) =  -492.856613431     A.U. after   10 cycles
 SCF Done:  E(RHF) =  -492.856613731     A.U. after    9 cycles
 SCF Done:  E(RHF) =  -492.856613744     A.U. after    6 cycles
 Optimization completed.
    -- Stationary point found.

                         Standard orientation:
 ---------------------------------------------------------------------
 Center     Atomic      Atomic             Coordinates (Angstroms)
 Number     Number       Type             X           Y           Z
 ---------------------------------------------------------------------
      1          1           0       -4.251943   -0.722562    0.578869
      2          6           0       -3.289547   -1.163038    0.360934
      3          1           0       -3.408253   -1.848582   -0.472757
      4          1           0       -2.939599   -1.725674    1.218274
      5          6           0       -2.326727   -0.065353   -0.038983
      6          8           0       -2.704092    0.961005   -0.537825
      7          7           0       -1.019557   -0.337728    0.193202
      8          1           0       -0.756904   -1.283319    0.365913
      9          6           0        0.045209    0.507750   -0.307870
     10          1           0       -0.100189    0.688252   -1.370528
     11          6           0        0.075614    1.856166    0.417459
     12          1           0        0.339587    1.729704    1.462062
     13          1           0        0.780033    2.541194   -0.045750
     14          1           0       -0.900416    2.311973    0.356997
     15          6           0        1.334267   -0.314453   -0.175903
     16          8           0        1.301980   -1.517113   -0.251636
     17          7           0        2.480641    0.352751    0.028422
     18          1           0        2.473872    1.341305    0.095244
     19          6           0        3.748383   -0.344153    0.108161
     20          1           0        3.736791   -1.067387    0.912566
     21          1           0        3.965707   -0.864630   -0.815854
     22          1           0        4.527422    0.381910    0.296506
 ---------------------------------------------------------------------

 The electronic state is 1-A.
 Alpha  occ. eigenvalues --  -20.53330 -20.51962 -15.59712 -15.57710 -11.35557
 Alpha  occ. eigenvalues --  -11.34390 -11.28343 -11.26596 -11.22737 -11.22383
 Alpha  occ. eigenvalues --   -1.40469  -1.38639  -1.24443  -1.23371  -1.05625
 Alpha  occ. eigenvalues --   -0.99093  -0.96058  -0.89184  -0.80684  -0.77681
 Alpha  occ. eigenvalues --   -0.73117  -0.67599  -0.66260  -0.65346  -0.62940
 Alpha  occ. eigenvalues --   -0.61923  -0.59527  -0.58788  -0.56707  -0.56167
 Alpha  occ. eigenvalues --   -0.55881  -0.54702  -0.53503  -0.52603  -0.49527
 Alpha  occ. eigenvalues --   -0.42758  -0.41326  -0.40129  -0.38788
 Alpha virt. eigenvalues --    0.18891   0.20637   0.21692   0.24565   0.25879
 Alpha virt. eigenvalues --    0.28294   0.28812   0.30092   0.30841   0.32108
 Alpha virt. eigenvalues --    0.32754   0.33360   0.34673   0.35426   0.37733

 Mulliken atomic charges:
              1
     1  H    0.210307
     2  C   -0.583660
     3  H    0.199756
     4  H    0.181055
     5  C    0.746294
     6  O   -0.613322
     7  N   -0.814318
     8  H    0.418230
     9  C   -0.013649
    10  H    0.218457
    11  C   -0.519104
    12  H    0.172050
    13  H    0.144852
    14  H    0.239930
    15  C    0.766241
    16  O   -0.633871
    17  N   -0.807617
    18  H    0.401741
    19  C   -0.269245
    20  H    0.195115
    21  H    0.190890
    22  H    0.169869
 Sum of Mulliken atomic charges =   0.00000

 Dipole moment (field-independent basis, Debye):
    X=              2.9946    Y=              0.5783    Z=              1.2904  Tot=              3.3116
 Quadrupole moment (field-independent basis, Debye-Ang):
   XX=            -55.8386   YY=            -63.2387   ZZ=            -60.9314
   XY=             13.7211   XZ=             -2.8355   YZ=              0.0145

 Normal termination of Gaussian 09 at Fri Feb 10 08:12:42 2017.
