 Gaussian 09, Revision A.02,
 Gaussian 09:  EM64L-G09RevA.02 11-Jun-2009

 -------------------------------------------
 # HF/6-31G* Opt=(ModRedundant) geom=nocrowd
 -------------------------------------------

 ------------------
 Phi Psi fixed scan
 ------------------
 Symbolic Z-matrix:
 Charge =  0 Multiplicity = 1

 SCF Done:  E(RHF) =  -492.850648750     A.U. after   15 cycles
 SCF Done:  E(RHF) =  -492.856813658     A.U. after   13 cycles
 SCF Done:  E(RHF) =  -492.857500640     A.U. after   13 cycles
 SCF Done:  E(RHF) =  -492.857684847     A.U. after   13 cycles
 SCF Done:  E(RHF) =  -492.858022306     A.U. after   13 cycles
 SCF Done:  E(RHF) =  -492.858120466     A.U. after   12 cycles
 SCF Done:  E(RHF) =  -492.858161612     A.U. after   12 cycles
 SCF Done:  E(RHF) =  -492.858183265     A.U. after   11 cycles
 SCF Done:  E(RHF) =  -492.858190474     A.U. after   10 cycles
 SCF Done:  E(RHF) =  -492.858221043     A.U. after   11 cycles
 SCF Done:  E(RHF) =  -492.858417956     A.U. after   15 cycles
 SCF Done:  E(RHF) =  -492.858423564     A.U. after   11 cycles
 SCF Done:  E(RHF) =  -492.858413098     A.U. after   12 cycles
 SCF Done:  E(RHF) =  -492.858452470     A.U. after   11 cycles
 SCF Done:  E(RHF) =  -492.858499193     A.U. after   12 cycles
 SCF Done:  E(RHF) =  -492.858506549     A.U. after   11 cycles
 SCF Done:  E(RHF) =  -492.858511072     A.U. after   10 cycles
 SCF Done:  E(RHF) =  -492.858512927     A.U. after   10 cycles
 SCF Done:  E(RHF) =  -492.858513540     A.U. after   10 cycles
 SCF Done:  E(RHF) =  -492.858513558     A.U. after    6 cycles
 Optimization completed.
    -- Stationary point found.

                         Standard orientation:
 ---------------------------------------------------------------------
 Center     Atomic      Atomic             Coordinates (Angstroms)
 Number     Number       Type             X           Y           Z
 ---------------------------------------------------------------------
      1          1           0       -4.018467   -1.430107   -0.299421
      2          6           0       -3.219903   -1.212928    0.395324
      3          1           0       -2.760130   -2.136352    0.727469
      4          1           0       -3.645323   -0.712646    1.260168
      5          6           0       -2.228298   -0.284917   -0.272162
      6          8           0       -2.544088    0.456044   -1.163087
      7          7           0       -0.960302   -0.351849    0.206259
      8          1           0       -0.793778   -0.836888    1.060910
      9          6           0        0.044037    0.627684   -0.164667
     10          1           0       -0.014586    0.755946   -1.236457
     11          6           0       -0.155011    1.982063    0.518343
     12          1           0       -0.099833    1.870876    1.594374
     13          1           0        0.612873    2.684188    0.206886
     14          1           0       -1.120219    2.389321    0.246436
     15          6           0        1.386399    0.027565    0.240037
     16          8           0        1.599347   -0.271291    1.387267
     17          7           0        2.281763   -0.161940   -0.743042
     18          1           0        2.013836    0.022302   -1.681114
     19          6           0        3.573981   -0.764107   -0.488804
     20          1           0        4.060115   -0.265215    0.337475
     21          1           0        3.480388   -1.816338   -0.246518
     22          1           0        4.185586   -0.658742   -1.374593
 ---------------------------------------------------------------------

 The electronic state is 1-A.
 Alpha  occ. eigenvalues --  -20.52939 -20.52283 -15.59630 -15.58387 -11.35046
 Alpha  occ. eigenvalues --  -11.34799 -11.27924 -11.26434 -11.23170 -11.21766
 Alpha  occ. eigenvalues --   -1.40033  -1.38974  -1.24325  -1.23644  -1.05440
 Alpha  occ. eigenvalues --   -0.99222  -0.96615  -0.88124  -0.80175  -0.78849
 Alpha  occ. eigenvalues --   -0.73037  -0.67196  -0.65887  -0.64511  -0.63126
 Alpha  occ. eigenvalues --   -0.62244  -0.60222  -0.58571  -0.57411  -0.56663
 Alpha  occ. eigenvalues --   -0.56107  -0.54029  -0.52367  -0.51867  -0.50074
 Alpha  occ. eigenvalues --   -0.42762  -0.41882  -0.39810  -0.38747
 Alpha virt. eigenvalues --    0.18878   0.21070   0.21281   0.23332   0.26082
 Alpha virt. eigenvalues --    0.27817   0.29111   0.30580   0.30856   0.31706
 Alpha virt. eigenvalues --    0.32389   0.33166   0.33845   0.35590   0.37403

 Mulliken atomic charges:
              1
     1  H    0.212909
     2  C   -0.585341
     3  H    0.181299
     4  H    0.198670
     5  C    0.751557
     6  O   -0.610668
     7  N   -0.811010
     8  H    0.403075
     9  C   -0.026704
    10  H    0.209965
    11  C   -0.499082
    12  H    0.187325
    13  H    0.164470
    14  H    0.202324
    15  C    0.773460
    16  O   -0.632185
    17  N   -0.796335
    18  H    0.392846
    19  C   -0.274243
    20  H    0.201983
    21  H    0.184484
    22  H    0.171201
 Sum of Mulliken atomic charges =   0.00000

 Dipole moment (field-independent basis, Debye):
    X=              1.7122    Y=             -1.1422    Z=             -0.7656  Tot=              2.1960
 Quadrupole moment (field-independent basis, Debye-Ang):
   XX=            -57.9849   YY=            -58.8896   ZZ=            -63.8738
   XY=              4.8549   XZ=            -15.1145   YZ=              1.5464

 Normal termination of Gaussian 09 at Fri Feb 10 07:35:06 2017.
