 Gaussian 09, Revision A.02,
 Gaussian 09:  EM64L-G09RevA.02 11-Jun-2009

 -------------------------------------------
 # HF/6-31G* Opt=(ModRedundant) geom=nocrowd
 -------------------------------------------

 ------------------
 Phi Psi fixed scan
 ------------------
 Symbolic Z-matrix:
 Charge =  0 Multiplicity = 1

 SCF Done:  E(RHF) =  -492.838949406     A.U. after   15 cycles
 SCF Done:  E(RHF) =  -492.847003333     A.U. after   14 cycles
 SCF Done:  E(RHF) =  -492.850538933     A.U. after   14 cycles
 SCF Done:  E(RHF) =  -492.852822733     A.U. after   13 cycles
 SCF Done:  E(RHF) =  -492.854085727     A.U. after   14 cycles
 SCF Done:  E(RHF) =  -492.854613082     A.U. after   12 cycles
 SCF Done:  E(RHF) =  -492.854577191     A.U. after   12 cycles
 SCF Done:  E(RHF) =  -492.854732170     A.U. after   12 cycles
 SCF Done:  E(RHF) =  -492.854803436     A.U. after   11 cycles
 SCF Done:  E(RHF) =  -492.855130758     A.U. after   12 cycles
 SCF Done:  E(RHF) =  -492.855321295     A.U. after   12 cycles
 SCF Done:  E(RHF) =  -492.855387612     A.U. after   12 cycles
 SCF Done:  E(RHF) =  -492.855400094     A.U. after   11 cycles
 SCF Done:  E(RHF) =  -492.855407782     A.U. after   11 cycles
 SCF Done:  E(RHF) =  -492.855425036     A.U. after   11 cycles
 SCF Done:  E(RHF) =  -492.855428195     A.U. after    9 cycles
 SCF Done:  E(RHF) =  -492.855430852     A.U. after   10 cycles
 SCF Done:  E(RHF) =  -492.855433471     A.U. after   11 cycles
 SCF Done:  E(RHF) =  -492.855433926     A.U. after    9 cycles
 Optimization completed.
    -- Stationary point found.

                         Standard orientation:
 ---------------------------------------------------------------------
 Center     Atomic      Atomic             Coordinates (Angstroms)
 Number     Number       Type             X           Y           Z
 ---------------------------------------------------------------------
      1          1           0       -3.971184   -1.437033   -0.009974
      2          6           0       -3.050432   -1.308280    0.539675
      3          1           0       -2.559413   -2.266802    0.664527
      4          1           0       -3.287277   -0.917776    1.525290
      5          6           0       -2.173451   -0.317710   -0.194925
      6          8           0       -2.605801    0.439349   -1.013993
      7          7           0       -0.842962   -0.366840    0.135492
      8          1           0       -0.645973   -0.805004    1.010815
      9          6           0        0.034512    0.748779   -0.201359
     10          1           0       -0.142974    0.978377   -1.244023
     11          6           0       -0.242092    1.999556    0.634248
     12          1           0       -0.091942    1.797059    1.690971
     13          1           0        0.428102    2.796834    0.346741
     14          1           0       -1.263792    2.322402    0.480836
     15          6           0        1.507665    0.350318   -0.087829
     16          8           0        2.364636    1.189466   -0.048694
     17          7           0        1.778915   -0.973689   -0.019281
     18          1           0        1.061476   -1.599076   -0.306433
     19          6           0        3.149003   -1.442175   -0.066841
     20          1           0        3.736518   -0.915164    0.669819
     21          1           0        3.162010   -2.499762    0.162062
     22          1           0        3.600868   -1.283806   -1.040424
 ---------------------------------------------------------------------

 The electronic state is 1-A.
 Alpha  occ. eigenvalues --  -20.53834 -20.52629 -15.59588 -15.58850 -11.35952
 Alpha  occ. eigenvalues --  -11.34810 -11.28026 -11.25996 -11.24257 -11.21527
 Alpha  occ. eigenvalues --   -1.40634  -1.39571  -1.25565  -1.22790  -1.05566
 Alpha  occ. eigenvalues --   -0.99761  -0.96406  -0.87884  -0.79993  -0.78765
 Alpha  occ. eigenvalues --   -0.73576  -0.67913  -0.65762  -0.64748  -0.63137
 Alpha  occ. eigenvalues --   -0.62669  -0.59851  -0.59558  -0.58176  -0.56591
 Alpha  occ. eigenvalues --   -0.55547  -0.54190  -0.52720  -0.51946  -0.49982
 Alpha  occ. eigenvalues --   -0.43312  -0.42764  -0.40006  -0.39432
 Alpha virt. eigenvalues --    0.18267   0.19514   0.21369   0.24478   0.27007
 Alpha virt. eigenvalues --    0.27646   0.28235   0.29594   0.29964   0.31460
 Alpha virt. eigenvalues --    0.32669   0.33211   0.33793   0.34283   0.37079

 Mulliken atomic charges:
              1
     1  H    0.220030
     2  C   -0.591136
     3  H    0.182247
     4  H    0.196706
     5  C    0.745808
     6  O   -0.584048
     7  N   -0.826209
     8  H    0.378228
     9  C   -0.051787
    10  H    0.245071
    11  C   -0.491428
    12  H    0.152892
    13  H    0.208478
    14  H    0.193452
    15  C    0.760476
    16  O   -0.611674
    17  N   -0.799208
    18  H    0.397026
    19  C   -0.276226
    20  H    0.205103
    21  H    0.167877
    22  H    0.178321
 Sum of Mulliken atomic charges =   0.00000

 Dipole moment (field-independent basis, Debye):
    X=             -0.5907    Y=             -4.4935    Z=              2.2909  Tot=              5.0783
 Quadrupole moment (field-independent basis, Debye-Ang):
   XX=            -68.3800   YY=            -58.7382   ZZ=            -60.7492
   XY=             -3.0803   XZ=             -7.3216   YZ=              0.7381

 Normal termination of Gaussian 09 at Fri Feb 10 07:11:17 2017.
