 Gaussian 09, Revision A.02,
 Gaussian 09:  EM64L-G09RevA.02 11-Jun-2009

 -------------------------------------------
 # HF/6-31G* Opt=(ModRedundant) geom=nocrowd
 -------------------------------------------

 ------------------
 Phi Psi fixed scan
 ------------------
 Symbolic Z-matrix:
 Charge =  0 Multiplicity = 1

 SCF Done:  E(RHF) =  -492.852150014     A.U. after   15 cycles
 SCF Done:  E(RHF) =  -492.858115672     A.U. after   13 cycles
 SCF Done:  E(RHF) =  -492.859027750     A.U. after   12 cycles
 SCF Done:  E(RHF) =  -492.859219002     A.U. after   12 cycles
 SCF Done:  E(RHF) =  -492.859259356     A.U. after   12 cycles
 SCF Done:  E(RHF) =  -492.859319792     A.U. after   11 cycles
 SCF Done:  E(RHF) =  -492.859330770     A.U. after   10 cycles
 SCF Done:  E(RHF) =  -492.859345576     A.U. after    9 cycles
 SCF Done:  E(RHF) =  -492.859349777     A.U. after    9 cycles
 SCF Done:  E(RHF) =  -492.859354382     A.U. after   10 cycles
 SCF Done:  E(RHF) =  -492.859822386     A.U. after   10 cycles
 SCF Done:  E(RHF) =  -492.859827312     A.U. after   11 cycles
 SCF Done:  E(RHF) =  -492.859831608     A.U. after   10 cycles
 SCF Done:  E(RHF) =  -492.859832965     A.U. after    9 cycles
 SCF Done:  E(RHF) =  -492.859835460     A.U. after   10 cycles
 SCF Done:  E(RHF) =  -492.859837611     A.U. after   10 cycles
 SCF Done:  E(RHF) =  -492.859838139     A.U. after   10 cycles
 SCF Done:  E(RHF) =  -492.859838241     A.U. after    8 cycles
 SCF Done:  E(RHF) =  -492.859838320     A.U. after    9 cycles
 SCF Done:  E(RHF) =  -492.859838341     A.U. after    8 cycles
 Optimization completed.
    -- Stationary point found.

                         Standard orientation:
 ---------------------------------------------------------------------
 Center     Atomic      Atomic             Coordinates (Angstroms)
 Number     Number       Type             X           Y           Z
 ---------------------------------------------------------------------
      1          1           0       -4.220668   -0.661946    0.577214
      2          6           0       -3.350585   -1.127828    0.134109
      3          1           0       -3.657652   -1.581984   -0.801875
      4          1           0       -2.978787   -1.902946    0.792993
      5          6           0       -2.324968   -0.055428   -0.164335
      6          8           0       -2.638637    0.995400   -0.661266
      7          7           0       -1.049009   -0.364831    0.142048
      8          1           0       -0.805126   -1.276067    0.460141
      9          6           0        0.054228    0.515400   -0.156166
     10          1           0       -0.028582    0.857987   -1.183086
     11          6           0        0.070147    1.736052    0.775576
     12          1           0        0.221375    1.424088    1.803378
     13          1           0        0.856247    2.435246    0.511203
     14          1           0       -0.876651    2.250496    0.699378
     15          6           0        1.335982   -0.309918   -0.020227
     16          8           0        1.313590   -1.466806    0.312488
     17          7           0        2.485059    0.347205   -0.263045
     18          1           0        2.445902    1.266976   -0.635397
     19          6           0        3.765375   -0.329575   -0.227179
     20          1           0        3.862903   -0.883225    0.695212
     21          1           0        3.878311   -1.019766   -1.055586
     22          1           0        4.549681    0.413557   -0.277029
 ---------------------------------------------------------------------

 The electronic state is 1-A.
 Alpha  occ. eigenvalues --  -20.53784 -20.51401 -15.59655 -15.57677 -11.35682
 Alpha  occ. eigenvalues --  -11.34215 -11.28284 -11.26612 -11.22666 -11.22324
 Alpha  occ. eigenvalues --   -1.40734  -1.38259  -1.24490  -1.23370  -1.05608
 Alpha  occ. eigenvalues --   -0.99034  -0.96152  -0.88855  -0.80714  -0.78096
 Alpha  occ. eigenvalues --   -0.73122  -0.67573  -0.65911  -0.64992  -0.63398
 Alpha  occ. eigenvalues --   -0.61809  -0.59805  -0.58703  -0.56559  -0.56453
 Alpha  occ. eigenvalues --   -0.56128  -0.54709  -0.53109  -0.52369  -0.49321
 Alpha  occ. eigenvalues --   -0.42971  -0.41148  -0.40450  -0.38263
 Alpha virt. eigenvalues --    0.18688   0.20776   0.21533   0.24423   0.25969
 Alpha virt. eigenvalues --    0.28204   0.28893   0.30023   0.31416   0.31978
 Alpha virt. eigenvalues --    0.33109   0.33658   0.33837   0.35449   0.37648

 Mulliken atomic charges:
              1
     1  H    0.206681
     2  C   -0.575833
     3  H    0.202440
     4  H    0.174341
     5  C    0.756240
     6  O   -0.623677
     7  N   -0.827532
     8  H    0.424215
     9  C   -0.031045
    10  H    0.213964
    11  C   -0.487950
    12  H    0.173631
    13  H    0.146954
    14  H    0.224842
    15  C    0.776358
    16  O   -0.631257
    17  N   -0.798744
    18  H    0.390789
    19  C   -0.272358
    20  H    0.203982
    21  H    0.182233
    22  H    0.171724
 Sum of Mulliken atomic charges =   0.00000

 Dipole moment (field-independent basis, Debye):
    X=              2.9316    Y=              0.3331    Z=              0.1171  Tot=              2.9528
 Quadrupole moment (field-independent basis, Debye-Ang):
   XX=            -55.4352   YY=            -63.5885   ZZ=            -60.7241
   XY=             13.4107   XZ=             -6.5641   YZ=              1.4153

 Normal termination of Gaussian 09 at Fri Feb 10 08:04:25 2017.
