 Gaussian 09, Revision A.02,
 Gaussian 09:  EM64L-G09RevA.02 11-Jun-2009

 -------------------------------------------
 # HF/6-31G* Opt=(ModRedundant) geom=nocrowd
 -------------------------------------------

 ------------------
 Phi Psi fixed scan
 ------------------
 Symbolic Z-matrix:
 Charge =  0 Multiplicity = 1

 SCF Done:  E(RHF) =  -492.847584123     A.U. after   15 cycles
 SCF Done:  E(RHF) =  -492.854928077     A.U. after   14 cycles
 SCF Done:  E(RHF) =  -492.856829867     A.U. after   12 cycles
 SCF Done:  E(RHF) =  -492.857317099     A.U. after   13 cycles
 SCF Done:  E(RHF) =  -492.857162018     A.U. after   13 cycles
 SCF Done:  E(RHF) =  -492.857733856     A.U. after   12 cycles
 SCF Done:  E(RHF) =  -492.857726928     A.U. after   12 cycles
 SCF Done:  E(RHF) =  -492.857785159     A.U. after   11 cycles
 SCF Done:  E(RHF) =  -492.857792544     A.U. after   10 cycles
 SCF Done:  E(RHF) =  -492.857797810     A.U. after   10 cycles
 SCF Done:  E(RHF) =  -492.858094147     A.U. after   11 cycles
 SCF Done:  E(RHF) =  -492.858026830     A.U. after   15 cycles
 SCF Done:  E(RHF) =  -492.858107044     A.U. after   12 cycles
 SCF Done:  E(RHF) =  -492.858278437     A.U. after   12 cycles
 SCF Done:  E(RHF) =  -492.858324952     A.U. after   11 cycles
 SCF Done:  E(RHF) =  -492.858326008     A.U. after    9 cycles
 SCF Done:  E(RHF) =  -492.858326136     A.U. after    8 cycles
 SCF Done:  E(RHF) =  -492.858326225     A.U. after    8 cycles
 SCF Done:  E(RHF) =  -492.858326285     A.U. after    8 cycles
 SCF Done:  E(RHF) =  -492.858326329     A.U. after    8 cycles
 Optimization completed.
    -- Stationary point found.

                         Standard orientation:
 ---------------------------------------------------------------------
 Center     Atomic      Atomic             Coordinates (Angstroms)
 Number     Number       Type             X           Y           Z
 ---------------------------------------------------------------------
      1          1           0       -4.254161   -0.676319    0.552016
      2          6           0       -3.328304   -1.140416    0.241877
      3          1           0       -3.527315   -1.726633   -0.649717
      4          1           0       -2.973615   -1.805723    1.019788
      5          6           0       -2.329754   -0.056064   -0.102417
      6          8           0       -2.671330    0.983691   -0.602157
      7          7           0       -1.039535   -0.349876    0.171285
      8          1           0       -0.783835   -1.282683    0.408996
      9          6           0        0.051136    0.508774   -0.230573
     10          1           0       -0.057722    0.768030   -1.280742
     11          6           0        0.076089    1.800359    0.596883
     12          1           0        0.300725    1.585609    1.635891
     13          1           0        0.809529    2.507785    0.222977
     14          1           0       -0.891578    2.274885    0.536383
     15          6           0        1.333614   -0.320059   -0.090772
     16          8           0        1.294051   -1.516719    0.042064
     17          7           0        2.494987    0.356712   -0.110303
     18          1           0        2.490035    1.332057   -0.290179
     19          6           0        3.768096   -0.333725   -0.070901
     20          1           0        3.800616   -1.005076    0.775183
     21          1           0        3.937554   -0.910374   -0.972734
     22          1           0        4.554576    0.401605    0.031420
 ---------------------------------------------------------------------

 The electronic state is 1-A.
 Alpha  occ. eigenvalues --  -20.53642 -20.51638 -15.59670 -15.57620 -11.35674
 Alpha  occ. eigenvalues --  -11.34262 -11.28352 -11.26600 -11.22667 -11.22370
 Alpha  occ. eigenvalues --   -1.40672  -1.38408  -1.24472  -1.23341  -1.05601
 Alpha  occ. eigenvalues --   -0.99038  -0.96072  -0.89048  -0.80735  -0.77834
 Alpha  occ. eigenvalues --   -0.73132  -0.67549  -0.66039  -0.65324  -0.63162
 Alpha  occ. eigenvalues --   -0.61837  -0.59646  -0.58762  -0.56585  -0.56346
 Alpha  occ. eigenvalues --   -0.55940  -0.54738  -0.53310  -0.52458  -0.49392
 Alpha  occ. eigenvalues --   -0.42902  -0.41211  -0.40340  -0.38487
 Alpha virt. eigenvalues --    0.18787   0.20722   0.21514   0.24595   0.25879
 Alpha virt. eigenvalues --    0.28329   0.28877   0.30452   0.30842   0.31795
 Alpha virt. eigenvalues --    0.33122   0.33260   0.34553   0.35618   0.38281

 Mulliken atomic charges:
              1
     1  H    0.208550
     2  C   -0.579751
     3  H    0.200857
     4  H    0.177670
     5  C    0.751000
     6  O   -0.619099
     7  N   -0.821251
     8  H    0.423106
     9  C   -0.027481
    10  H    0.217812
    11  C   -0.498122
    12  H    0.173815
    13  H    0.141015
    14  H    0.232132
    15  C    0.774436
    16  O   -0.633020
    17  N   -0.802850
    18  H    0.395364
    19  C   -0.271127
    20  H    0.201820
    21  H    0.184207
    22  H    0.170914
 Sum of Mulliken atomic charges =   0.00000

 Dipole moment (field-independent basis, Debye):
    X=              3.0226    Y=              0.4816    Z=              0.6122  Tot=              3.1213
 Quadrupole moment (field-independent basis, Debye-Ang):
   XX=            -55.4574   YY=            -63.5093   ZZ=            -60.8248
   XY=             13.6784   XZ=             -4.8786   YZ=              0.7272

 Normal termination of Gaussian 09 at Fri Feb 10 08:07:21 2017.
