 Gaussian 09, Revision A.02,
 Gaussian 09:  EM64L-G09RevA.02 11-Jun-2009

 -------------------------------------------
 # HF/6-31G* Opt=(ModRedundant) geom=nocrowd
 -------------------------------------------

 ------------------
 Phi Psi fixed scan
 ------------------
 Symbolic Z-matrix:
 Charge =  0 Multiplicity = 1

 SCF Done:  E(RHF) =  -492.842416823     A.U. after   15 cycles
 SCF Done:  E(RHF) =  -492.849480280     A.U. after   16 cycles
 SCF Done:  E(RHF) =  -492.850182095     A.U. after   13 cycles
 SCF Done:  E(RHF) =  -492.850336079     A.U. after   13 cycles
 SCF Done:  E(RHF) =  -492.850402804     A.U. after   13 cycles
 SCF Done:  E(RHF) =  -492.850622942     A.U. after   12 cycles
 SCF Done:  E(RHF) =  -492.850751043     A.U. after   12 cycles
 SCF Done:  E(RHF) =  -492.850766798     A.U. after   13 cycles
 SCF Done:  E(RHF) =  -492.850821062     A.U. after   11 cycles
 SCF Done:  E(RHF) =  -492.850918164     A.U. after   12 cycles
 SCF Done:  E(RHF) =  -492.851038387     A.U. after   12 cycles
 SCF Done:  E(RHF) =  -492.851100362     A.U. after   11 cycles
 SCF Done:  E(RHF) =  -492.851185639     A.U. after   12 cycles
 SCF Done:  E(RHF) =  -492.851239743     A.U. after   11 cycles
 SCF Done:  E(RHF) =  -492.851318931     A.U. after   12 cycles
 SCF Done:  E(RHF) =  -492.851349098     A.U. after   12 cycles
 SCF Done:  E(RHF) =  -492.851353742     A.U. after   11 cycles
 SCF Done:  E(RHF) =  -492.851357470     A.U. after   10 cycles
 SCF Done:  E(RHF) =  -492.851357741     A.U. after    8 cycles
 Optimization completed.
    -- Stationary point found.

                         Standard orientation:
 ---------------------------------------------------------------------
 Center     Atomic      Atomic             Coordinates (Angstroms)
 Number     Number       Type             X           Y           Z
 ---------------------------------------------------------------------
      1          1           0        4.010065   -1.309617   -0.426333
      2          6           0        3.030955   -1.519900   -0.020778
      3          1           0        3.154304   -1.911382    0.984350
      4          1           0        2.540039   -2.275253   -0.623849
      5          6           0        2.242468   -0.229071    0.046820
      6          8           0        2.776981    0.839293    0.155832
      7          7           0        0.893178   -0.371641   -0.002478
      8          1           0        0.519158   -1.291546    0.050002
      9          6           0       -0.013007    0.749621    0.223512
     10          1           0        0.265636    1.253250    1.137904
     11          6           0        0.005596    1.763043   -0.925024
     12          1           0       -0.221354    1.294956   -1.877611
     13          1           0       -0.724633    2.545008   -0.742459
     14          1           0        0.984673    2.213477   -0.994710
     15          6           0       -1.417334    0.199585    0.469911
     16          8           0       -2.003269    0.406880    1.494755
     17          7           0       -1.949226   -0.534388   -0.537876
     18          1           0       -1.499129   -0.516504   -1.423715
     19          6           0       -3.319113   -1.002504   -0.479625
     20          1           0       -3.496185   -1.491360    0.466810
     21          1           0       -4.029366   -0.189130   -0.582143
     22          1           0       -3.477957   -1.713718   -1.279354
 ---------------------------------------------------------------------

 The electronic state is 1-A.
 Alpha  occ. eigenvalues --  -20.53288 -20.52732 -15.59463 -15.59244 -11.35292
 Alpha  occ. eigenvalues --  -11.35141 -11.28063 -11.26501 -11.23703 -11.22346
 Alpha  occ. eigenvalues --   -1.40219  -1.39495  -1.25215  -1.23156  -1.05904
 Alpha  occ. eigenvalues --   -0.99639  -0.96343  -0.88873  -0.79785  -0.79192
 Alpha  occ. eigenvalues --   -0.73491  -0.67887  -0.66875  -0.64096  -0.63206
 Alpha  occ. eigenvalues --   -0.62606  -0.59602  -0.59446  -0.57231  -0.57128
 Alpha  occ. eigenvalues --   -0.56165  -0.54939  -0.53310  -0.52034  -0.50104
 Alpha  occ. eigenvalues --   -0.43426  -0.41588  -0.39939  -0.39346
 Alpha virt. eigenvalues --    0.18461   0.19780   0.21711   0.22649   0.25850
 Alpha virt. eigenvalues --    0.27543   0.28214   0.29954   0.30176   0.31231
 Alpha virt. eigenvalues --    0.32605   0.33809   0.34817   0.35635   0.36668

 Mulliken atomic charges:
              1
     1  H    0.215685
     2  C   -0.585036
     3  H    0.203050
     4  H    0.173194
     5  C    0.752440
     6  O   -0.601944
     7  N   -0.830384
     8  H    0.391808
     9  C   -0.012844
    10  H    0.236398
    11  C   -0.501661
    12  H    0.144886
    13  H    0.177403
    14  H    0.229126
    15  C    0.721852
    16  O   -0.595798
    17  N   -0.788130
    18  H    0.390254
    19  C   -0.275442
    20  H    0.205098
    21  H    0.180727
    22  H    0.169317
 Sum of Mulliken atomic charges =   0.00000

 Dipole moment (field-independent basis, Debye):
    X=             -1.1785    Y=             -3.7226    Z=             -3.5168  Tot=              5.2549
 Quadrupole moment (field-independent basis, Debye-Ang):
   XX=            -66.1654   YY=            -57.7918   ZZ=            -63.1332
   XY=             -4.9288   XZ=              7.2030   YZ=             -1.2811

 Normal termination of Gaussian 09 at Fri Feb 10 08:44:43 2017.
