 Gaussian 09, Revision A.02,
 Gaussian 09:  EM64L-G09RevA.02 11-Jun-2009

 -------------------------------------------
 # HF/6-31G* Opt=(ModRedundant) geom=nocrowd
 -------------------------------------------

 ------------------
 Phi Psi fixed scan
 ------------------
 Symbolic Z-matrix:
 Charge =  0 Multiplicity = 1

 SCF Done:  E(RHF) =  -492.854202386     A.U. after   15 cycles
 SCF Done:  E(RHF) =  -492.859651781     A.U. after   13 cycles
 SCF Done:  E(RHF) =  -492.860068176     A.U. after   13 cycles
 SCF Done:  E(RHF) =  -492.860121681     A.U. after   12 cycles
 SCF Done:  E(RHF) =  -492.860233387     A.U. after   11 cycles
 SCF Done:  E(RHF) =  -492.860250103     A.U. after   10 cycles
 SCF Done:  E(RHF) =  -492.860252829     A.U. after   10 cycles
 SCF Done:  E(RHF) =  -492.860262998     A.U. after    9 cycles
 SCF Done:  E(RHF) =  -492.860265298     A.U. after    9 cycles
 SCF Done:  E(RHF) =  -492.860270700     A.U. after   11 cycles
 SCF Done:  E(RHF) =  -492.860516686     A.U. after   11 cycles
 SCF Done:  E(RHF) =  -492.860544705     A.U. after   11 cycles
 SCF Done:  E(RHF) =  -492.860579110     A.U. after   11 cycles
 SCF Done:  E(RHF) =  -492.860592149     A.U. after   11 cycles
 SCF Done:  E(RHF) =  -492.860595647     A.U. after   11 cycles
 SCF Done:  E(RHF) =  -492.860605233     A.U. after   11 cycles
 SCF Done:  E(RHF) =  -492.860605767     A.U. after    9 cycles
 SCF Done:  E(RHF) =  -492.860605842     A.U. after    8 cycles
 SCF Done:  E(RHF) =  -492.860605885     A.U. after    8 cycles
 SCF Done:  E(RHF) =  -492.860605891     A.U. after    7 cycles
 Optimization completed.
    -- Stationary point found.

                         Standard orientation:
 ---------------------------------------------------------------------
 Center     Atomic      Atomic             Coordinates (Angstroms)
 Number     Number       Type             X           Y           Z
 ---------------------------------------------------------------------
      1          1           0       -4.063263   -1.161189   -0.774669
      2          6           0       -3.332558   -1.149605    0.022212
      3          1           0       -2.907072   -2.138665    0.142275
      4          1           0       -3.842299   -0.878381    0.941159
      5          6           0       -2.293175   -0.093549   -0.285532
      6          8           0       -2.583307    0.946603   -0.816620
      7          7           0       -1.030321   -0.392216    0.085001
      8          1           0       -0.828516   -1.226627    0.589235
      9          6           0        0.053103    0.554123   -0.036450
     10          1           0       -0.003102    1.006311   -1.018456
     11          6           0       -0.003504    1.658987    1.027390
     12          1           0        0.061168    1.226725    2.019836
     13          1           0        0.815525    2.360545    0.903350
     14          1           0       -0.935993    2.199263    0.935556
     15          6           0        1.351838   -0.231373    0.110237
     16          8           0        1.414059   -1.208531    0.811429
     17          7           0        2.412710    0.258724   -0.553830
     18          1           0        2.279579    1.011462   -1.187947
     19          6           0        3.714969   -0.370867   -0.479251
     20          1           0        3.992388   -0.530539    0.552993
     21          1           0        3.723058   -1.327430   -0.988498
     22          1           0        4.441744    0.282092   -0.943135
 ---------------------------------------------------------------------

 The electronic state is 1-A.
 Alpha  occ. eigenvalues --  -20.53386 -20.51582 -15.59719 -15.57910 -11.35378
 Alpha  occ. eigenvalues --  -11.34367 -11.28073 -11.26581 -11.22815 -11.22203
 Alpha  occ. eigenvalues --   -1.40381  -1.38416  -1.24436  -1.23474  -1.05583
 Alpha  occ. eigenvalues --   -0.99102  -0.96454  -0.88460  -0.80572  -0.78529
 Alpha  occ. eigenvalues --   -0.73073  -0.67400  -0.65852  -0.64329  -0.63514
 Alpha  occ. eigenvalues --   -0.61971  -0.60159  -0.58568  -0.57011  -0.56500
 Alpha  occ. eigenvalues --   -0.56289  -0.54425  -0.52628  -0.52248  -0.49569
 Alpha  occ. eigenvalues --   -0.42911  -0.41338  -0.40209  -0.38255
 Alpha virt. eigenvalues --    0.18716   0.21064   0.21446   0.24004   0.26075
 Alpha virt. eigenvalues --    0.27999   0.29159   0.30114   0.31305   0.31731
 Alpha virt. eigenvalues --    0.32369   0.33293   0.33982   0.35426   0.37095

 Mulliken atomic charges:
              1
     1  H    0.209252
     2  C   -0.578833
     3  H    0.176127
     4  H    0.200573
     5  C    0.757041
     6  O   -0.621806
     7  N   -0.822906
     8  H    0.416089
     9  C   -0.023068
    10  H    0.208131
    11  C   -0.493665
    12  H    0.179828
    13  H    0.160447
    14  H    0.213412
    15  C    0.774554
    16  O   -0.632508
    17  N   -0.799442
    18  H    0.390809
    19  C   -0.272351
    20  H    0.201344
    21  H    0.185521
    22  H    0.171451
 Sum of Mulliken atomic charges =   0.00000

 Dipole moment (field-independent basis, Debye):
    X=              2.4870    Y=              0.0332    Z=             -0.4640  Tot=              2.5301
 Quadrupole moment (field-independent basis, Debye-Ang):
   XX=            -55.8357   YY=            -62.6237   ZZ=            -61.2720
   XY=             12.2248   XZ=             -9.8657   YZ=              2.5506

 Normal termination of Gaussian 09 at Fri Feb 10 07:46:39 2017.
