 Gaussian 09, Revision A.02,
 Gaussian 09:  EM64L-G09RevA.02 11-Jun-2009

 -------------------------------------------
 # HF/6-31G* Opt=(ModRedundant) geom=nocrowd
 -------------------------------------------

 ------------------
 Phi Psi fixed scan
 ------------------
 Symbolic Z-matrix:
 Charge =  0 Multiplicity = 1

 SCF Done:  E(RHF) =  -492.848277613     A.U. after   15 cycles
 SCF Done:  E(RHF) =  -492.854858269     A.U. after   14 cycles
 SCF Done:  E(RHF) =  -492.855663684     A.U. after   13 cycles
 SCF Done:  E(RHF) =  -492.855963021     A.U. after   14 cycles
 SCF Done:  E(RHF) =  -492.856528774     A.U. after   12 cycles
 SCF Done:  E(RHF) =  -492.856591655     A.U. after   11 cycles
 SCF Done:  E(RHF) =  -492.856637201     A.U. after   11 cycles
 SCF Done:  E(RHF) =  -492.856668974     A.U. after   11 cycles
 SCF Done:  E(RHF) =  -492.856681299     A.U. after   11 cycles
 SCF Done:  E(RHF) =  -492.856717549     A.U. after   11 cycles
 SCF Done:  E(RHF) =  -492.856967133     A.U. after   11 cycles
 SCF Done:  E(RHF) =  -492.856934815     A.U. after   10 cycles
 SCF Done:  E(RHF) =  -492.857008159     A.U. after   11 cycles
 SCF Done:  E(RHF) =  -492.856971271     A.U. after   12 cycles
 SCF Done:  E(RHF) =  -492.857030146     A.U. after   11 cycles
 SCF Done:  E(RHF) =  -492.857023182     A.U. after   11 cycles
 SCF Done:  E(RHF) =  -492.857026869     A.U. after    9 cycles
 SCF Done:  E(RHF) =  -492.857030543     A.U. after   10 cycles
 SCF Done:  E(RHF) =  -492.857030783     A.U. after    8 cycles
 SCF Done:  E(RHF) =  -492.857031077     A.U. after    9 cycles
 Optimization completed.
    -- Stationary point found.

                         Standard orientation:
 ---------------------------------------------------------------------
 Center     Atomic      Atomic             Coordinates (Angstroms)
 Number     Number       Type             X           Y           Z
 ---------------------------------------------------------------------
      1          1           0       -3.966837   -1.515420    0.099688
      2          6           0       -3.146726   -1.152136    0.701839
      3          1           0       -2.661041   -1.982233    1.201608
      4          1           0       -3.545622   -0.484429    1.459821
      5          6           0       -2.190969   -0.382307   -0.183442
      6          8           0       -2.532438    0.106864   -1.224438
      7          7           0       -0.915822   -0.292787    0.283042
      8          1           0       -0.754689   -0.523039    1.239918
      9          6           0        0.038549    0.634368   -0.305634
     10          1           0       -0.030897    0.518967   -1.377978
     11          6           0       -0.227620    2.091592    0.065915
     12          1           0       -0.156257    2.226191    1.137761
     13          1           0        0.499798    2.744228   -0.407296
     14          1           0       -1.214848    2.380387   -0.271493
     15          6           0        1.409290    0.188976    0.198731
     16          8           0        1.732505    0.372750    1.343506
     17          7           0        2.189648   -0.453836   -0.687455
     18          1           0        1.821414   -0.664873   -1.585260
     19          6           0        3.466892   -1.018858   -0.306478
     20          1           0        4.047693   -0.284969    0.233288
     21          1           0        3.345529   -1.891806    0.325167
     22          1           0        4.001949   -1.303358   -1.202458
 ---------------------------------------------------------------------

 The electronic state is 1-A.
 Alpha  occ. eigenvalues --  -20.52887 -20.52683 -15.59408 -15.58721 -11.35083
 Alpha  occ. eigenvalues --  -11.34928 -11.27899 -11.26308 -11.23416 -11.21514
 Alpha  occ. eigenvalues --   -1.40004  -1.39279  -1.24405  -1.23596  -1.05407
 Alpha  occ. eigenvalues --   -0.99318  -0.96603  -0.87976  -0.79863  -0.79041
 Alpha  occ. eigenvalues --   -0.73033  -0.67233  -0.65883  -0.64758  -0.62941
 Alpha  occ. eigenvalues --   -0.62348  -0.60235  -0.58706  -0.57539  -0.56739
 Alpha  occ. eigenvalues --   -0.55916  -0.53816  -0.52423  -0.51703  -0.50298
 Alpha  occ. eigenvalues --   -0.42698  -0.42217  -0.39712  -0.39005
 Alpha virt. eigenvalues --    0.19001   0.20739   0.21460   0.22846   0.26134
 Alpha virt. eigenvalues --    0.27780   0.28626   0.30471   0.30886   0.31898
 Alpha virt. eigenvalues --    0.32466   0.33001   0.33806   0.35569   0.37465

 Mulliken atomic charges:
              1
     1  H    0.214539
     2  C   -0.587551
     3  H    0.182951
     4  H    0.198301
     5  C    0.749275
     6  O   -0.604552
     7  N   -0.808807
     8  H    0.396891
     9  C   -0.032361
    10  H    0.211650
    11  C   -0.496637
    12  H    0.188702
    13  H    0.166318
    14  H    0.197311
    15  C    0.769025
    16  O   -0.625155
    17  N   -0.793949
    18  H    0.392921
    19  C   -0.274659
    20  H    0.203905
    21  H    0.180771
    22  H    0.171113
 Sum of Mulliken atomic charges =   0.00000

 Dipole moment (field-independent basis, Debye):
    X=              1.1881    Y=             -1.9511    Z=             -0.2701  Tot=              2.3003
 Quadrupole moment (field-independent basis, Debye-Ang):
   XX=            -59.9959   YY=            -58.0808   ZZ=            -63.9276
   XY=             -0.5628   XZ=            -15.5075   YZ=             -0.5016

 Normal termination of Gaussian 09 at Fri Feb 10 07:30:50 2017.
