 Gaussian 09, Revision A.02,
 Gaussian 09:  EM64L-G09RevA.02 11-Jun-2009

 -------------------------------------------
 # HF/6-31G* Opt=(ModRedundant) geom=nocrowd
 -------------------------------------------

 ------------------
 Phi Psi fixed scan
 ------------------
 Symbolic Z-matrix:
 Charge =  0 Multiplicity = 1

 SCF Done:  E(RHF) =  -492.845715323     A.U. after   15 cycles
 SCF Done:  E(RHF) =  -492.852882579     A.U. after   17 cycles
 SCF Done:  E(RHF) =  -492.853960559     A.U. after   13 cycles
 SCF Done:  E(RHF) =  -492.854576656     A.U. after   13 cycles
 SCF Done:  E(RHF) =  -492.855053235     A.U. after   13 cycles
 SCF Done:  E(RHF) =  -492.855092385     A.U. after   13 cycles
 SCF Done:  E(RHF) =  -492.855292268     A.U. after   12 cycles
 SCF Done:  E(RHF) =  -492.855366866     A.U. after   12 cycles
 SCF Done:  E(RHF) =  -492.855418974     A.U. after   12 cycles
 SCF Done:  E(RHF) =  -492.855453213     A.U. after   11 cycles
 SCF Done:  E(RHF) =  -492.855718673     A.U. after   11 cycles
 SCF Done:  E(RHF) =  -492.855609461     A.U. after   13 cycles
 SCF Done:  E(RHF) =  -492.855694383     A.U. after   12 cycles
 SCF Done:  E(RHF) =  -492.855736526     A.U. after   12 cycles
 SCF Done:  E(RHF) =  -492.855739438     A.U. after   13 cycles
 SCF Done:  E(RHF) =  -492.855761717     A.U. after   11 cycles
 SCF Done:  E(RHF) =  -492.855761025     A.U. after   11 cycles
 SCF Done:  E(RHF) =  -492.855762854     A.U. after   10 cycles
 SCF Done:  E(RHF) =  -492.855762947     A.U. after    8 cycles
 SCF Done:  E(RHF) =  -492.855762981     A.U. after    8 cycles
 Optimization completed.
    -- Stationary point found.

                         Standard orientation:
 ---------------------------------------------------------------------
 Center     Atomic      Atomic             Coordinates (Angstroms)
 Number     Number       Type             X           Y           Z
 ---------------------------------------------------------------------
      1          1           0        3.916695   -1.519164   -0.153828
      2          6           0        3.043425   -1.233761   -0.721875
      3          1           0        2.527318   -2.120231   -1.072910
      4          1           0        3.366298   -0.663379   -1.587948
      5          6           0        2.156305   -0.365653    0.143963
      6          8           0        2.568993    0.216999    1.105341
      7          7           0        0.846908   -0.307092   -0.243426
      8          1           0        0.648098   -0.626166   -1.167229
      9          6           0       -0.040375    0.726984    0.278414
     10          1           0        0.082692    0.726814    1.354371
     11          6           0        0.279317    2.117151   -0.262734
     12          1           0        0.165240    2.146471   -1.340829
     13          1           0       -0.393048    2.851196    0.160291
     14          1           0        1.296688    2.381431   -0.004111
     15          6           0       -1.493858    0.339781   -0.015451
     16          8           0       -2.294952    1.136084   -0.420949
     17          7           0       -1.811599   -0.945225    0.243954
     18          1           0       -1.116731   -1.533647    0.641114
     19          6           0       -3.172864   -1.424271    0.138999
     20          1           0       -3.587263   -1.160847   -0.823935
     21          1           0       -3.170062   -2.501575    0.238569
     22          1           0       -3.807112   -1.000738    0.909713
 ---------------------------------------------------------------------

 The electronic state is 1-A.
 Alpha  occ. eigenvalues --  -20.53494 -20.52765 -15.59541 -15.58707 -11.35764
 Alpha  occ. eigenvalues --  -11.34710 -11.28002 -11.26096 -11.24105 -11.21096
 Alpha  occ. eigenvalues --   -1.40366  -1.39545  -1.25314  -1.22825  -1.05476
 Alpha  occ. eigenvalues --   -0.99601  -0.96530  -0.87663  -0.79827  -0.79003
 Alpha  occ. eigenvalues --   -0.73386  -0.67700  -0.65642  -0.65391  -0.62942
 Alpha  occ. eigenvalues --   -0.62356  -0.60166  -0.59425  -0.57922  -0.56261
 Alpha  occ. eigenvalues --   -0.55679  -0.53455  -0.52562  -0.52084  -0.50175
 Alpha  occ. eigenvalues --   -0.43086  -0.42375  -0.40383  -0.38747
 Alpha virt. eigenvalues --    0.18414   0.19518   0.22075   0.23628   0.26681
 Alpha virt. eigenvalues --    0.27413   0.27794   0.29869   0.30174   0.31517
 Alpha virt. eigenvalues --    0.32985   0.33303   0.33650   0.34590   0.37382

 Mulliken atomic charges:
              1
     1  H    0.218486
     2  C   -0.589822
     3  H    0.180750
     4  H    0.198858
     5  C    0.746823
     6  O   -0.591352
     7  N   -0.818717
     8  H    0.382438
     9  C   -0.055055
    10  H    0.233382
    11  C   -0.476758
    12  H    0.161386
    13  H    0.192490
    14  H    0.190574
    15  C    0.747954
    16  O   -0.608752
    17  N   -0.788499
    18  H    0.397927
    19  C   -0.269626
    20  H    0.197997
    21  H    0.167713
    22  H    0.181802
 Sum of Mulliken atomic charges =   0.00000

 Dipole moment (field-independent basis, Debye):
    X=              0.3615    Y=             -4.0246    Z=             -1.7058  Tot=              4.3861
 Quadrupole moment (field-independent basis, Debye-Ang):
   XX=            -67.5864   YY=            -58.5600   ZZ=            -60.8776
   XY=              4.0957   XZ=            -10.5862   YZ=              0.8351

 Normal termination of Gaussian 09 at Fri Feb 10 07:17:14 2017.
