 Gaussian 09, Revision A.02,
 Gaussian 09:  EM64L-G09RevA.02 11-Jun-2009

 -------------------------------------------
 # HF/6-31G* Opt=(ModRedundant) geom=nocrowd
 -------------------------------------------

 ------------------
 Phi Psi fixed scan
 ------------------
 Symbolic Z-matrix:
 Charge =  0 Multiplicity = 1

 SCF Done:  E(RHF) =  -492.845471230     A.U. after   15 cycles
 SCF Done:  E(RHF) =  -492.852599572     A.U. after   14 cycles
 SCF Done:  E(RHF) =  -492.853285403     A.U. after   13 cycles
 SCF Done:  E(RHF) =  -492.853665416     A.U. after   13 cycles
 SCF Done:  E(RHF) =  -492.854064680     A.U. after   13 cycles
 SCF Done:  E(RHF) =  -492.854255368     A.U. after   13 cycles
 SCF Done:  E(RHF) =  -492.854523273     A.U. after   13 cycles
 SCF Done:  E(RHF) =  -492.854582258     A.U. after   12 cycles
 SCF Done:  E(RHF) =  -492.854605380     A.U. after   11 cycles
 SCF Done:  E(RHF) =  -492.854662712     A.U. after   12 cycles
 SCF Done:  E(RHF) =  -492.854887161     A.U. after   12 cycles
 SCF Done:  E(RHF) =  -492.854930192     A.U. after   12 cycles
 SCF Done:  E(RHF) =  -492.854955633     A.U. after   10 cycles
 SCF Done:  E(RHF) =  -492.854994811     A.U. after   12 cycles
 SCF Done:  E(RHF) =  -492.855009555     A.U. after   12 cycles
 SCF Done:  E(RHF) =  -492.855022378     A.U. after   10 cycles
 SCF Done:  E(RHF) =  -492.855027865     A.U. after   10 cycles
 SCF Done:  E(RHF) =  -492.855028351     A.U. after    9 cycles
 SCF Done:  E(RHF) =  -492.855028480     A.U. after    9 cycles
 SCF Done:  E(RHF) =  -492.855028485     A.U. after    7 cycles
 Optimization completed.
    -- Stationary point found.

                         Standard orientation:
 ---------------------------------------------------------------------
 Center     Atomic      Atomic             Coordinates (Angstroms)
 Number     Number       Type             X           Y           Z
 ---------------------------------------------------------------------
      1          1           0       -3.904794   -1.536435    0.299451
      2          6           0       -3.051656   -1.157633    0.843000
      3          1           0       -2.534709   -1.975080    1.332619
      4          1           0       -3.405767   -0.472670    1.607925
      5          6           0       -2.150160   -0.410877   -0.115908
      6          8           0       -2.540217    0.016087   -1.165076
      7          7           0       -0.855074   -0.272674    0.295907
      8          1           0       -0.681299   -0.437086    1.264633
      9          6           0        0.035229    0.686700   -0.350872
     10          1           0       -0.066356    0.533314   -1.416286
     11          6           0       -0.294681    2.135724   -0.011338
     12          1           0       -0.198851    2.311665    1.052654
     13          1           0        0.385656    2.808601   -0.520739
     14          1           0       -1.305205    2.362225   -0.327143
     15          6           0        1.462022    0.324895    0.074740
     16          8           0        2.066660    0.962202    0.893134
     17          7           0        1.973346   -0.768258   -0.528578
     18          1           0        1.362607   -1.326200   -1.079963
     19          6           0        3.255834   -1.318015   -0.146200
     20          1           0        3.985063   -0.524286   -0.079632
     21          1           0        3.212757   -1.824519    0.812772
     22          1           0        3.571919   -2.024070   -0.902591
 ---------------------------------------------------------------------

 The electronic state is 1-A.
 Alpha  occ. eigenvalues --  -20.53332 -20.53016 -15.59379 -15.58802 -11.35610
 Alpha  occ. eigenvalues --  -11.34777 -11.27915 -11.26072 -11.23919 -11.21184
 Alpha  occ. eigenvalues --   -1.40257  -1.39637  -1.24935  -1.23120  -1.05452
 Alpha  occ. eigenvalues --   -0.99544  -0.96495  -0.87702  -0.79594  -0.79064
 Alpha  occ. eigenvalues --   -0.73133  -0.67495  -0.65828  -0.65351  -0.62887
 Alpha  occ. eigenvalues --   -0.62247  -0.60306  -0.59150  -0.57772  -0.56581
 Alpha  occ. eigenvalues --   -0.55559  -0.53406  -0.52622  -0.51965  -0.50402
 Alpha  occ. eigenvalues --   -0.42944  -0.42556  -0.40214  -0.38810
 Alpha virt. eigenvalues --    0.19250   0.19323   0.21854   0.22871   0.26303
 Alpha virt. eigenvalues --    0.27352   0.27800   0.30086   0.30987   0.31551
 Alpha virt. eigenvalues --    0.32735   0.33103   0.33660   0.34873   0.37364

 Mulliken atomic charges:
              1
     1  H    0.217388
     2  C   -0.589824
     3  H    0.182975
     4  H    0.198578
     5  C    0.745808
     6  O   -0.594689
     7  N   -0.808440
     8  H    0.386481
     9  C   -0.053562
    10  H    0.222049
    11  C   -0.480569
    12  H    0.178366
    13  H    0.175667
    14  H    0.190591
    15  C    0.750652
    16  O   -0.605271
    17  N   -0.784151
    18  H    0.392758
    19  C   -0.274859
    20  H    0.206432
    21  H    0.172359
    22  H    0.171260
 Sum of Mulliken atomic charges =   0.00000

 Dipole moment (field-independent basis, Debye):
    X=              0.0944    Y=             -3.1809    Z=              1.0255  Tot=              3.3435
 Quadrupole moment (field-independent basis, Debye-Ang):
   XX=            -64.7589   YY=            -58.2068   ZZ=            -62.3493
   XY=             -4.0502   XZ=            -13.0337   YZ=             -1.7487

 Normal termination of Gaussian 09 at Fri Feb 10 07:24:05 2017.
