 Gaussian 09, Revision A.02,
 Gaussian 09:  EM64L-G09RevA.02 11-Jun-2009

 -------------------------------------------
 # HF/6-31G* Opt=(ModRedundant) geom=nocrowd
 -------------------------------------------

 ------------------
 Phi Psi fixed scan
 ------------------
 Symbolic Z-matrix:
 Charge =  0 Multiplicity = 1

 SCF Done:  E(RHF) =  -492.846359083     A.U. after   15 cycles
 SCF Done:  E(RHF) =  -492.853267839     A.U. after   14 cycles
 SCF Done:  E(RHF) =  -492.854047498     A.U. after   13 cycles
 SCF Done:  E(RHF) =  -492.854431951     A.U. after   13 cycles
 SCF Done:  E(RHF) =  -492.854875159     A.U. after   13 cycles
 SCF Done:  E(RHF) =  -492.855117595     A.U. after   12 cycles
 SCF Done:  E(RHF) =  -492.855214259     A.U. after   13 cycles
 SCF Done:  E(RHF) =  -492.855285553     A.U. after   11 cycles
 SCF Done:  E(RHF) =  -492.855305369     A.U. after   11 cycles
 SCF Done:  E(RHF) =  -492.855339596     A.U. after   11 cycles
 SCF Done:  E(RHF) =  -492.855525525     A.U. after   12 cycles
 SCF Done:  E(RHF) =  -492.855577949     A.U. after   12 cycles
 SCF Done:  E(RHF) =  -492.855619316     A.U. after   11 cycles
 SCF Done:  E(RHF) =  -492.855641979     A.U. after   11 cycles
 SCF Done:  E(RHF) =  -492.855674020     A.U. after   11 cycles
 SCF Done:  E(RHF) =  -492.855701729     A.U. after   11 cycles
 SCF Done:  E(RHF) =  -492.855704705     A.U. after   11 cycles
 SCF Done:  E(RHF) =  -492.855705292     A.U. after   10 cycles
 SCF Done:  E(RHF) =  -492.855705563     A.U. after    9 cycles
 SCF Done:  E(RHF) =  -492.855705604     A.U. after    8 cycles
 Optimization completed.
    -- Stationary point found.

                         Standard orientation:
 ---------------------------------------------------------------------
 Center     Atomic      Atomic             Coordinates (Angstroms)
 Number     Number       Type             X           Y           Z
 ---------------------------------------------------------------------
      1          1           0       -3.922704   -1.535652    0.273550
      2          6           0       -3.085603   -1.135785    0.826972
      3          1           0       -2.578692   -1.934571    1.356057
      4          1           0       -3.462634   -0.428201    1.559647
      5          6           0       -2.162373   -0.415090   -0.131129
      6          8           0       -2.530610   -0.012103   -1.198412
      7          7           0       -0.877839   -0.268977    0.303320
      8          1           0       -0.713546   -0.412128    1.276938
      9          6           0        0.035140    0.656867   -0.356399
     10          1           0       -0.049768    0.474214   -1.418271
     11          6           0       -0.276576    2.121472   -0.066226
     12          1           0       -0.190033    2.325789    0.993152
     13          1           0        0.419216    2.768537   -0.590336
     14          1           0       -1.279300    2.354639   -0.401332
     15          6           0        1.435748    0.282237    0.131198
     16          8           0        1.895890    0.749979    1.138472
     17          7           0        2.082606   -0.635675   -0.612578
     18          1           0        1.589918   -1.074784   -1.355401
     19          6           0        3.351456   -1.193954   -0.197169
     20          1           0        4.017408   -0.399170    0.105009
     21          1           0        3.238047   -1.880939    0.634905
     22          1           0        3.789721   -1.722642   -1.033068
 ---------------------------------------------------------------------

 The electronic state is 1-A.
 Alpha  occ. eigenvalues --  -20.53050 -20.52950 -15.59095 -15.59078 -11.35373
 Alpha  occ. eigenvalues --  -11.34844 -11.27902 -11.26169 -11.23683 -11.21316
 Alpha  occ. eigenvalues --   -1.40100  -1.39518  -1.24653  -1.23379  -1.05422
 Alpha  occ. eigenvalues --   -0.99438  -0.96548  -0.87831  -0.79566  -0.79193
 Alpha  occ. eigenvalues --   -0.73063  -0.67349  -0.65871  -0.65063  -0.62862
 Alpha  occ. eigenvalues --   -0.62339  -0.60274  -0.58923  -0.57648  -0.56728
 Alpha  occ. eigenvalues --   -0.55701  -0.53619  -0.52519  -0.51764  -0.50401
 Alpha  occ. eigenvalues --   -0.42744  -0.42484  -0.39917  -0.38980
 Alpha virt. eigenvalues --    0.19167   0.20133   0.21761   0.22502   0.26214
 Alpha virt. eigenvalues --    0.27593   0.28129   0.30282   0.30957   0.31788
 Alpha virt. eigenvalues --    0.32604   0.32988   0.33750   0.35307   0.37408

 Mulliken atomic charges:
              1
     1  H    0.216059
     2  C   -0.589007
     3  H    0.183470
     4  H    0.198358
     5  C    0.747364
     6  O   -0.599142
     7  N   -0.808007
     8  H    0.391302
     9  C   -0.042663
    10  H    0.215301
    11  C   -0.489543
    12  H    0.186052
    13  H    0.169661
    14  H    0.193243
    15  C    0.760735
    16  O   -0.614054
    17  N   -0.789527
    18  H    0.392496
    19  C   -0.275134
    20  H    0.205878
    21  H    0.175907
    22  H    0.171250
 Sum of Mulliken atomic charges =   0.00000

 Dipole moment (field-independent basis, Debye):
    X=              0.6068    Y=             -2.6131    Z=              0.3733  Tot=              2.7084
 Quadrupole moment (field-independent basis, Debye-Ang):
   XX=            -62.4448   YY=            -58.1161   ZZ=            -63.1216
   XY=             -3.1635   XZ=            -14.4097   YZ=             -1.4842

 Normal termination of Gaussian 09 at Fri Feb 10 07:26:52 2017.
