 Gaussian 09, Revision A.02,
 Gaussian 09:  EM64L-G09RevA.02 11-Jun-2009

 -------------------------------------------
 # HF/6-31G* Opt=(ModRedundant) geom=nocrowd
 -------------------------------------------

 ------------------
 Phi Psi fixed scan
 ------------------
 Symbolic Z-matrix:
 Charge =  0 Multiplicity = 1

 SCF Done:  E(RHF) =  -492.845595384     A.U. after   15 cycles
 SCF Done:  E(RHF) =  -492.852770741     A.U. after   14 cycles
 SCF Done:  E(RHF) =  -492.853515639     A.U. after   13 cycles
 SCF Done:  E(RHF) =  -492.853939804     A.U. after   13 cycles
 SCF Done:  E(RHF) =  -492.854325925     A.U. after   13 cycles
 SCF Done:  E(RHF) =  -492.854432493     A.U. after   13 cycles
 SCF Done:  E(RHF) =  -492.854722063     A.U. after   13 cycles
 SCF Done:  E(RHF) =  -492.854782859     A.U. after   12 cycles
 SCF Done:  E(RHF) =  -492.854813612     A.U. after   11 cycles
 SCF Done:  E(RHF) =  -492.854847937     A.U. after   12 cycles
 SCF Done:  E(RHF) =  -492.855020347     A.U. after   10 cycles
 SCF Done:  E(RHF) =  -492.855032685     A.U. after   11 cycles
 SCF Done:  E(RHF) =  -492.855141660     A.U. after   12 cycles
 SCF Done:  E(RHF) =  -492.855157944     A.U. after   11 cycles
 SCF Done:  E(RHF) =  -492.855175379     A.U. after   11 cycles
 SCF Done:  E(RHF) =  -492.855175272     A.U. after   11 cycles
 SCF Done:  E(RHF) =  -492.855179886     A.U. after   11 cycles
 SCF Done:  E(RHF) =  -492.855180565     A.U. after    9 cycles
 SCF Done:  E(RHF) =  -492.855180756     A.U. after    9 cycles
 SCF Done:  E(RHF) =  -492.855180812     A.U. after    8 cycles
 Optimization completed.
    -- Stationary point found.

                         Standard orientation:
 ---------------------------------------------------------------------
 Center     Atomic      Atomic             Coordinates (Angstroms)
 Number     Number       Type             X           Y           Z
 ---------------------------------------------------------------------
      1          1           0        3.909006   -1.524602   -0.246715
      2          6           0        3.040599   -1.194232   -0.797554
      3          1           0        2.523346   -2.049924   -1.216598
      4          1           0        3.370935   -0.562350   -1.616899
      5          6           0        2.150235   -0.390157    0.124814
      6          8           0        2.555116    0.109657    1.134798
      7          7           0        0.845503   -0.289717   -0.271895
      8          1           0        0.661208   -0.520989   -1.224863
      9          6           0       -0.037363    0.712447    0.318778
     10          1           0        0.079154    0.632540    1.391389
     11          6           0        0.291504    2.133976   -0.123323
     12          1           0        0.184226    2.238466   -1.196489
     13          1           0       -0.381259    2.841290    0.345012
     14          1           0        1.307127    2.376849    0.162443
     15          6           0       -1.482211    0.339381   -0.034150
     16          8           0       -2.206176    1.078506   -0.642287
     17          7           0       -1.879703   -0.869198    0.414910
     18          1           0       -1.193767   -1.474529    0.803184
     19          6           0       -3.196006   -1.394316    0.124926
     20          1           0       -3.944489   -0.644241    0.335320
     21          1           0       -3.294773   -1.692784   -0.913640
     22          1           0       -3.373383   -2.255227    0.755711
 ---------------------------------------------------------------------

 The electronic state is 1-A.
 Alpha  occ. eigenvalues --  -20.53514 -20.52911 -15.59557 -15.58643 -11.35762
 Alpha  occ. eigenvalues --  -11.34699 -11.27934 -11.26054 -11.24082 -11.21113
 Alpha  occ. eigenvalues --   -1.40383  -1.39600  -1.25170  -1.22916  -1.05470
 Alpha  occ. eigenvalues --   -0.99611  -0.96494  -0.87636  -0.79746  -0.78950
 Alpha  occ. eigenvalues --   -0.73237  -0.67630  -0.65762  -0.65476  -0.62901
 Alpha  occ. eigenvalues --   -0.62226  -0.60289  -0.59332  -0.57888  -0.56403
 Alpha  occ. eigenvalues --   -0.55569  -0.53244  -0.52661  -0.52117  -0.50343
 Alpha  occ. eigenvalues --   -0.43080  -0.42526  -0.40332  -0.38721
 Alpha virt. eigenvalues --    0.18551   0.19436   0.21922   0.23474   0.26435
 Alpha virt. eigenvalues --    0.27289   0.27655   0.29938   0.30751   0.31506
 Alpha virt. eigenvalues --    0.32901   0.33118   0.33716   0.34579   0.37345

 Mulliken atomic charges:
              1
     1  H    0.218398
     2  C   -0.590181
     3  H    0.182017
     4  H    0.198663
     5  C    0.745526
     6  O   -0.591213
     7  N   -0.813036
     8  H    0.382815
     9  C   -0.056885
    10  H    0.229579
    11  C   -0.475825
    12  H    0.168718
    13  H    0.184230
    14  H    0.189484
    15  C    0.745677
    16  O   -0.605199
    17  N   -0.784240
    18  H    0.395929
    19  C   -0.271813
    20  H    0.203930
    21  H    0.173274
    22  H    0.170153
 Sum of Mulliken atomic charges =   0.00000

 Dipole moment (field-independent basis, Debye):
    X=              0.2544    Y=             -3.6640    Z=             -1.5337  Tot=              3.9802
 Quadrupole moment (field-independent basis, Debye-Ang):
   XX=            -66.4897   YY=            -58.3078   ZZ=            -61.6545
   XY=              4.2003   XZ=            -11.7269   YZ=              1.5698

 Normal termination of Gaussian 09 at Fri Feb 10 07:21:04 2017.
