 Gaussian 09, Revision A.02,
 Gaussian 09:  EM64L-G09RevA.02 11-Jun-2009

 -------------------------------------------
 # HF/6-31G* Opt=(ModRedundant) geom=nocrowd
 -------------------------------------------

 ------------------
 Phi Psi fixed scan
 ------------------
 Symbolic Z-matrix:
 Charge =  0 Multiplicity = 1

 SCF Done:  E(RHF) =  -492.852807741     A.U. after   15 cycles
 SCF Done:  E(RHF) =  -492.858557546     A.U. after   13 cycles
 SCF Done:  E(RHF) =  -492.859071935     A.U. after   13 cycles
 SCF Done:  E(RHF) =  -492.859174811     A.U. after   13 cycles
 SCF Done:  E(RHF) =  -492.859396381     A.U. after   11 cycles
 SCF Done:  E(RHF) =  -492.859432734     A.U. after   11 cycles
 SCF Done:  E(RHF) =  -492.859450364     A.U. after   11 cycles
 SCF Done:  E(RHF) =  -492.859473781     A.U. after   11 cycles
 SCF Done:  E(RHF) =  -492.859477721     A.U. after   10 cycles
 SCF Done:  E(RHF) =  -492.859493702     A.U. after   11 cycles
 SCF Done:  E(RHF) =  -492.859743690     A.U. after   11 cycles
 SCF Done:  E(RHF) =  -492.859764705     A.U. after   12 cycles
 SCF Done:  E(RHF) =  -492.859777831     A.U. after   11 cycles
 SCF Done:  E(RHF) =  -492.859789173     A.U. after   11 cycles
 SCF Done:  E(RHF) =  -492.859794676     A.U. after   12 cycles
 SCF Done:  E(RHF) =  -492.859797888     A.U. after   10 cycles
 SCF Done:  E(RHF) =  -492.859798492     A.U. after   11 cycles
 SCF Done:  E(RHF) =  -492.859798842     A.U. after   10 cycles
 SCF Done:  E(RHF) =  -492.859798952     A.U. after   10 cycles
 SCF Done:  E(RHF) =  -492.859798967     A.U. after    8 cycles
 Optimization completed.
    -- Stationary point found.

                         Standard orientation:
 ---------------------------------------------------------------------
 Center     Atomic      Atomic             Coordinates (Angstroms)
 Number     Number       Type             X           Y           Z
 ---------------------------------------------------------------------
      1          1           0       -4.055180   -1.248693   -0.663503
      2          6           0       -3.285770   -1.200231    0.094004
      3          1           0       -2.847850   -2.181194    0.235470
      4          1           0       -3.747361   -0.892272    1.027174
      5          6           0       -2.264388   -0.160186   -0.312506
      6          8           0       -2.561720    0.804968   -0.964874
      7          7           0       -1.000767   -0.389853    0.112894
      8          1           0       -0.820164   -1.120244    0.765686
      9          6           0        0.049325    0.593963   -0.039984
     10          1           0       -0.004829    0.976176   -1.050353
     11          6           0       -0.074435    1.760257    0.946567
     12          1           0       -0.024211    1.395098    1.965774
     13          1           0        0.727897    2.476891    0.797908
     14          1           0       -1.018510    2.266281    0.793457
     15          6           0        1.367066   -0.136026    0.192056
     16          8           0        1.495064   -0.890804    1.122132
     17          7           0        2.355345    0.123709   -0.679736
     18          1           0        2.162410    0.686394   -1.474742
     19          6           0        3.657411   -0.499476   -0.561481
     20          1           0        3.610126   -1.559558   -0.781124
     21          1           0        4.333188   -0.024056   -1.259348
     22          1           0        4.040429   -0.374932    0.441498
 ---------------------------------------------------------------------

 The electronic state is 1-A.
 Alpha  occ. eigenvalues --  -20.53119 -20.51901 -15.59724 -15.58113 -11.35198
 Alpha  occ. eigenvalues --  -11.34555 -11.27984 -11.26523 -11.22968 -11.22016
 Alpha  occ. eigenvalues --   -1.40172  -1.38670  -1.24375  -1.23562  -1.05512
 Alpha  occ. eigenvalues --   -0.99153  -0.96564  -0.88283  -0.80412  -0.78683
 Alpha  occ. eigenvalues --   -0.73054  -0.67261  -0.65873  -0.64351  -0.63335
 Alpha  occ. eigenvalues --   -0.62109  -0.60215  -0.58539  -0.57229  -0.56579
 Alpha  occ. eigenvalues --   -0.56225  -0.54240  -0.52405  -0.52120  -0.49809
 Alpha  occ. eigenvalues --   -0.42845  -0.41578  -0.40005  -0.38459
 Alpha virt. eigenvalues --    0.18788   0.21173   0.21312   0.23719   0.26072
 Alpha virt. eigenvalues --    0.27831   0.29325   0.30475   0.31103   0.31434
 Alpha virt. eigenvalues --    0.32320   0.33328   0.33896   0.35527   0.37235

 Mulliken atomic charges:
              1
     1  H    0.211151
     2  C   -0.582354
     3  H    0.178841
     4  H    0.199471
     5  C    0.754363
     6  O   -0.616762
     7  N   -0.816023
     8  H    0.409634
     9  C   -0.023765
    10  H    0.208665
    11  C   -0.497559
    12  H    0.184011
    13  H    0.162968
    14  H    0.207812
    15  C    0.774786
    16  O   -0.633976
    17  N   -0.798264
    18  H    0.392052
    19  C   -0.273481
    20  H    0.185962
    21  H    0.171347
    22  H    0.201120
 Sum of Mulliken atomic charges =   0.00000

 Dipole moment (field-independent basis, Debye):
    X=              2.1415    Y=             -0.3857    Z=             -0.7756  Tot=              2.3101
 Quadrupole moment (field-independent basis, Debye-Ang):
   XX=            -56.6210   YY=            -61.0858   ZZ=            -62.3197
   XY=             10.0194   XZ=            -12.3518   YZ=              2.7582

 Normal termination of Gaussian 09 at Fri Feb 10 07:41:30 2017.
