 Gaussian 09, Revision A.02,
 Gaussian 09:  EM64L-G09RevA.02 11-Jun-2009

 -------------------
 #SP MP2/aug-cc-pVDZ
 -------------------

 -------------------------------
 Single Point calculation at MP2
 -------------------------------
 Symbolic Z-matrix:
 Charge =  0 Multiplicity = 1

                         Standard orientation:
 ---------------------------------------------------------------------
 Center     Atomic      Atomic             Coordinates (Angstroms)
 Number     Number       Type             X           Y           Z
 ---------------------------------------------------------------------
      1          1           0        3.870204   -1.001583   -1.240386
      2          6           0        3.116606   -1.370386   -0.539086
      3          1           0        3.648407   -1.796184    0.318414
      4          1           0        2.534609   -2.161288   -1.022486
      5          6           0        2.277101   -0.193189   -0.061486
      6          8           0        2.786497    0.838713    0.357914
      7          7           0        0.919402   -0.370895   -0.141486
      8          1           0        0.578705   -1.310696   -0.291986
      9          6           0       -0.021802    0.594901    0.445814
     10          1           0        0.258797    0.769202    1.490614
     11          6           0        0.004292    1.936301   -0.299786
     12          1           0       -0.155107    1.806401   -1.377586
     13          1           0       -0.762211    2.611998    0.095714
     14          1           0        0.984490    2.397305   -0.169186
     15          6           0       -1.398200   -0.099404    0.504814
     16          8           0       -1.703797   -0.800206    1.462914
     17          7           0       -2.194700    0.056292   -0.591586
     18          1           0       -1.896603    0.688994   -1.318886
     19          6           0       -3.517098   -0.538113   -0.686686
     20          1           0       -3.651495   -1.176014    0.187714
     21          1           0       -4.300701    0.229284   -0.693286
     22          1           0       -3.608995   -1.143913   -1.595286
 ---------------------------------------------------------------------

 SCF Done:  E(RHF) =  -492.918166971     A.U. after   14 cycles
 E2 =    -0.1602148254D+01 EUMP2 =    -0.49452031522533D+03

 The electronic state is 1-A.
 Alpha  occ. eigenvalues --  -20.53883 -20.53341 -15.60510 -15.60276 -11.36796
 Alpha  occ. eigenvalues --  -11.36635 -11.29546 -11.27531 -11.24977 -11.23647
 Alpha  occ. eigenvalues --   -1.39400  -1.38608  -1.24761  -1.23495  -1.05811
 Alpha  occ. eigenvalues --   -0.99486  -0.96065  -0.89170  -0.79814  -0.78906
 Alpha  occ. eigenvalues --   -0.73180  -0.67919  -0.66821  -0.64906  -0.62653
 Alpha  occ. eigenvalues --   -0.62188  -0.59456  -0.58770  -0.56923  -0.56586
 Alpha  occ. eigenvalues --   -0.55788  -0.54667  -0.53787  -0.52285  -0.49793
 Alpha  occ. eigenvalues --   -0.43757  -0.41877  -0.40839  -0.39435
 Alpha virt. eigenvalues --    0.02560   0.03603   0.04355   0.04717   0.05605
 Alpha virt. eigenvalues --    0.06010   0.06148   0.06817   0.07367   0.07988
 Alpha virt. eigenvalues --    0.08558   0.09729   0.11642   0.11735   0.12782

 Mulliken atomic charges:
              1
     1  H    0.038353
     2  C    0.395763
     3  H    0.057020
     4  H   -0.150868
     5  C    0.534305
     6  O   -0.863921
     7  N   -0.361930
     8  H   -0.087133
     9  C    0.321750
    10  H   -0.130915
    11  C    0.653624
    12  H   -0.015751
    13  H   -0.063642
    14  H   -0.093144
    15  C    0.938150
    16  O   -0.880119
    17  N   -0.587178
    18  H   -0.089361
    19  C    0.735879
    20  H   -0.152130
    21  H   -0.091978
    22  H   -0.106775
 Sum of Mulliken atomic charges =   0.00000

 Dipole moment (field-independent basis, Debye):
    X=             -1.8969    Y=             -0.9617    Z=             -4.1996  Tot=              4.7074
 Quadrupole moment (field-independent basis, Debye-Ang):
   XX=            -63.1307   YY=            -59.8167   ZZ=            -64.5282
   XY=            -11.2365   XZ=              3.8929   YZ=              2.3972

 Normal termination of Gaussian 09 at Mon Feb 13 03:15:20 2017.
