 Gaussian 09, Revision A.02,
 Gaussian 09:  EM64L-G09RevA.02 11-Jun-2009

 -------------------
 #SP MP2/aug-cc-pVDZ
 -------------------

 -------------------------------
 Single Point calculation at MP2
 -------------------------------
 Symbolic Z-matrix:
 Charge =  0 Multiplicity = 1

                         Standard orientation:
 ---------------------------------------------------------------------
 Center     Atomic      Atomic             Coordinates (Angstroms)
 Number     Number       Type             X           Y           Z
 ---------------------------------------------------------------------
      1          1           0       -4.044704   -0.729300    1.066206
      2          6           0       -3.317704   -1.156202    0.368706
      3          1           0       -3.871105   -1.487201   -0.516094
      4          1           0       -2.840506   -2.022302    0.837006
      5          6           0       -2.337503   -0.067203   -0.044894
      6          8           0       -2.716201    0.992298   -0.535494
      7          7           0       -1.020403   -0.350805    0.187206
      8          1           0       -0.737605   -1.313705    0.335106
      9          6           0        0.051498    0.502894   -0.309794
     10          1           0       -0.107602    0.693694   -1.383094
     11          6           0        0.078000    1.856393    0.416906
     12          1           0        0.335300    1.733793    1.474306
     13          1           0        0.788501    2.550592   -0.049594
     14          1           0       -0.912299    2.308095    0.341406
     15          6           0        1.341897   -0.337108   -0.182894
     16          8           0        1.294395   -1.564008   -0.257494
     17          7           0        2.494698    0.347390    0.031006
     18          1           0        2.456599    1.353190    0.094106
     19          6           0        3.790397   -0.305612    0.117706
     20          1           0        3.618495   -1.382012    0.093406
     21          1           0        4.434897   -0.025713   -0.724194
     22          1           0        4.294897   -0.040513    1.053406
 ---------------------------------------------------------------------

 SCF Done:  E(RHF) =  -492.924652822     A.U. after   14 cycles
 E2 =    -0.1601730536D+01 EUMP2 =    -0.49452638335775D+03

 The electronic state is 1-A.
 Alpha  occ. eigenvalues --  -20.54197 -20.52663 -15.60801 -15.58923 -11.37261
 Alpha  occ. eigenvalues --  -11.35884 -11.29709 -11.27695 -11.24217 -11.23709
 Alpha  occ. eigenvalues --   -1.39833  -1.37894  -1.24587  -1.23439  -1.05610
 Alpha  occ. eigenvalues --   -0.99039  -0.96067  -0.89194  -0.80595  -0.77696
 Alpha  occ. eigenvalues --   -0.73077  -0.67563  -0.66282  -0.65672  -0.62749
 Alpha  occ. eigenvalues --   -0.61721  -0.59387  -0.58770  -0.56492  -0.56316
 Alpha  occ. eigenvalues --   -0.55378  -0.54560  -0.53617  -0.52591  -0.49350
 Alpha  occ. eigenvalues --   -0.43562  -0.41968  -0.40546  -0.39309
 Alpha virt. eigenvalues --    0.02805   0.03921   0.04361   0.04474   0.05920
 Alpha virt. eigenvalues --    0.06002   0.06327   0.06701   0.07333   0.07928
 Alpha virt. eigenvalues --    0.09313   0.10237   0.11336   0.11927   0.12981

 Mulliken atomic charges:
              1
     1  H    0.046468
     2  C    0.368821
     3  H    0.052192
     4  H   -0.153481
     5  C    0.486608
     6  O   -0.867167
     7  N   -0.310265
     8  H   -0.054911
     9  C    0.026373
    10  H   -0.042366
    11  C    0.687159
    12  H   -0.032443
    13  H   -0.011877
    14  H   -0.137728
    15  C    1.133136
    16  O   -0.908870
    17  N   -0.542921
    18  H   -0.116456
    19  C    0.724170
    20  H   -0.153456
    21  H   -0.085943
    22  H   -0.107042
 Sum of Mulliken atomic charges =   0.00000

 Dipole moment (field-independent basis, Debye):
    X=              3.0804    Y=              0.5751    Z=              1.3994  Tot=              3.4319
 Quadrupole moment (field-independent basis, Debye-Ang):
   XX=            -56.7996   YY=            -64.4411   ZZ=            -61.8371
   XY=             14.2068   XZ=             -3.1130   YZ=              0.0133

 Normal termination of Gaussian 09 at Mon Feb 13 06:52:44 2017.
