 Gaussian 09, Revision A.02,
 Gaussian 09:  EM64L-G09RevA.02 11-Jun-2009

 -------------------
 #SP MP2/aug-cc-pVDZ
 -------------------

 -------------------------------
 Single Point calculation at MP2
 -------------------------------
 Symbolic Z-matrix:
 Charge =  0 Multiplicity = 1

                         Standard orientation:
 ---------------------------------------------------------------------
 Center     Atomic      Atomic             Coordinates (Angstroms)
 Number     Number       Type             X           Y           Z
 ---------------------------------------------------------------------
      1          1           0       -3.897299   -1.452892    0.521613
      2          6           0       -3.016299   -1.548591   -0.117787
      3          1           0       -3.370199   -1.721992   -1.140387
      4          1           0       -2.429999   -2.415391    0.203513
      5          6           0       -2.239100   -0.239791   -0.074487
      6          8           0       -2.794200    0.847509   -0.132987
      7          7           0       -0.870800   -0.376290    0.044913
      8          1           0       -0.500699   -1.275990   -0.237987
      9          6           0        0.020500    0.769810   -0.194187
     10          1           0       -0.255301    1.267610   -1.130687
     11          6           0       -0.055501    1.801310    0.945713
     12          1           0        0.217999    1.344210    1.903713
     13          1           0        0.635299    2.624411    0.738013
     14          1           0       -1.071401    2.192410    1.017313
     15          6           0        1.473500    0.310611   -0.369887
     16          8           0        2.252599    0.933811   -1.075987
     17          7           0        1.827100   -0.829889    0.309913
     18          1           0        1.221501   -1.122889    1.066313
     19          6           0        3.213501   -1.273988    0.346413
     20          1           0        3.668101   -1.048888   -0.618987
     21          1           0        3.792700   -0.761788    1.125913
     22          1           0        3.248401   -2.352288    0.525013
 ---------------------------------------------------------------------

 SCF Done:  E(RHF) =  -492.920018390     A.U. after   14 cycles
 E2 =    -0.1601734750D+01 EUMP2 =    -0.49452175313965D+03

 The electronic state is 1-A.
 Alpha  occ. eigenvalues --  -20.54130 -20.54061 -15.60586 -15.60563 -11.37169
 Alpha  occ. eigenvalues --  -11.36789 -11.29391 -11.27615 -11.25511 -11.23114
 Alpha  occ. eigenvalues --   -1.39695  -1.39200  -1.25622  -1.23006  -1.05837
 Alpha  occ. eigenvalues --   -0.99722  -0.96360  -0.88223  -0.80144  -0.78345
 Alpha  occ. eigenvalues --   -0.73664  -0.68306  -0.67197  -0.63833  -0.63076
 Alpha  occ. eigenvalues --   -0.62528  -0.60136  -0.59743  -0.57218  -0.56626
 Alpha  occ. eigenvalues --   -0.55687  -0.54549  -0.52856  -0.51792  -0.49784
 Alpha  occ. eigenvalues --   -0.44356  -0.42365  -0.41002  -0.40288
 Alpha virt. eigenvalues --    0.02213   0.03735   0.04267   0.04678   0.05560
 Alpha virt. eigenvalues --    0.05992   0.06525   0.06757   0.07104   0.08220
 Alpha virt. eigenvalues --    0.08452   0.08894   0.10883   0.11870   0.12622

 Mulliken atomic charges:
              1
     1  H    0.019225
     2  C    0.398523
     3  H    0.062527
     4  H   -0.129331
     5  C    0.468862
     6  O   -0.841289
     7  N   -0.216661
     8  H   -0.048733
     9  C   -0.075100
    10  H   -0.157709
    11  C    0.691689
    12  H   -0.070091
    13  H   -0.029747
    14  H   -0.044323
    15  C    1.081528
    16  O   -0.859206
    17  N   -0.652291
    18  H   -0.065196
    19  C    0.786717
    20  H   -0.100366
    21  H   -0.061620
    22  H   -0.157406
 Sum of Mulliken atomic charges =   0.00000

 Dipole moment (field-independent basis, Debye):
    X=              0.3991    Y=             -5.0763    Z=              2.3134  Tot=              5.5928
 Quadrupole moment (field-independent basis, Debye-Ang):
   XX=            -69.7656   YY=            -59.4473   ZZ=            -62.1468
   XY=              2.0502   XZ=              6.1394   YZ=              2.1836

 Normal termination of Gaussian 09 at Mon Feb 13 03:32:59 2017.
