 Gaussian 09, Revision A.02,
 Gaussian 09:  EM64L-G09RevA.02 11-Jun-2009

 -------------------
 #SP MP2/aug-cc-pVDZ
 -------------------

 -------------------------------
 Single Point calculation at MP2
 -------------------------------
 Symbolic Z-matrix:
 Charge =  0 Multiplicity = 1

                         Standard orientation:
 ---------------------------------------------------------------------
 Center     Atomic      Atomic             Coordinates (Angstroms)
 Number     Number       Type             X           Y           Z
 ---------------------------------------------------------------------
      1          1           0       -3.811001   -1.536687   -0.864806
      2          6           0       -3.301600   -1.221988    0.050594
      3          1           0       -2.866802   -2.099689    0.538494
      4          1           0       -4.058499   -0.786586    0.711294
      5          6           0       -2.280698   -0.149891   -0.302106
      6          8           0       -2.582395    0.853310   -0.941506
      7          7           0       -1.006098   -0.389994    0.123694
      8          1           0       -0.799900   -1.151694    0.758394
      9          6           0        0.055104    0.594504   -0.028006
     10          1           0       -0.007995    0.987504   -1.048606
     11          6           0       -0.073393    1.762604    0.966394
     12          1           0       -0.005494    1.390704    1.993494
     13          1           0        0.724409    2.498102    0.809494
     14          1           0       -1.037192    2.256206    0.819394
     15          6           0        1.374202   -0.153699    0.200894
     16          8           0        1.491300   -0.940900    1.137394
     17          7           0        2.366203    0.114298   -0.689606
     18          1           0        2.172604    0.756699   -1.444506
     19          6           0        3.694501   -0.467205   -0.590206
     20          1           0        3.694600   -1.131405    0.274894
     21          1           0        3.937300   -1.046106   -1.488406
     22          1           0        4.457303    0.307593   -0.450206
 ---------------------------------------------------------------------

 SCF Done:  E(RHF) =  -492.928197303     A.U. after   14 cycles
 E2 =    -0.1600532307D+01 EUMP2 =    -0.49452872961024D+03

 The electronic state is 1-A.
 Alpha  occ. eigenvalues --  -20.54039 -20.52641 -15.60874 -15.59289 -11.36960
 Alpha  occ. eigenvalues --  -11.36048 -11.29363 -11.27652 -11.24443 -11.23298
 Alpha  occ. eigenvalues --   -1.39587  -1.37952  -1.24493  -1.23606  -1.05505
 Alpha  occ. eigenvalues --   -0.99088  -0.96513  -0.88281  -0.80416  -0.78760
 Alpha  occ. eigenvalues --   -0.73051  -0.67451  -0.66003  -0.64006  -0.63379
 Alpha  occ. eigenvalues --   -0.61870  -0.60333  -0.58520  -0.57155  -0.56480
 Alpha  occ. eigenvalues --   -0.55578  -0.54275  -0.52330  -0.52262  -0.49608
 Alpha  occ. eigenvalues --   -0.43632  -0.42244  -0.40393  -0.39022
 Alpha virt. eigenvalues --    0.02863   0.03844   0.04401   0.04567   0.05650
 Alpha virt. eigenvalues --    0.06078   0.06422   0.07040   0.07431   0.08064
 Alpha virt. eigenvalues --    0.09060   0.09408   0.11104   0.12102   0.12892

 Mulliken atomic charges:
              1
     1  H    0.040889
     2  C    0.350508
     3  H   -0.159667
     4  H    0.049362
     5  C    0.560698
     6  O   -0.868767
     7  N   -0.146367
     8  H   -0.073949
     9  C   -0.237833
    10  H   -0.245743
    11  C    0.788792
    12  H   -0.003810
    13  H   -0.061128
    14  H   -0.043996
    15  C    1.152147
    16  O   -0.886387
    17  N   -0.506560
    18  H   -0.105112
    19  C    0.727957
    20  H   -0.147615
    21  H   -0.087471
    22  H   -0.095947
 Sum of Mulliken atomic charges =   0.00000

 Dipole moment (field-independent basis, Debye):
    X=              2.3121    Y=             -0.4330    Z=             -0.7817  Tot=              2.4788
 Quadrupole moment (field-independent basis, Debye-Ang):
   XX=            -57.4547   YY=            -61.8335   ZZ=            -63.7327
   XY=             11.1468   XZ=            -12.1551   YZ=              3.0768

 Normal termination of Gaussian 09 at Mon Feb 13 02:18:46 2017.
