 Gaussian 09, Revision A.02,
 Gaussian 09:  EM64L-G09RevA.02 11-Jun-2009

 -------------------
 #SP MP2/aug-cc-pVDZ
 -------------------

 -------------------------------
 Single Point calculation at MP2
 -------------------------------
 Symbolic Z-matrix:
 Charge =  0 Multiplicity = 1

                         Standard orientation:
 ---------------------------------------------------------------------
 Center     Atomic      Atomic             Coordinates (Angstroms)
 Number     Number       Type             X           Y           Z
 ---------------------------------------------------------------------
      1          1           0       -4.107601   -0.754147    0.751106
      2          6           0       -3.367104   -1.141154    0.043906
      3          1           0       -3.893206   -1.360949   -0.890094
      4          1           0       -2.944413   -2.068057    0.443406
      5          6           0       -2.329194   -0.060263   -0.221694
      6          8           0       -2.630784    1.028240   -0.704894
      7          7           0       -1.048897   -0.383075    0.110006
      8          1           0       -0.794605   -1.289077    0.486406
      9          6           0        0.058711    0.529915   -0.087894
     10          1           0       -0.015385    0.954516   -1.097794
     11          6           0        0.047422    1.688215    0.930506
     12          1           0        0.144918    1.300614    1.950006
     13          1           0        0.868228    2.390807    0.746106
     14          1           0       -0.898573    2.226624    0.839206
     15          6           0        1.346004   -0.302797    0.036406
     16          8           0        1.340993   -1.421897    0.544406
     17          7           0        2.469909    0.304493   -0.429394
     18          1           0        2.381918    1.218193   -0.851194
     19          6           0        3.788704   -0.300620   -0.349094
     20          1           0        3.670795   -1.281018    0.113606
     21          1           0        4.225602   -0.424524   -1.346494
     22          1           0        4.466309    0.306574    0.262506
 ---------------------------------------------------------------------

 SCF Done:  E(RHF) =  -492.928741077     A.U. after   14 cycles
 E2 =    -0.1600474222D+01 EUMP2 =    -0.49452921529881D+03

 The electronic state is 1-A.
 Alpha  occ. eigenvalues --  -20.54475 -20.52277 -15.60770 -15.58826 -11.37244
 Alpha  occ. eigenvalues --  -11.35744 -11.29521 -11.27746 -11.24169 -11.23649
 Alpha  occ. eigenvalues --   -1.39952  -1.37627  -1.24591  -1.23446  -1.05579
 Alpha  occ. eigenvalues --   -0.98994  -0.96289  -0.88651  -0.80685  -0.78297
 Alpha  occ. eigenvalues --   -0.73056  -0.67658  -0.65973  -0.64524  -0.63295
 Alpha  occ. eigenvalues --   -0.61734  -0.60074  -0.58608  -0.56777  -0.56344
 Alpha  occ. eigenvalues --   -0.55679  -0.54517  -0.52903  -0.52340  -0.49292
 Alpha  occ. eigenvalues --   -0.43722  -0.41911  -0.40785  -0.38661
 Alpha virt. eigenvalues --    0.02801   0.03954   0.04310   0.04460   0.05762
 Alpha virt. eigenvalues --    0.06099   0.06442   0.07014   0.07309   0.08094
 Alpha virt. eigenvalues --    0.09145   0.09323   0.10962   0.12227   0.13119

 Mulliken atomic charges:
              1
     1  H    0.050021
     2  C    0.347022
     3  H    0.045122
     4  H   -0.161738
     5  C    0.489279
     6  O   -0.875078
     7  N   -0.226588
     8  H   -0.078608
     9  C   -0.156249
    10  H   -0.148426
    11  C    0.748645
    12  H   -0.028256
    13  H   -0.086181
    14  H   -0.041103
    15  C    1.255604
    16  O   -0.896203
    17  N   -0.508544
    18  H   -0.113841
    19  C    0.705618
    20  H   -0.140752
    21  H   -0.086427
    22  H   -0.093315
 Sum of Mulliken atomic charges =   0.00000

 Dipole moment (field-independent basis, Debye):
    X=              2.9308    Y=              0.2219    Z=             -0.0401  Tot=              2.9395
 Quadrupole moment (field-independent basis, Debye-Ang):
   XX=            -56.4022   YY=            -64.2386   ZZ=            -62.0946
   XY=             13.9715   XZ=             -7.6958   YZ=              2.4113

 Normal termination of Gaussian 09 at Mon Feb 13 02:36:20 2017.
