 Gaussian 09, Revision A.02,
 Gaussian 09:  EM64L-G09RevA.02 11-Jun-2009

 -------------------
 #SP MP2/aug-cc-pVDZ
 -------------------

 -------------------------------
 Single Point calculation at MP2
 -------------------------------
 Symbolic Z-matrix:
 Charge =  0 Multiplicity = 1

                         Standard orientation:
 ---------------------------------------------------------------------
 Center     Atomic      Atomic             Coordinates (Angstroms)
 Number     Number       Type             X           Y           Z
 ---------------------------------------------------------------------
      1          1           0        3.733409   -1.812579   -0.181503
      2          6           0        3.062407   -1.210081   -0.798103
      3          1           0        2.508409   -1.864282   -1.478903
      4          1           0        3.682605   -0.531079   -1.394803
      5          6           0        2.164005   -0.389083    0.115497
      6          8           0        2.573003    0.126418    1.146197
      7          7           0        0.850005   -0.285587   -0.289103
      8          1           0        0.649005   -0.534588   -1.250603
      9          6           0       -0.042598    0.714410    0.315797
     10          1           0        0.091702    0.619011    1.398797
     11          6           0        0.289798    2.145411   -0.108503
     12          1           0        0.165597    2.269511   -1.188503
     13          1           0       -0.383404    2.853109    0.383597
     14          1           0        1.319497    2.379214    0.173597
     15          6           0       -1.498097    0.348206   -0.045503
     16          8           0       -2.235399    1.111004   -0.656903
     17          7           0       -1.886094   -0.882595    0.400097
     18          1           0       -1.183992   -1.468093    0.831297
     19          6           0       -3.205692   -1.432999    0.149397
     20          1           0       -3.809994   -0.642301   -0.297303
     21          1           0       -3.165489   -2.283999   -0.542403
     22          1           0       -3.674491   -1.761200    1.083897
 ---------------------------------------------------------------------

 SCF Done:  E(RHF) =  -492.922949628     A.U. after   14 cycles
 E2 =    -0.1601297907D+01 EUMP2 =    -0.49452424753459D+03

 The electronic state is 1-A.
 Alpha  occ. eigenvalues --  -20.54086 -20.53787 -15.60667 -15.59824 -11.37188
 Alpha  occ. eigenvalues --  -11.36450 -11.29325 -11.27214 -11.25552 -11.22300
 Alpha  occ. eigenvalues --   -1.39560  -1.38928  -1.25156  -1.22999  -1.05467
 Alpha  occ. eigenvalues --   -0.99573  -0.96458  -0.87507  -0.79846  -0.79031
 Alpha  occ. eigenvalues --   -0.73214  -0.67699  -0.65743  -0.65496  -0.62595
 Alpha  occ. eigenvalues --   -0.62080  -0.60371  -0.59298  -0.57778  -0.56177
 Alpha  occ. eigenvalues --   -0.55055  -0.53412  -0.52620  -0.51892  -0.50152
 Alpha  occ. eigenvalues --   -0.43696  -0.43127  -0.40938  -0.39097
 Alpha virt. eigenvalues --    0.02495   0.03678   0.04384   0.04578   0.05572
 Alpha virt. eigenvalues --    0.05990   0.06312   0.06860   0.07221   0.08105
 Alpha virt. eigenvalues --    0.08463   0.09082   0.11109   0.11986   0.12638

 Mulliken atomic charges:
              1
     1  H    0.016302
     2  C    0.338115
     3  H   -0.111726
     4  H    0.053542
     5  C    0.545912
     6  O   -0.842010
     7  N   -0.434262
     8  H   -0.058255
     9  C   -0.159992
    10  H   -0.148736
    11  C    0.758858
    12  H   -0.025296
    13  H   -0.052000
    14  H   -0.037339
    15  C    1.211225
    16  O   -0.823885
    17  N   -0.561393
    18  H   -0.063632
    19  C    0.745704
    20  H   -0.148039
    21  H   -0.091861
    22  H   -0.111232
 Sum of Mulliken atomic charges =   0.00000

 Dipole moment (field-independent basis, Debye):
    X=              0.1947    Y=             -3.8403    Z=             -1.5474  Tot=              4.1449
 Quadrupole moment (field-independent basis, Debye-Ang):
   XX=            -67.6136   YY=            -59.2643   ZZ=            -62.6250
   XY=              3.9415   XZ=            -12.3831   YZ=              1.7313

 Normal termination of Gaussian 09 at Mon Feb 13 03:41:02 2017.
