 Gaussian 09, Revision A.02,
 Gaussian 09:  EM64L-G09RevA.02 11-Jun-2009

 -------------------
 #SP MP2/aug-cc-pVDZ
 -------------------

 -------------------------------
 Single Point calculation at MP2
 -------------------------------
 Symbolic Z-matrix:
 Charge =  0 Multiplicity = 1

                         Standard orientation:
 ---------------------------------------------------------------------
 Center     Atomic      Atomic             Coordinates (Angstroms)
 Number     Number       Type             X           Y           Z
 ---------------------------------------------------------------------
      1          1           0        3.808706   -1.714476    0.031399
      2          6           0        3.056003   -1.289180   -0.636001
      3          1           0        2.497008   -2.097684   -1.118101
      4          1           0        3.582700   -0.720778   -1.411701
      5          6           0        2.170998   -0.344385    0.163599
      6          8           0        2.601294    0.344917    1.075799
      7          7           0        0.837098   -0.338993   -0.201701
      8          1           0        0.631100   -0.717094   -1.120201
      9          6           0       -0.044808    0.752902    0.235099
     10          1           0        0.128491    0.862603    1.312099
     11          6           0        0.265685    2.086704   -0.450801
     12          1           0        0.151685    2.002703   -1.537601
     13          1           0       -0.428320    2.854500   -0.102301
     14          1           0        1.289883    2.389310   -0.218601
     15          6           0       -1.523406    0.363394    0.036099
     16          8           0       -2.384411    1.205689   -0.183801
     17          7           0       -1.785498   -0.973207    0.141099
     18          1           0       -1.021695   -1.573403    0.421199
     19          6           0       -3.136395   -1.504815    0.109499
     20          1           0       -3.788800   -0.722718   -0.281101
     21          1           0       -3.189891   -2.383215   -0.542801
     22          1           0       -3.485594   -1.786917    1.110999
 ---------------------------------------------------------------------

 SCF Done:  E(RHF) =  -492.923356799     A.U. after   14 cycles
 E2 =    -0.1601769898D+01 EUMP2 =    -0.49452512669714D+03

 The electronic state is 1-A.
 Alpha  occ. eigenvalues --  -20.54407 -20.53448 -15.60750 -15.59865 -11.37386
 Alpha  occ. eigenvalues --  -11.36404 -11.29362 -11.27187 -11.25748 -11.22486
 Alpha  occ. eigenvalues --   -1.39779  -1.38806  -1.25501  -1.22803  -1.05532
 Alpha  occ. eigenvalues --   -0.99711  -0.96463  -0.87589  -0.80134  -0.78776
 Alpha  occ. eigenvalues --   -0.73427  -0.67965  -0.65759  -0.65003  -0.62682
 Alpha  occ. eigenvalues --   -0.62364  -0.60175  -0.59495  -0.58033  -0.56226
 Alpha  occ. eigenvalues --   -0.55150  -0.53820  -0.52573  -0.51885  -0.50011
 Alpha  occ. eigenvalues --   -0.43837  -0.43160  -0.40740  -0.39495
 Alpha virt. eigenvalues --    0.02315   0.03709   0.04253   0.04641   0.05585
 Alpha virt. eigenvalues --    0.05990   0.06491   0.06738   0.07072   0.08156
 Alpha virt. eigenvalues --    0.08465   0.09063   0.11004   0.12170   0.12844

 Mulliken atomic charges:
              1
     1  H    0.008877
     2  C    0.326096
     3  H   -0.101584
     4  H    0.048833
     5  C    0.577473
     6  O   -0.833211
     7  N   -0.332576
     8  H   -0.042135
     9  C   -0.251088
    10  H   -0.084421
    11  C    0.754748
    12  H   -0.063385
    13  H   -0.030731
    14  H   -0.040276
    15  C    1.116002
    16  O   -0.827108
    17  N   -0.547539
    18  H   -0.071501
    19  C    0.736057
    20  H   -0.137353
    21  H   -0.124122
    22  H   -0.081055
 Sum of Mulliken atomic charges =   0.00000

 Dipole moment (field-independent basis, Debye):
    X=              0.6214    Y=             -4.4972    Z=             -2.2115  Tot=              5.0500
 Quadrupole moment (field-independent basis, Debye-Ang):
   XX=            -69.4960   YY=            -59.4955   ZZ=            -61.8083
   XY=              3.3956   XZ=             -9.3330   YZ=              0.2868

 Normal termination of Gaussian 09 at Mon Feb 13 03:31:14 2017.
