 Gaussian 09, Revision A.02,
 Gaussian 09:  EM64L-G09RevA.02 11-Jun-2009

 -------------------
 #SP MP2/aug-cc-pVDZ
 -------------------

 -------------------------------
 Single Point calculation at MP2
 -------------------------------
 Symbolic Z-matrix:
 Charge =  0 Multiplicity = 1

                         Standard orientation:
 ---------------------------------------------------------------------
 Center     Atomic      Atomic             Coordinates (Angstroms)
 Number     Number       Type             X           Y           Z
 ---------------------------------------------------------------------
      1          1           0       -4.068312   -0.979574    0.120409
      2          6           0       -3.066713   -1.280077    0.442609
      3          1           0       -2.773115   -2.181377   -0.103991
      4          1           0       -3.125214   -1.514176    1.510209
      5          6           0       -2.122710   -0.094979    0.256209
      6          8           0       -2.345608    0.979322    0.801709
      7          7           0       -1.059911   -0.353281   -0.566091
      8          1           0       -0.927113   -1.308781   -0.871791
      9          6           0        0.086391    0.497816   -0.912591
     10          1           0        0.164591    0.486316   -2.008591
     11          6           0       -0.019906    1.958117   -0.470291
     12          1           0       -0.099006    2.069717    0.612909
     13          1           0        0.859595    2.499615   -0.838991
     14          1           0       -0.911105    2.423419   -0.894391
     15          6           0        1.337689   -0.284786   -0.443591
     16          8           0        1.533187   -1.410887   -0.895491
     17          7           0        2.137390    0.305012    0.481609
     18          1           0        1.880092    1.214813    0.834109
     19          6           0        3.308389   -0.351691    1.038209
     20          1           0        3.445087   -1.289691    0.499009
     21          1           0        4.200590    0.272207    0.914909
     22          1           0        3.172088   -0.568490    2.104509
 ---------------------------------------------------------------------

 SCF Done:  E(RHF) =  -492.916215588     A.U. after   14 cycles
 E2 =    -0.1601388398D+01 EUMP2 =    -0.49451760398594D+03

 The electronic state is 1-A.
 Alpha  occ. eigenvalues --  -20.53507 -20.52497 -15.60515 -15.59795 -11.36586
 Alpha  occ. eigenvalues --  -11.36432 -11.30074 -11.27393 -11.24425 -11.23849
 Alpha  occ. eigenvalues --   -1.39155  -1.37885  -1.24287  -1.23643  -1.05916
 Alpha  occ. eigenvalues --   -0.99016  -0.95937  -0.89742  -0.80414  -0.76785
 Alpha  occ. eigenvalues --   -0.72658  -0.69403  -0.65930  -0.65180  -0.62299
 Alpha  occ. eigenvalues --   -0.61715  -0.59315  -0.58876  -0.56532  -0.55820
 Alpha  occ. eigenvalues --   -0.55648  -0.54487  -0.53090  -0.51883  -0.50762
 Alpha  occ. eigenvalues --   -0.43932  -0.41739  -0.39955  -0.38715
 Alpha virt. eigenvalues --    0.03008   0.03892   0.04101   0.04962   0.05503
 Alpha virt. eigenvalues --    0.06041   0.06502   0.06749   0.07446   0.07731
 Alpha virt. eigenvalues --    0.09265   0.09919   0.10748   0.11517   0.13057

 Mulliken atomic charges:
              1
     1  H    0.039320
     2  C    0.407558
     3  H   -0.175875
     4  H    0.041840
     5  C    0.589634
     6  O   -0.834618
     7  N   -0.456550
     8  H   -0.060189
     9  C    0.069337
    10  H   -0.079793
    11  C    0.785944
    12  H    0.108522
    13  H   -0.097921
    14  H   -0.107582
    15  C    0.978413
    16  O   -0.916798
    17  N   -0.571377
    18  H   -0.112566
    19  C    0.732807
    20  H   -0.143641
    21  H   -0.112434
    22  H   -0.084031
 Sum of Mulliken atomic charges =   0.00000

 Dipole moment (field-independent basis, Debye):
    X=              1.5186    Y=              0.3853    Z=              0.2335  Tot=              1.5840
 Quadrupole moment (field-independent basis, Debye-Ang):
   XX=            -59.6017   YY=            -63.4258   ZZ=            -61.6040
   XY=             13.2445   XZ=              8.6304   YZ=             -4.8505

 Normal termination of Gaussian 09 at Sun Feb 12 16:52:23 2017.
