 Gaussian 09, Revision A.02,
 Gaussian 09:  EM64L-G09RevA.02 11-Jun-2009

 -------------------
 #SP MP2/aug-cc-pVDZ
 -------------------

 -------------------------------
 Single Point calculation at MP2
 -------------------------------
 Symbolic Z-matrix:
 Charge =  0 Multiplicity = 1

                         Standard orientation:
 ---------------------------------------------------------------------
 Center     Atomic      Atomic             Coordinates (Angstroms)
 Number     Number       Type             X           Y           Z
 ---------------------------------------------------------------------
      1          1           0       -4.067905   -1.333520   -0.140892
      2          6           0       -3.000605   -1.536917   -0.035892
      3          1           0       -2.687503   -2.244316   -0.811492
      4          1           0       -2.837704   -2.006117    0.941708
      5          6           0       -2.247108   -0.210215   -0.084892
      6          8           0       -2.758611    0.829384    0.302208
      7          7           0       -0.976408   -0.318612   -0.602792
      8          1           0       -0.682706   -1.263411   -0.812092
      9          6           0        0.125989    0.645691   -0.555692
     10          1           0        0.421789    0.862292   -1.594592
     11          6           0       -0.187514    1.977091    0.138208
     12          1           0       -0.433914    1.813790    1.188208
     13          1           0        0.707084    2.608893    0.079608
     14          1           0       -1.022516    2.489688   -0.337692
     15          6           0        1.311591   -0.022405    0.177908
     16          8           0        1.206692   -0.438406    1.323608
     17          7           0        2.455191   -0.128602   -0.563092
     18          1           0        2.469890    0.277598   -1.487692
     19          6           0        3.694693   -0.655799   -0.017792
     20          1           0        3.467694   -1.061300    0.969108
     21          1           0        4.092195   -1.453598   -0.654992
     22          1           0        4.455191    0.128003    0.084408
 ---------------------------------------------------------------------

 SCF Done:  E(RHF) =  -492.912883483     A.U. after   14 cycles
 E2 =    -0.1601504014D+01 EUMP2 =    -0.49451438749752D+03

 The electronic state is 1-A.
 Alpha  occ. eigenvalues --  -20.53612 -20.52503 -15.60777 -15.59673 -11.36506
 Alpha  occ. eigenvalues --  -11.36164 -11.30038 -11.27593 -11.24260 -11.22649
 Alpha  occ. eigenvalues --   -1.39202  -1.37862  -1.24387  -1.23473  -1.05615
 Alpha  occ. eigenvalues --   -0.98744  -0.96353  -0.88156  -0.80190  -0.76908
 Alpha  occ. eigenvalues --   -0.72728  -0.69194  -0.66361  -0.63916  -0.62788
 Alpha  occ. eigenvalues --   -0.61950  -0.59811  -0.58532  -0.56335  -0.55508
 Alpha  occ. eigenvalues --   -0.55081  -0.53350  -0.52540  -0.51561  -0.50477
 Alpha  occ. eigenvalues --   -0.43924  -0.41186  -0.40158  -0.38991
 Alpha virt. eigenvalues --    0.02297   0.03734   0.04051   0.04534   0.05788
 Alpha virt. eigenvalues --    0.06005   0.06277   0.06609   0.07841   0.07992
 Alpha virt. eigenvalues --    0.08532   0.09033   0.11202   0.12111   0.12622

 Mulliken atomic charges:
              1
     1  H   -0.029571
     2  C    0.345537
     3  H   -0.085480
     4  H    0.068583
     5  C    0.675507
     6  O   -0.802543
     7  N   -0.407161
     8  H   -0.067931
     9  C   -0.217022
    10  H   -0.263556
    11  C    0.739179
    12  H    0.036324
    13  H   -0.104910
    14  H    0.035166
    15  C    1.136214
    16  O   -0.847190
    17  N   -0.485781
    18  H   -0.105761
    19  C    0.740646
    20  H   -0.151719
    21  H   -0.119585
    22  H   -0.088946
 Sum of Mulliken atomic charges =   0.00000

 Dipole moment (field-independent basis, Debye):
    X=              3.5113    Y=             -1.8355    Z=             -4.3104  Tot=              5.8548
 Quadrupole moment (field-independent basis, Debye-Ang):
   XX=            -59.2647   YY=            -58.9254   ZZ=            -63.4826
   XY=              8.9455   XZ=             -3.3215   YZ=              0.5112

 Normal termination of Gaussian 09 at Sun Feb 12 15:51:48 2017.
