 Gaussian 09, Revision A.02,
 Gaussian 09:  EM64L-G09RevA.02 11-Jun-2009

 -------------------
 #SP MP2/aug-cc-pVDZ
 -------------------

 -------------------------------
 Single Point calculation at MP2
 -------------------------------
 Symbolic Z-matrix:
 Charge =  0 Multiplicity = 1

                         Standard orientation:
 ---------------------------------------------------------------------
 Center     Atomic      Atomic             Coordinates (Angstroms)
 Number     Number       Type             X           Y           Z
 ---------------------------------------------------------------------
      1          1           0       -3.978718   -1.489394   -0.125391
      2          6           0       -2.915319   -1.634697    0.075909
      3          1           0       -2.520221   -2.401199   -0.599491
      4          1           0       -2.814220   -1.997798    1.105309
      5          6           0       -2.211514   -0.284800   -0.045291
      6          8           0       -2.765510    0.752602    0.284209
      7          7           0       -0.933514   -0.373204   -0.546191
      8          1           0       -0.607417   -1.311006   -0.737891
      9          6           0        0.117289    0.649592   -0.613591
     10          1           0        0.408490    0.748891   -1.671691
     11          6           0       -0.272406    2.034593   -0.091591
     12          1           0       -0.498206    1.992694    0.974109
     13          1           0        0.581197    2.705790   -0.243791
     14          1           0       -1.140104    2.430996   -0.617691
     15          6           0        1.328388    0.124988    0.194309
     16          8           0        1.315887    0.067888    1.415609
     17          7           0        2.374686   -0.314516   -0.570391
     18          1           0        2.342787   -0.153616   -1.567091
     19          6           0        3.613784   -0.803720    0.011009
     20          1           0        3.438584   -0.941920    1.078809
     21          1           0        3.900981   -1.760821   -0.437891
     22          1           0        4.434287   -0.088223   -0.124291
 ---------------------------------------------------------------------

 SCF Done:  E(RHF) =  -492.911894312     A.U. after   14 cycles
 E2 =    -0.1601685995D+01 EUMP2 =    -0.49451358030701D+03

 The electronic state is 1-A.
 Alpha  occ. eigenvalues --  -20.53575 -20.52531 -15.60804 -15.59961 -11.36456
 Alpha  occ. eigenvalues --  -11.36312 -11.30065 -11.27597 -11.24444 -11.22330
 Alpha  occ. eigenvalues --   -1.39162  -1.37936  -1.24528  -1.23467  -1.05584
 Alpha  occ. eigenvalues --   -0.98779  -0.96452  -0.88068  -0.80145  -0.77118
 Alpha  occ. eigenvalues --   -0.72635  -0.69366  -0.66347  -0.64249  -0.62640
 Alpha  occ. eigenvalues --   -0.61974  -0.59905  -0.58677  -0.56330  -0.55497
 Alpha  occ. eigenvalues --   -0.54756  -0.53180  -0.52512  -0.51267  -0.50735
 Alpha  occ. eigenvalues --   -0.44228  -0.41339  -0.40131  -0.38827
 Alpha virt. eigenvalues --    0.02166   0.03652   0.03968   0.04568   0.05688
 Alpha virt. eigenvalues --    0.06014   0.06270   0.06600   0.07741   0.07923
 Alpha virt. eigenvalues --    0.08525   0.09259   0.11255   0.12093   0.12406

 Mulliken atomic charges:
              1
     1  H   -0.012236
     2  C    0.360306
     3  H   -0.111168
     4  H    0.065910
     5  C    0.686302
     6  O   -0.805987
     7  N   -0.396771
     8  H   -0.074346
     9  C   -0.241366
    10  H   -0.272004
    11  C    0.746556
    12  H    0.047394
    13  H   -0.095519
    14  H    0.045842
    15  C    1.096462
    16  O   -0.817900
    17  N   -0.502160
    18  H   -0.105576
    19  C    0.740704
    20  H   -0.144687
    21  H   -0.124934
    22  H   -0.084821
 Sum of Mulliken atomic charges =   0.00000

 Dipole moment (field-independent basis, Debye):
    X=              3.2983    Y=             -2.9411    Z=             -4.5027  Tot=              6.3089
 Quadrupole moment (field-independent basis, Debye-Ang):
   XX=            -60.8558   YY=            -58.0084   ZZ=            -63.6232
   XY=              6.6956   XZ=             -4.1779   YZ=             -0.7945

 Normal termination of Gaussian 09 at Sun Feb 12 15:32:13 2017.
