 Gaussian 09, Revision A.02,
 Gaussian 09:  EM64L-G09RevA.02 11-Jun-2009

 -------------------
 #SP MP2/aug-cc-pVDZ
 -------------------

 -------------------------------
 Single Point calculation at MP2
 -------------------------------
 Symbolic Z-matrix:
 Charge =  0 Multiplicity = 1

                         Standard orientation:
 ---------------------------------------------------------------------
 Center     Atomic      Atomic             Coordinates (Angstroms)
 Number     Number       Type             X           Y           Z
 ---------------------------------------------------------------------
      1          1           0       -4.114093   -0.956183    0.164294
      2          6           0       -3.096094   -1.262686    0.421094
      3          1           0       -2.827996   -2.144586   -0.168406
      4          1           0       -3.094894   -1.532486    1.482394
      5          6           0       -2.166791   -0.068288    0.220494
      6          8           0       -2.418289    1.017613    0.729494
      7          7           0       -1.084092   -0.334490   -0.573806
      8          1           0       -0.911794   -1.303390   -0.813606
      9          6           0        0.090410    0.498107   -0.855406
     10          1           0        0.205710    0.521207   -1.949706
     11          6           0        0.002913    1.948208   -0.374306
     12          1           0       -0.053387    2.028908    0.713294
     13          1           0        0.879114    2.495606   -0.743806
     14          1           0       -0.889786    2.431510   -0.771906
     15          6           0        1.312208   -0.322595   -0.367306
     16          8           0        1.379006   -1.515795   -0.656306
     17          7           0        2.259310    0.327803    0.355494
     18          1           0        2.105512    1.294903    0.597594
     19          6           0        3.448208   -0.335700    0.865594
     20          1           0        3.429906   -1.364200    0.503694
     21          1           0        4.357209    0.159698    0.506094
     22          1           0        3.457108   -0.341000    1.961794
 ---------------------------------------------------------------------

 SCF Done:  E(RHF) =  -492.916434283     A.U. after   14 cycles
 E2 =    -0.1601427230D+01 EUMP2 =    -0.49451786151321D+03

 The electronic state is 1-A.
 Alpha  occ. eigenvalues --  -20.53668 -20.52310 -15.60678 -15.59382 -11.36787
 Alpha  occ. eigenvalues --  -11.36187 -11.30146 -11.27510 -11.24181 -11.23877
 Alpha  occ. eigenvalues --   -1.39342  -1.37689  -1.24352  -1.23509  -1.05852
 Alpha  occ. eigenvalues --   -0.98869  -0.95986  -0.89698  -0.80585  -0.76395
 Alpha  occ. eigenvalues --   -0.72815  -0.69140  -0.65928  -0.65236  -0.62384
 Alpha  occ. eigenvalues --   -0.61719  -0.59313  -0.58772  -0.56495  -0.55870
 Alpha  occ. eigenvalues --   -0.55614  -0.54526  -0.53008  -0.51867  -0.50516
 Alpha  occ. eigenvalues --   -0.43909  -0.41584  -0.40169  -0.38645
 Alpha virt. eigenvalues --    0.02904   0.04017   0.04104   0.04819   0.05536
 Alpha virt. eigenvalues --    0.06123   0.06459   0.06715   0.07404   0.07804
 Alpha virt. eigenvalues --    0.09397   0.09931   0.10696   0.11340   0.13174

 Mulliken atomic charges:
              1
     1  H    0.030605
     2  C    0.386577
     3  H   -0.165175
     4  H    0.041954
     5  C    0.590586
     6  O   -0.834533
     7  N   -0.445898
     8  H   -0.039680
     9  C   -0.038979
    10  H   -0.046486
    11  C    0.832542
    12  H    0.074487
    13  H   -0.074201
    14  H   -0.110034
    15  C    1.001214
    16  O   -0.904878
    17  N   -0.559310
    18  H   -0.119729
    19  C    0.728343
    20  H   -0.147292
    21  H   -0.111781
    22  H   -0.088332
 Sum of Mulliken atomic charges =   0.00000

 Dipole moment (field-independent basis, Debye):
    X=              2.2369    Y=              0.5519    Z=             -0.1290  Tot=              2.3076
 Quadrupole moment (field-independent basis, Debye-Ang):
   XX=            -58.3877   YY=            -64.1605   ZZ=            -61.2432
   XY=             13.5170   XZ=              6.9727   YZ=             -4.2037

 Normal termination of Gaussian 09 at Sun Feb 12 16:27:11 2017.
