 Gaussian 09, Revision A.02,
 Gaussian 09:  EM64L-G09RevA.02 11-Jun-2009

 -------------------
 #SP MP2/aug-cc-pVDZ
 -------------------

 -------------------------------
 Single Point calculation at MP2
 -------------------------------
 Symbolic Z-matrix:
 Charge =  0 Multiplicity = 1

                         Standard orientation:
 ---------------------------------------------------------------------
 Center     Atomic      Atomic             Coordinates (Angstroms)
 Number     Number       Type             X           Y           Z
 ---------------------------------------------------------------------
      1          1           0       -3.612120   -1.731975    0.033106
      2          6           0       -3.140116   -1.039778   -0.667294
      3          1           0       -3.908411   -0.338073   -1.012794
      4          1           0       -2.770219   -1.596680   -1.534594
      5          6           0       -2.053911   -0.263984    0.072306
      6          8           0       -2.174909    0.039616    1.251206
      7          7           0       -0.956009    0.040609   -0.697694
      8          1           0       -0.992311   -0.277191   -1.656894
      9          6           0        0.131797    0.996002   -0.433594
     10          1           0        0.198901    1.647201   -1.312494
     11          6           0       -0.049997    1.894803    0.796906
     12          1           0       -0.065001    1.326703    1.726706
     13          1           0        0.788607    2.598398    0.814006
     14          1           0       -0.983093    2.459909    0.733006
     15          6           0        1.507293    0.294593   -0.386594
     16          8           0        2.487996    0.801487   -0.918894
     17          7           0        1.536786   -0.862007    0.331306
     18          1           0        0.666083   -1.199102    0.718106
     19          6           0        2.752981   -1.622215    0.550806
     20          1           0        3.565084   -1.086220    0.057206
     21          1           0        2.977380   -1.708416    1.620606
     22          1           0        2.676674   -2.630114    0.125006
 ---------------------------------------------------------------------

 SCF Done:  E(RHF) =  -492.917276867     A.U. after   14 cycles
 E2 =    -0.1601688653D+01 EUMP2 =    -0.49451896551944D+03

 The electronic state is 1-A.
 Alpha  occ. eigenvalues --  -20.53945 -20.53109 -15.60960 -15.59425 -11.37581
 Alpha  occ. eigenvalues --  -11.35819 -11.29864 -11.26817 -11.25658 -11.23239
 Alpha  occ. eigenvalues --   -1.39408  -1.38335  -1.25238  -1.22734  -1.06037
 Alpha  occ. eigenvalues --   -0.99774  -0.95769  -0.88861  -0.79837  -0.77726
 Alpha  occ. eigenvalues --   -0.72610  -0.69944  -0.66734  -0.63338  -0.62402
 Alpha  occ. eigenvalues --   -0.62202  -0.59983  -0.59389  -0.57186  -0.56240
 Alpha  occ. eigenvalues --   -0.54702  -0.54242  -0.52735  -0.52186  -0.50520
 Alpha  occ. eigenvalues --   -0.44469  -0.42670  -0.39815  -0.38699
 Alpha virt. eigenvalues --    0.02550   0.03792   0.04333   0.04611   0.05606
 Alpha virt. eigenvalues --    0.05923   0.06285   0.06485   0.07564   0.07971
 Alpha virt. eigenvalues --    0.08707   0.09229   0.11002   0.11938   0.12453

 Mulliken atomic charges:
              1
     1  H    0.006969
     2  C    0.398588
     3  H    0.060389
     4  H   -0.117941
     5  C    0.622692
     6  O   -0.812927
     7  N   -0.164249
     8  H   -0.100760
     9  C   -0.234285
    10  H   -0.229049
    11  C    0.738212
    12  H    0.035048
    13  H   -0.090527
    14  H   -0.041858
    15  C    1.053679
    16  O   -0.858770
    17  N   -0.599977
    18  H   -0.064977
    19  C    0.738451
    20  H   -0.150145
    21  H   -0.093305
    22  H   -0.095258
 Sum of Mulliken atomic charges =   0.00000

 Dipole moment (field-independent basis, Debye):
    X=             -2.1284    Y=             -2.5774    Z=             -1.6823  Tot=              3.7421
 Quadrupole moment (field-independent basis, Debye-Ang):
   XX=            -68.3047   YY=            -57.4941   ZZ=            -63.4544
   XY=             -3.9509   XZ=             13.9759   YZ=              1.0204

 Normal termination of Gaussian 09 at Sun Feb 12 16:52:31 2017.
