 Gaussian 09, Revision A.02,
 Gaussian 09:  EM64L-G09RevA.02 11-Jun-2009

 -------------------
 #SP MP2/aug-cc-pVDZ
 -------------------

 -------------------------------
 Single Point calculation at MP2
 -------------------------------
 Symbolic Z-matrix:
 Charge =  0 Multiplicity = 1

                         Standard orientation:
 ---------------------------------------------------------------------
 Center     Atomic      Atomic             Coordinates (Angstroms)
 Number     Number       Type             X           Y           Z
 ---------------------------------------------------------------------
      1          1           0       -3.864174   -1.646409   -0.081609
      2          6           0       -2.806774   -1.718405    0.182491
      3          1           0       -2.339771   -2.512303   -0.410209
      4          1           0       -2.745673   -1.995604    1.241091
      5          6           0       -2.167679   -0.343902   -0.005209
      6          8           0       -2.768183    0.678895    0.286191
      7          7           0       -0.891979   -0.393197   -0.517209
      8          1           0       -0.519776   -1.320596   -0.671509
      9          6           0        0.104817    0.680107   -0.657109
     10          1           0        0.386816    0.722608   -1.721609
     11          6           0       -0.353789    2.071605   -0.224509
     12          1           0       -0.565989    2.092004    0.844191
     13          1           0        0.461308    2.774908   -0.431109
     14          1           0       -1.245690    2.384201   -0.766209
     15          6           0        1.344518    0.253812    0.167391
     16          8           0        1.447317    0.482012    1.363391
     17          7           0        2.266421   -0.471685   -0.542309
     18          1           0        2.184721   -0.492085   -1.549309
     19          6           0        3.503723   -0.948580    0.054591
     20          1           0        3.393523   -0.872180    1.137091
     21          1           0        3.687027   -1.992479   -0.221209
     22          1           0        4.364621   -0.342976   -0.255509
 ---------------------------------------------------------------------

 SCF Done:  E(RHF) =  -492.911298558     A.U. after   14 cycles
 E2 =    -0.1601830911D+01 EUMP2 =    -0.49451312946863D+03

 The electronic state is 1-A.
 Alpha  occ. eigenvalues --  -20.53778 -20.52618 -15.60780 -15.60168 -11.36525
 Alpha  occ. eigenvalues --  -11.36453 -11.30094 -11.27623 -11.24604 -11.22078
 Alpha  occ. eigenvalues --   -1.39283  -1.38046  -1.24739  -1.23373  -1.05567
 Alpha  occ. eigenvalues --   -0.98818  -0.96542  -0.87991  -0.80100  -0.77223
 Alpha  occ. eigenvalues --   -0.72651  -0.69395  -0.66355  -0.64610  -0.62658
 Alpha  occ. eigenvalues --   -0.61976  -0.60026  -0.58818  -0.56387  -0.55529
 Alpha  occ. eigenvalues --   -0.54297  -0.53043  -0.52611  -0.51263  -0.50879
 Alpha  occ. eigenvalues --   -0.44558  -0.41532  -0.40177  -0.38817
 Alpha virt. eigenvalues --    0.02087   0.03592   0.03939   0.04607   0.05579
 Alpha virt. eigenvalues --    0.06092   0.06270   0.06668   0.07607   0.07849
 Alpha virt. eigenvalues --    0.08643   0.09446   0.11027   0.12086   0.12431

 Mulliken atomic charges:
              1
     1  H    0.002034
     2  C    0.365947
     3  H   -0.137143
     4  H    0.062001
     5  C    0.647065
     6  O   -0.809128
     7  N   -0.445176
     8  H   -0.055668
     9  C   -0.115404
    10  H   -0.265319
    11  C    0.699652
    12  H    0.054001
    13  H   -0.087007
    14  H    0.064369
    15  C    1.075794
    16  O   -0.805819
    17  N   -0.523822
    18  H   -0.104033
    19  C    0.731586
    20  H   -0.138182
    21  H   -0.130943
    22  H   -0.084806
 Sum of Mulliken atomic charges =   0.00000

 Dipole moment (field-independent basis, Debye):
    X=              3.0633    Y=             -3.7608    Z=             -4.3318  Tot=              6.5032
 Quadrupole moment (field-independent basis, Debye-Ang):
   XX=            -62.8421   YY=            -57.8731   ZZ=            -63.0933
   XY=              4.6256   XZ=             -4.5099   YZ=             -1.9902

 Normal termination of Gaussian 09 at Sun Feb 12 18:39:04 2017.
