 Gaussian 09, Revision A.02,
 Gaussian 09:  EM64L-G09RevA.02 11-Jun-2009

 -------------------
 #SP MP2/aug-cc-pVDZ
 -------------------

 -------------------------------
 Single Point calculation at MP2
 -------------------------------
 Symbolic Z-matrix:
 Charge =  0 Multiplicity = 1

                         Standard orientation:
 ---------------------------------------------------------------------
 Center     Atomic      Atomic             Coordinates (Angstroms)
 Number     Number       Type             X           Y           Z
 ---------------------------------------------------------------------
      1          1           0       -4.035106   -0.993588    0.036399
      2          6           0       -3.044207   -1.322589    0.365199
      3          1           0       -2.748208   -2.196389   -0.223501
      4          1           0       -3.130507   -1.613389    1.416399
      5          6           0       -2.084105   -0.140090    0.265499
      6          8           0       -2.283204    0.888410    0.900799
      7          7           0       -1.029306   -0.346291   -0.581801
      8          1           0       -0.939307   -1.264091   -0.997001
      9          6           0        0.087495    0.545208   -0.930001
     10          1           0        0.145495    0.557708   -2.025601
     11          6           0       -0.050703    1.991408   -0.451901
     12          1           0       -0.146103    2.079808    0.631599
     13          1           0        0.823598    2.555907   -0.795901
     14          1           0       -0.946602    2.449509   -0.875801
     15          6           0        1.372195   -0.206294   -0.506001
     16          8           0        1.731494   -1.185894   -1.154101
     17          7           0        1.997495    0.224506    0.620999
     18          1           0        1.613896    1.017806    1.113099
     19          6           0        3.158194   -0.447496    1.179599
     20          1           0        3.437494   -1.244596    0.489499
     21          1           0        3.997995    0.247803    1.289399
     22          1           0        2.930494   -0.884996    2.159099
 ---------------------------------------------------------------------

 SCF Done:  E(RHF) =  -492.915894434     A.U. after   14 cycles
 E2 =    -0.1601294885D+01 EUMP2 =    -0.49451718931877D+03

 The electronic state is 1-A.
 Alpha  occ. eigenvalues --  -20.53451 -20.52768 -15.60230 -15.60198 -11.36714
 Alpha  occ. eigenvalues --  -11.36379 -11.30009 -11.27220 -11.24704 -11.23821
 Alpha  occ. eigenvalues --   -1.39022  -1.38129  -1.24384  -1.23557  -1.05971
 Alpha  occ. eigenvalues --   -0.99185  -0.95851  -0.89716  -0.80212  -0.77155
 Alpha  occ. eigenvalues --   -0.72527  -0.69612  -0.66068  -0.64961  -0.62201
 Alpha  occ. eigenvalues --   -0.61779  -0.59390  -0.58978  -0.56695  -0.55777
 Alpha  occ. eigenvalues --   -0.55514  -0.54481  -0.53031  -0.51978  -0.50995
 Alpha  occ. eigenvalues --   -0.44014  -0.41892  -0.39742  -0.38858
 Alpha virt. eigenvalues --    0.03092   0.03767   0.04101   0.05066   0.05537
 Alpha virt. eigenvalues --    0.05922   0.06464   0.06787   0.07494   0.07718
 Alpha virt. eigenvalues --    0.09011   0.09849   0.11199   0.11544   0.12863

 Mulliken atomic charges:
              1
     1  H    0.043113
     2  C    0.415543
     3  H   -0.169135
     4  H    0.041888
     5  C    0.596763
     6  O   -0.835650
     7  N   -0.482464
     8  H   -0.071789
     9  C    0.221052
    10  H   -0.128369
    11  C    0.722442
    12  H    0.116035
    13  H   -0.118457
    14  H   -0.077876
    15  C    0.921222
    16  O   -0.912936
    17  N   -0.570786
    18  H   -0.102642
    19  C    0.730558
    20  H   -0.146714
    21  H   -0.103001
    22  H   -0.088798
 Sum of Mulliken atomic charges =   0.00000

 Dipole moment (field-independent basis, Debye):
    X=              0.6717    Y=              0.0261    Z=              0.5361  Tot=              0.8598
 Quadrupole moment (field-independent basis, Debye-Ang):
   XX=            -61.3953   YY=            -61.8278   ZZ=            -62.4887
   XY=             12.1577   XZ=             10.8269   YZ=             -5.0593

 Normal termination of Gaussian 09 at Sun Feb 12 16:50:54 2017.
