 Gaussian 09, Revision A.02,
 Gaussian 09:  EM64L-G09RevA.02 11-Jun-2009

 -------------------
 #SP MP2/aug-cc-pVDZ
 -------------------

 -------------------------------
 Single Point calculation at MP2
 -------------------------------
 Symbolic Z-matrix:
 Charge =  0 Multiplicity = 1

                         Standard orientation:
 ---------------------------------------------------------------------
 Center     Atomic      Atomic             Coordinates (Angstroms)
 Number     Number       Type             X           Y           Z
 ---------------------------------------------------------------------
      1          1           0       -4.116510   -1.211489   -0.012396
      2          6           0       -3.052411   -1.443992   -0.077296
      3          1           0       -2.867013   -2.059793   -0.964296
      4          1           0       -2.768913   -2.027593    0.806904
      5          6           0       -2.268307   -0.135095   -0.093996
      6          8           0       -2.742103    0.904807    0.337904
      7          7           0       -1.015007   -0.255599   -0.655596
      8          1           0       -0.741310   -1.212000   -0.841396
      9          6           0        0.129396    0.647097   -0.520896
     10          1           0        0.425697    0.970796   -1.531196
     11          6           0       -0.109300    1.904398    0.330304
     12          1           0       -0.366101    1.633799    1.356104
     13          1           0        0.817502    2.490295    0.341904
     14          1           0       -0.916698    2.513201   -0.074396
     15          6           0        1.294193   -0.150107    0.107804
     16          8           0        1.122091   -0.902506    1.058204
     17          7           0        2.504294    0.043789   -0.493796
     18          1           0        2.560496    0.695789   -1.263296
     19          6           0        3.735892   -0.532615    0.018404
     20          1           0        3.462689   -1.222414    0.818104
     21          1           0        4.264790   -1.082117   -0.768196
     22          1           0        4.403694    0.237683    0.423104
 ---------------------------------------------------------------------

 SCF Done:  E(RHF) =  -492.914313292     A.U. after   14 cycles
 E2 =    -0.1601267663D+01 EUMP2 =    -0.49451558095495D+03

 The electronic state is 1-A.
 Alpha  occ. eigenvalues --  -20.53851 -20.52579 -15.60709 -15.59298 -11.36653
 Alpha  occ. eigenvalues --  -11.36019 -11.30010 -11.27611 -11.24065 -11.23002
 Alpha  occ. eigenvalues --   -1.39385  -1.37857  -1.24343  -1.23392  -1.05645
 Alpha  occ. eigenvalues --   -0.98710  -0.96252  -0.88280  -0.80236  -0.76550
 Alpha  occ. eigenvalues --   -0.72857  -0.68937  -0.66381  -0.63579  -0.63111
 Alpha  occ. eigenvalues --   -0.61971  -0.59752  -0.58441  -0.56415  -0.55526
 Alpha  occ. eigenvalues --   -0.55248  -0.53628  -0.52572  -0.51924  -0.50318
 Alpha  occ. eigenvalues --   -0.43730  -0.41197  -0.40173  -0.39265
 Alpha virt. eigenvalues --    0.02443   0.03855   0.04142   0.04505   0.05843
 Alpha virt. eigenvalues --    0.06060   0.06331   0.06662   0.07835   0.08001
 Alpha virt. eigenvalues --    0.08655   0.08930   0.11072   0.11947   0.12977

 Mulliken atomic charges:
              1
     1  H   -0.052767
     2  C    0.313768
     3  H   -0.041900
     4  H    0.068638
     5  C    0.655460
     6  O   -0.799257
     7  N   -0.482408
     8  H   -0.041287
     9  C   -0.124190
    10  H   -0.240480
    11  C    0.710997
    12  H    0.028619
    13  H   -0.116301
    14  H    0.041580
    15  C    1.167154
    16  O   -0.870454
    17  N   -0.475232
    18  H   -0.109756
    19  C    0.729462
    20  H   -0.150708
    21  H   -0.120894
    22  H   -0.090043
 Sum of Mulliken atomic charges =   0.00000

 Dipole moment (field-independent basis, Debye):
    X=              3.6751    Y=             -0.7961    Z=             -3.6296  Tot=              5.2263
 Quadrupole moment (field-independent basis, Debye-Ang):
   XX=            -58.1204   YY=            -60.5095   ZZ=            -62.7768
   XY=             10.8908   XZ=             -1.9811   YZ=              1.0275

 Normal termination of Gaussian 09 at Sun Feb 12 16:19:03 2017.
