 Gaussian 09, Revision A.02,
 Gaussian 09:  EM64L-G09RevA.02 11-Jun-2009

 -------------------
 #SP MP2/aug-cc-pVDZ
 -------------------

 -------------------------------
 Single Point calculation at MP2
 -------------------------------
 Symbolic Z-matrix:
 Charge =  0 Multiplicity = 1

                         Standard orientation:
 ---------------------------------------------------------------------
 Center     Atomic      Atomic             Coordinates (Angstroms)
 Number     Number       Type             X           Y           Z
 ---------------------------------------------------------------------
      1          1           0        3.816798   -1.278302   -1.015988
      2          6           0        3.074598   -1.493903   -0.242288
      3          1           0        3.620299   -1.758002    0.669512
      4          1           0        2.472100   -2.353305   -0.553588
      5          6           0        2.262695   -0.232905    0.020912
      6          8           0        2.794893    0.843996    0.261812
      7          7           0        0.903596   -0.388108   -0.021488
      8          1           0        0.519098   -1.313109   -0.148988
      9          6           0       -0.019007    0.710190    0.294112
     10          1           0        0.271292    1.134490    1.259612
     11          6           0        0.021091    1.825090   -0.763088
     12          1           0       -0.185908    1.445689   -1.771388
     13          1           0       -0.711111    2.604588   -0.525488
     14          1           0        1.018790    2.267892   -0.772688
     15          6           0       -1.418405    0.105987    0.517812
     16          8           0       -1.883705   -0.041714    1.639612
     17          7           0       -2.071404   -0.284015   -0.620488
     18          1           0       -1.675605   -0.026514   -1.513088
     19          6           0       -3.417203   -0.832718   -0.596288
     20          1           0       -3.645403   -1.095318    0.437412
     21          1           0       -4.158105   -0.103220   -0.946788
     22          1           0       -3.479701   -1.728718   -1.223088
 ---------------------------------------------------------------------

 SCF Done:  E(RHF) =  -492.918354997     A.U. after   14 cycles
 E2 =    -0.1601913968D+01 EUMP2 =    -0.49452026896459D+03

 The electronic state is 1-A.
 Alpha  occ. eigenvalues --  -20.54057 -20.53261 -15.60527 -15.60456 -11.36833
 Alpha  occ. eigenvalues --  -11.36712 -11.29524 -11.27604 -11.25128 -11.23783
 Alpha  occ. eigenvalues --   -1.39477  -1.38631  -1.25061  -1.23348  -1.05898
 Alpha  occ. eigenvalues --   -0.99573  -0.96200  -0.89127  -0.79861  -0.79418
 Alpha  occ. eigenvalues --   -0.73314  -0.67819  -0.66781  -0.64622  -0.62862
 Alpha  occ. eigenvalues --   -0.62314  -0.59480  -0.58997  -0.57384  -0.56944
 Alpha  occ. eigenvalues --   -0.55734  -0.54897  -0.53463  -0.52174  -0.49882
 Alpha  occ. eigenvalues --   -0.43934  -0.42176  -0.40535  -0.39498
 Alpha virt. eigenvalues --    0.02306   0.03608   0.04241   0.04783   0.05587
 Alpha virt. eigenvalues --    0.05986   0.06208   0.06757   0.07368   0.08028
 Alpha virt. eigenvalues --    0.08313   0.09621   0.11376   0.12196   0.12468

 Mulliken atomic charges:
              1
     1  H    0.043962
     2  C    0.385837
     3  H    0.053027
     4  H   -0.160984
     5  C    0.557611
     6  O   -0.867893
     7  N   -0.251867
     8  H   -0.080996
     9  C    0.245589
    10  H   -0.179786
    11  C    0.689134
    12  H   -0.089263
    13  H   -0.040661
    14  H   -0.055541
    15  C    0.853882
    16  O   -0.837545
    17  N   -0.553507
    18  H   -0.086818
    19  C    0.721722
    20  H   -0.139354
    21  H   -0.086493
    22  H   -0.120055
 Sum of Mulliken atomic charges =   0.00000

 Dipole moment (field-independent basis, Debye):
    X=             -1.5592    Y=             -2.7554    Z=             -4.4392  Tot=              5.4525
 Quadrupole moment (field-independent basis, Debye-Ang):
   XX=            -65.6890   YY=            -58.2783   ZZ=            -65.3422
   XY=             -7.8810   XZ=              6.2186   YZ=              0.1625

 Normal termination of Gaussian 09 at Mon Feb 13 03:00:36 2017.
