 Gaussian 09, Revision A.02,
 Gaussian 09:  EM64L-G09RevA.02 11-Jun-2009

 -------------------
 #SP MP2/aug-cc-pVDZ
 -------------------

 -------------------------------
 Single Point calculation at MP2
 -------------------------------
 Symbolic Z-matrix:
 Charge =  0 Multiplicity = 1

                         Standard orientation:
 ---------------------------------------------------------------------
 Center     Atomic      Atomic             Coordinates (Angstroms)
 Number     Number       Type             X           Y           Z
 ---------------------------------------------------------------------
      1          1           0        3.841519   -1.479682   -0.617308
      2          6           0        3.029619   -1.539284    0.112492
      3          1           0        3.486819   -1.649383    1.101892
      4          1           0        2.423621   -2.426385   -0.097308
      5          6           0        2.243016   -0.235886    0.073092
      6          8           0        2.794213    0.855916    0.096692
      7          7           0        0.876516   -0.377189    0.000492
      8          1           0        0.498118   -1.285090    0.237392
      9          6           0       -0.020686    0.772709    0.190892
     10          1           0        0.267012    1.315310    1.097192
     11          6           0        0.027511    1.746109   -0.999708
     12          1           0       -0.254088    1.245508   -1.933108
     13          1           0       -0.664791    2.576507   -0.825708
     14          1           0        1.039410    2.141111   -1.104108
     15          6           0       -1.456185    0.283405    0.429592
     16          8           0       -2.163786    0.761904    1.304092
     17          7           0       -1.876283   -0.710196   -0.418708
     18          1           0       -1.298182   -0.916294   -1.222708
     19          6           0       -3.251482   -1.184099   -0.421008
     20          1           0       -3.676082   -0.974500    0.561392
     21          1           0       -3.860083   -0.673900   -1.178808
     22          1           0       -3.279079   -2.261799   -0.609708
 ---------------------------------------------------------------------

 SCF Done:  E(RHF) =  -492.920044473     A.U. after   14 cycles
 E2 =    -0.1601706517D+01 EUMP2 =    -0.49452175099004D+03

 The electronic state is 1-A.
 Alpha  occ. eigenvalues --  -20.54095 -20.53843 -15.60595 -15.60489 -11.37047
 Alpha  occ. eigenvalues --  -11.36805 -11.29420 -11.27613 -11.25419 -11.23380
 Alpha  occ. eigenvalues --   -1.39588  -1.39048  -1.25516  -1.23067  -1.05906
 Alpha  occ. eigenvalues --   -0.99708  -0.96337  -0.88513  -0.80043  -0.78799
 Alpha  occ. eigenvalues --   -0.73529  -0.68218  -0.67071  -0.63935  -0.63136
 Alpha  occ. eigenvalues --   -0.62422  -0.59789  -0.59718  -0.57224  -0.56969
 Alpha  occ. eigenvalues --   -0.55614  -0.54753  -0.53071  -0.51939  -0.49894
 Alpha  occ. eigenvalues --   -0.44281  -0.42283  -0.40532  -0.40220
 Alpha virt. eigenvalues --    0.02231   0.03703   0.04274   0.04715   0.05579
 Alpha virt. eigenvalues --    0.05999   0.06348   0.06780   0.07180   0.08195
 Alpha virt. eigenvalues --    0.08315   0.08950   0.10966   0.11900   0.12645

 Mulliken atomic charges:
              1
     1  H    0.033954
     2  C    0.399377
     3  H    0.056931
     4  H   -0.152020
     5  C    0.502262
     6  O   -0.848858
     7  N   -0.141676
     8  H   -0.069681
     9  C   -0.012224
    10  H   -0.195913
    11  C    0.744939
    12  H   -0.097575
    13  H   -0.035275
    14  H   -0.045646
    15  C    0.940432
    16  O   -0.822712
    17  N   -0.613421
    18  H   -0.068295
    19  C    0.753043
    20  H   -0.113634
    21  H   -0.075453
    22  H   -0.138555
 Sum of Mulliken atomic charges =   0.00000

 Dipole moment (field-independent basis, Debye):
    X=             -0.6719    Y=             -4.7054    Z=             -2.8149  Tot=              5.5241
 Quadrupole moment (field-independent basis, Debye-Ang):
   XX=            -68.9396   YY=            -59.0557   ZZ=            -63.1753
   XY=             -3.3404   XZ=              7.2076   YZ=             -2.1983

 Normal termination of Gaussian 09 at Mon Feb 13 03:26:41 2017.
