 Gaussian 09, Revision A.02,
 Gaussian 09:  EM64L-G09RevA.02 11-Jun-2009

 -------------------
 #SP MP2/aug-cc-pVDZ
 -------------------

 -------------------------------
 Single Point calculation at MP2
 -------------------------------
 Symbolic Z-matrix:
 Charge =  0 Multiplicity = 1

                         Standard orientation:
 ---------------------------------------------------------------------
 Center     Atomic      Atomic             Coordinates (Angstroms)
 Number     Number       Type             X           Y           Z
 ---------------------------------------------------------------------
      1          1           0       -3.899590   -1.594293   -0.246590
      2          6           0       -3.082890   -1.350693    0.436210
      3          1           0       -2.534789   -2.263392    0.691210
      4          1           0       -3.525990   -0.944193    1.353510
      5          6           0       -2.204291   -0.290392   -0.210990
      6          8           0       -2.653592    0.578408   -0.941090
      7          7           0       -0.849591   -0.401591    0.068310
      8          1           0       -0.646590   -0.910990    0.923510
      9          6           0        0.031708    0.751410   -0.163790
     10          1           0       -0.205092    1.112110   -1.169590
     11          6           0       -0.204393    1.898910    0.830510
     12          1           0       -0.031292    1.564810    1.860910
     13          1           0        0.487806    2.716311    0.616710
     14          1           0       -1.231893    2.260609    0.740510
     15          6           0        1.518909    0.359112   -0.160190
     16          8           0        2.386408    1.216513   -0.262090
     17          7           0        1.801110   -0.965288    0.051810
     18          1           0        1.064910   -1.620489   -0.177790
     19          6           0        3.175210   -1.441587   -0.019090
     20          1           0        3.820210   -0.701086    0.456010
     21          1           0        3.256711   -2.392987    0.513810
     22          1           0        3.516910   -1.578186   -1.053590
 ---------------------------------------------------------------------

 SCF Done:  E(RHF) =  -492.921911160     A.U. after   14 cycles
 E2 =    -0.1601842028D+01 EUMP2 =    -0.49452375318761D+03

 The electronic state is 1-A.
 Alpha  occ. eigenvalues --  -20.54616 -20.53538 -15.60746 -15.60113 -11.37464
 Alpha  occ. eigenvalues --  -11.36412 -11.29281 -11.27252 -11.25808 -11.23033
 Alpha  occ. eigenvalues --   -1.39938  -1.38939  -1.25570  -1.22845  -1.05605
 Alpha  occ. eigenvalues --   -0.99841  -0.96278  -0.87898  -0.80227  -0.78541
 Alpha  occ. eigenvalues --   -0.73502  -0.68119  -0.65758  -0.64186  -0.63103
 Alpha  occ. eigenvalues --   -0.62787  -0.59671  -0.59430  -0.58255  -0.56730
 Alpha  occ. eigenvalues --   -0.55269  -0.54312  -0.52705  -0.51783  -0.49779
 Alpha  occ. eigenvalues --   -0.44007  -0.43655  -0.40473  -0.40153
 Alpha virt. eigenvalues --    0.02202   0.03706   0.04224   0.04779   0.05567
 Alpha virt. eigenvalues --    0.05951   0.06453   0.06853   0.07166   0.08204
 Alpha virt. eigenvalues --    0.08517   0.08908   0.10838   0.12277   0.13040

 Mulliken atomic charges:
              1
     1  H   -0.000595
     2  C    0.332625
     3  H   -0.088155
     4  H    0.049564
     5  C    0.561388
     6  O   -0.827458
     7  N   -0.305277
     8  H   -0.031769
     9  C   -0.217766
    10  H   -0.035182
    11  C    0.678999
    12  H   -0.047254
    13  H   -0.040105
    14  H   -0.048908
    15  C    1.042756
    16  O   -0.860089
    17  N   -0.566468
    18  H   -0.067043
    19  C    0.781895
    20  H   -0.101521
    21  H   -0.167919
    22  H   -0.041718
 Sum of Mulliken atomic charges =   0.00000

 Dipole moment (field-independent basis, Debye):
    X=             -0.6268    Y=             -4.9780    Z=              2.6570  Tot=              5.6774
 Quadrupole moment (field-independent basis, Debye-Ang):
   XX=            -69.4200   YY=            -59.5950   ZZ=            -61.9635
   XY=             -2.0964   XZ=             -5.7859   YZ=              1.5021

 Normal termination of Gaussian 09 at Mon Feb 13 02:06:33 2017.
