 Gaussian 09, Revision A.02,
 Gaussian 09:  EM64L-G09RevA.02 11-Jun-2009

 -------------------
 #SP MP2/aug-cc-pVDZ
 -------------------

 -------------------------------
 Single Point calculation at MP2
 -------------------------------
 Symbolic Z-matrix:
 Charge =  0 Multiplicity = 1

                         Standard orientation:
 ---------------------------------------------------------------------
 Center     Atomic      Atomic             Coordinates (Angstroms)
 Number     Number       Type             X           Y           Z
 ---------------------------------------------------------------------
      1          1           0       -3.718204   -1.853625    0.249395
      2          6           0       -3.118407   -1.145722    0.826995
      3          1           0       -2.595604   -1.681220    1.625695
      4          1           0       -3.807610   -0.424425    1.280695
      5          6           0       -2.183510   -0.409618   -0.121705
      6          8           0       -2.551112    0.003880   -1.213805
      7          7           0       -0.891510   -0.262613    0.323995
      8          1           0       -0.711810   -0.420412    1.308495
      9          6           0        0.039786    0.647591   -0.353205
     10          1           0       -0.058013    0.438491   -1.423205
     11          6           0       -0.271320    2.123790   -0.095205
     12          1           0       -0.143121    2.358190    0.964995
     13          1           0        0.410777    2.763693   -0.666205
     14          1           0       -1.295921    2.342886   -0.406005
     15          6           0        1.449087    0.282797    0.148195
     16          8           0        1.912785    0.774599    1.171695
     17          7           0        2.091691   -0.663900   -0.592005
     18          1           0        1.614693   -1.045302   -1.396605
     19          6           0        3.390494   -1.202795   -0.229305
     20          1           0        3.736791   -0.654793    0.647895
     21          1           0        3.325098   -2.269595    0.017495
     22          1           0        4.111493   -1.072392   -1.044305
 ---------------------------------------------------------------------

 SCF Done:  E(RHF) =  -492.924146561     A.U. after   14 cycles
 E2 =    -0.1601042150D+01 EUMP2 =    -0.49452518871055D+03

 The electronic state is 1-A.
 Alpha  occ. eigenvalues --  -20.53841 -20.53608 -15.60306 -15.60218 -11.36787
 Alpha  occ. eigenvalues --  -11.36598 -11.29295 -11.27344 -11.25129 -11.22509
 Alpha  occ. eigenvalues --   -1.39376  -1.38744  -1.24669  -1.23439  -1.05421
 Alpha  occ. eigenvalues --   -0.99367  -0.96513  -0.87731  -0.79676  -0.79276
 Alpha  occ. eigenvalues --   -0.73100  -0.67445  -0.66030  -0.64815  -0.62666
 Alpha  occ. eigenvalues --   -0.62100  -0.60398  -0.58881  -0.57495  -0.56519
 Alpha  occ. eigenvalues --   -0.55206  -0.53745  -0.52473  -0.51635  -0.50095
 Alpha  occ. eigenvalues --   -0.43458  -0.42988  -0.40510  -0.39324
 Alpha virt. eigenvalues --    0.02796   0.03620   0.04517   0.04616   0.05628
 Alpha virt. eigenvalues --    0.05978   0.06137   0.07043   0.07404   0.07979
 Alpha virt. eigenvalues --    0.08902   0.09247   0.11386   0.11564   0.12571

 Mulliken atomic charges:
              1
     1  H    0.021269
     2  C    0.347343
     3  H   -0.114281
     4  H    0.053791
     5  C    0.594183
     6  O   -0.848325
     7  N   -0.320644
     8  H   -0.066747
     9  C   -0.134077
    10  H   -0.253650
    11  C    0.729841
    12  H    0.002794
    13  H   -0.044415
    14  H   -0.027452
    15  C    1.157137
    16  O   -0.859471
    17  N   -0.511353
    18  H   -0.100570
    19  C    0.716951
    20  H   -0.145820
    21  H   -0.096190
    22  H   -0.100314
 Sum of Mulliken atomic charges =   0.00000

 Dipole moment (field-independent basis, Debye):
    X=              0.7756    Y=             -2.7021    Z=              0.3325  Tot=              2.8308
 Quadrupole moment (field-independent basis, Debye-Ang):
   XX=            -63.1629   YY=            -59.0935   ZZ=            -64.1721
   XY=             -2.8100   XZ=            -15.3493   YZ=             -1.9044

 Normal termination of Gaussian 09 at Mon Feb 13 04:06:58 2017.
