 Gaussian 09, Revision A.02,
 Gaussian 09:  EM64L-G09RevA.02 11-Jun-2009

 -------------------
 #SP MP2/aug-cc-pVDZ
 -------------------

 -------------------------------
 Single Point calculation at MP2
 -------------------------------
 Symbolic Z-matrix:
 Charge =  0 Multiplicity = 1

                         Standard orientation:
 ---------------------------------------------------------------------
 Center     Atomic      Atomic             Coordinates (Angstroms)
 Number     Number       Type             X           Y           Z
 ---------------------------------------------------------------------
      1          1           0       -3.762486   -1.830614    0.056282
      2          6           0       -3.176689   -1.165411    0.695982
      3          1           0       -2.681086   -1.755109    1.473382
      4          1           0       -3.875693   -0.469915    1.173982
      5          6           0       -2.210593   -0.376507   -0.175918
      6          8           0       -2.551295    0.127892   -1.239218
      7          7           0       -0.927593   -0.287801    0.301482
      8          1           0       -0.749092   -0.534500    1.267582
      9          6           0        0.043802    0.627104   -0.302218
     10          1           0       -0.037497    0.492104   -1.385418
     11          6           0       -0.223305    2.095903    0.047182
     12          1           0       -0.117206    2.249603    1.124682
     13          1           0        0.493192    2.749606   -0.463818
     14          1           0       -1.232106    2.371198   -0.270818
     15          6           0        1.421004    0.186011    0.216582
     16          8           0        1.743603    0.384412    1.384582
     17          7           0        2.198907   -0.482086   -0.678518
     18          1           0        1.840008   -0.627087   -1.611218
     19          6           0        3.506610   -1.017779   -0.341518
     20          1           0        3.711309   -0.747378    0.695082
     21          1           0        3.523315   -2.109879   -0.437918
     22          1           0        4.284708   -0.593176   -0.986018
 ---------------------------------------------------------------------

 SCF Done:  E(RHF) =  -492.925538400     A.U. after   14 cycles
 E2 =    -0.1600894340D+01 EUMP2 =    -0.49452643273994D+03

 The electronic state is 1-A.
 Alpha  occ. eigenvalues --  -20.53814 -20.53300 -15.60598 -15.59906 -11.36696
 Alpha  occ. eigenvalues --  -11.36534 -11.29289 -11.27453 -11.24882 -11.22740
 Alpha  occ. eigenvalues --   -1.39367  -1.38502  -1.24486  -1.23621  -1.05415
 Alpha  occ. eigenvalues --   -0.99257  -0.96548  -0.87908  -0.79918  -0.79132
 Alpha  occ. eigenvalues --   -0.73072  -0.67372  -0.66050  -0.64489  -0.62843
 Alpha  occ. eigenvalues --   -0.62050  -0.60373  -0.58672  -0.57405  -0.56594
 Alpha  occ. eigenvalues --   -0.55346  -0.53914  -0.52404  -0.51681  -0.50006
 Alpha  occ. eigenvalues --   -0.43446  -0.42784  -0.40226  -0.39451
 Alpha virt. eigenvalues --    0.02876   0.03656   0.04499   0.04644   0.05646
 Alpha virt. eigenvalues --    0.05908   0.06244   0.07059   0.07484   0.07951
 Alpha virt. eigenvalues --    0.09037   0.09473   0.11257   0.11868   0.12510

 Mulliken atomic charges:
              1
     1  H    0.023533
     2  C    0.371946
     3  H   -0.122982
     4  H    0.052356
     5  C    0.600598
     6  O   -0.857437
     7  N   -0.243494
     8  H   -0.070958
     9  C   -0.121106
    10  H   -0.272703
    11  C    0.767560
    12  H    0.001829
    13  H   -0.055045
    14  H   -0.040700
    15  C    1.070034
    16  O   -0.862070
    17  N   -0.511128
    18  H   -0.106376
    19  C    0.714998
    20  H   -0.145852
    21  H   -0.097912
    22  H   -0.095091
 Sum of Mulliken atomic charges =   0.00000

 Dipole moment (field-independent basis, Debye):
    X=              1.3439    Y=             -2.0136    Z=             -0.2707  Tot=              2.4360
 Quadrupole moment (field-independent basis, Debye-Ang):
   XX=            -60.6929   YY=            -58.8547   ZZ=            -65.2853
   XY=              0.0219   XZ=            -16.2626   YZ=             -0.9142

 Normal termination of Gaussian 09 at Mon Feb 13 03:06:06 2017.
