 Gaussian 09, Revision A.02,
 Gaussian 09:  EM64L-G09RevA.02 11-Jun-2009

 -------------------
 #SP MP2/aug-cc-pVDZ
 -------------------

 -------------------------------
 Single Point calculation at MP2
 -------------------------------
 Symbolic Z-matrix:
 Charge =  0 Multiplicity = 1

                         Standard orientation:
 ---------------------------------------------------------------------
 Center     Atomic      Atomic             Coordinates (Angstroms)
 Number     Number       Type             X           Y           Z
 ---------------------------------------------------------------------
      1          1           0       -3.775190   -1.760614   -0.440801
      2          6           0       -3.241392   -1.238811    0.358399
      3          1           0       -2.779689   -1.975409    1.023099
      4          1           0       -3.982295   -0.665314    0.925799
      5          6           0       -2.245096   -0.274207   -0.268501
      6          8           0       -2.562700    0.504792   -1.160701
      7          7           0       -0.967996   -0.352302    0.216799
      8          1           0       -0.781494   -0.870701    1.066599
      9          6           0        0.050100    0.628203   -0.150101
     10          1           0       -0.018301    0.764802   -1.234201
     11          6           0       -0.154406    1.983702    0.543599
     12          1           0       -0.073005    1.864702    1.628099
     13          1           0        0.603991    2.705005    0.216999
     14          1           0       -1.141508    2.377098    0.288399
     15          6           0        1.396103    0.014609    0.257399
     16          8           0        1.602504   -0.309991    1.424199
     17          7           0        2.291603   -0.171788   -0.749101
     18          1           0        2.027602    0.105411   -1.683601
     19          6           0        3.611306   -0.741382   -0.535401
     20          1           0        3.694307   -0.980382    0.525499
     21          1           0        3.742910   -1.657481   -1.122501
     22          1           0        4.399303   -0.029579   -0.807601
 ---------------------------------------------------------------------

 SCF Done:  E(RHF) =  -492.926963771     A.U. after   14 cycles
 E2 =    -0.1600693802D+01 EUMP2 =    -0.49452765757344D+03

 The electronic state is 1-A.
 Alpha  occ. eigenvalues --  -20.53875 -20.52957 -15.60800 -15.59590 -11.36820
 Alpha  occ. eigenvalues --  -11.36278 -11.29311 -11.27566 -11.24649 -11.23029
 Alpha  occ. eigenvalues --   -1.39446  -1.38218  -1.24447  -1.23672  -1.05449
 Alpha  occ. eigenvalues --   -0.99159  -0.96562  -0.88099  -0.80186  -0.78947
 Alpha  occ. eigenvalues --   -0.73058  -0.67375  -0.66034  -0.64211  -0.63102
 Alpha  occ. eigenvalues --   -0.61959  -0.60361  -0.58545  -0.57319  -0.56560
 Alpha  occ. eigenvalues --   -0.55483  -0.54107  -0.52357  -0.51919  -0.49827
 Alpha  occ. eigenvalues --   -0.43531  -0.42506  -0.40221  -0.39305
 Alpha virt. eigenvalues --    0.02885   0.03748   0.04454   0.04622   0.05633
 Alpha virt. eigenvalues --    0.05984   0.06359   0.07047   0.07479   0.07994
 Alpha virt. eigenvalues --    0.09064   0.09564   0.11204   0.12077   0.12604

 Mulliken atomic charges:
              1
     1  H    0.034062
     2  C    0.371545
     3  H   -0.146693
     4  H    0.050229
     5  C    0.587217
     6  O   -0.866628
     7  N   -0.161610
     8  H   -0.075460
     9  C   -0.161768
    10  H   -0.267154
    11  C    0.794791
    12  H   -0.003648
    13  H   -0.064644
    14  H   -0.047991
    15  C    1.060023
    16  O   -0.869658
    17  N   -0.515516
    18  H   -0.105495
    19  C    0.722652
    20  H   -0.147149
    21  H   -0.094002
    22  H   -0.093105
 Sum of Mulliken atomic charges =   0.00000

 Dipole moment (field-independent basis, Debye):
    X=              1.8695    Y=             -1.1758    Z=             -0.7765  Tot=              2.3410
 Quadrupole moment (field-independent basis, Debye-Ang):
   XX=            -58.7419   YY=            -59.4984   ZZ=            -65.4377
   XY=              5.9725   XZ=            -15.4116   YZ=              1.5650

 Normal termination of Gaussian 09 at Mon Feb 13 02:28:08 2017.
