 Gaussian 09, Revision A.02,
 Gaussian 09:  EM64L-G09RevA.02 11-Jun-2009

 ----------------------------------------------------------------------
 #MP2/cc-pvTZ density=MP2, maxdisk=16GB, pop=(minimal, MK), 5d, punch=m
 o
 ----------------------------------------------------------------------

 -----------------
 Generated by mdgx
 -----------------
 Symbolic Z-matrix:
 Charge =  0 Multiplicity = 1

                         Standard orientation:
 ---------------------------------------------------------------------
 Center     Atomic      Atomic             Coordinates (Angstroms)
 Number     Number       Type             X           Y           Z
 ---------------------------------------------------------------------
      1          1           0        3.468358   -1.580304    0.097881
      2          6           0        3.157287   -0.675439   -0.424185
      3          1           0        3.107587   -0.907883   -1.487951
      4          1           0        3.912260    0.103539   -0.317839
      5          6           0        1.798499   -0.337179    0.212737
      6          8           0        1.391104   -0.845996    1.284020
      7          7           0        1.152120    0.704711   -0.317533
      8          1           0        1.585660    1.193608   -1.087677
      9          6           0       -0.130575    1.194261    0.227004
     10          1           0       -0.046319    1.609312    1.231361
     11          6           0       -0.643719    2.430483   -0.549356
     12          1           0       -0.908343    2.308359   -1.599670
     13          1           0       -1.467240    2.969696   -0.081207
     14          1           0        0.092519    3.229779   -0.464619
     15          6           0       -1.256962    0.116331    0.266464
     16          8           0       -2.196819    0.248925    1.071628
     17          7           0       -1.200412   -0.892503   -0.590249
     18          1           0       -0.491811   -0.855969   -1.309033
     19          6           0       -2.140736   -1.962069   -0.620773
     20          1           0       -2.555587   -1.935874   -1.628401
     21          1           0       -1.527765   -2.838128   -0.408907
     22          1           0       -3.088326   -1.803352   -0.106009
 ---------------------------------------------------------------------

 SCF Done:  E(RHF) =  -492.997233376     A.U. after   14 cycles
 E2 =    -0.1890637583D+01 EUMP2 =    -0.49488787095916D+03

 The electronic state is 1-A.
 Alpha  occ. eigenvalues --  -20.51898 -20.49394 -15.60381 -15.57936 -11.36115
 Alpha  occ. eigenvalues --  -11.33862 -11.29585 -11.25373 -11.25049 -11.23897
 Alpha  occ. eigenvalues --   -1.37272  -1.35353  -1.24607  -1.22928  -1.05926
 Alpha  occ. eigenvalues --   -0.99872  -0.96471  -0.88148  -0.81255  -0.78386
 Alpha  occ. eigenvalues --   -0.71419  -0.69459  -0.67442  -0.64516  -0.62126
 Alpha  occ. eigenvalues --   -0.61581  -0.59792  -0.58036  -0.56920  -0.55169
 Alpha  occ. eigenvalues --   -0.54856  -0.53654  -0.52750  -0.50904  -0.48599
 Alpha  occ. eigenvalues --   -0.42996  -0.42385  -0.39287  -0.37869
 Alpha virt. eigenvalues --    0.10608   0.14133   0.14538   0.15647   0.17152
 Alpha virt. eigenvalues --    0.18121   0.19451   0.20230   0.21024   0.21449
 Alpha virt. eigenvalues --    0.22082   0.23028   0.24215   0.24710   0.28050

 Mulliken atomic charges:
              1
     1  H    0.149642
     2  C   -0.400030
     3  H    0.120625
     4  H    0.141830
     5  C    0.151374
     6  O   -0.312389
     7  N   -0.180581
     8  H    0.188848
     9  C   -0.024820
    10  H    0.156117
    11  C   -0.416626
    12  H    0.127457
    13  H    0.156164
    14  H    0.125749
    15  C    0.175511
    16  O   -0.348300
    17  N   -0.109866
    18  H    0.176205
    19  C   -0.279910
    20  H    0.110018
    21  H    0.133017
    22  H    0.159964
 Sum of Mulliken atomic charges =   0.00000

 Dipole moment (field-independent basis, Debye):
    X=              2.6021    Y=              1.1230    Z=             -5.6331  Tot=              6.3059
 Quadrupole moment (field-independent basis, Debye-Ang):
   XX=            -60.9698   YY=            -55.7639   ZZ=            -64.6813
   XY=              4.6851   XZ=              0.8757   YZ=              2.6372

 Normal termination of Gaussian 09 at Sat Mar 18 12:18:27 2017.
