 Gaussian 09, Revision A.02,
 Gaussian 09:  EM64L-G09RevA.02 11-Jun-2009

 ----------------------------------------------------------------------
 # b3lyp/6-31G* Opt=(ModRedundant, maxcycles=1000, calcfc) geom=nocrowd
 ----------------------------------------------------------------------

 ------------------
 Phi Psi fixed scan
 ------------------
 Symbolic Z-matrix:
 Charge =  0 Multiplicity = 1

 SCF Done:  E(RB3LYP) =  -495.833510676     A.U. after   15 cycles

  Exact polarizability:   0.000   0.000   0.000   0.000   0.000   0.000
 Approx polarizability: 121.076  -2.844 129.254   7.393  -3.660  85.174

 SCF Done:  E(RB3LYP) =  -495.837355965     A.U. after   12 cycles
 SCF Done:  E(RB3LYP) =  -495.842500626     A.U. after   12 cycles
 SCF Done:  E(RB3LYP) =  -495.844093552     A.U. after   12 cycles
 SCF Done:  E(RB3LYP) =  -495.844849003     A.U. after   13 cycles
 SCF Done:  E(RB3LYP) =  -495.813749934     A.U. after   13 cycles
 SCF Done:  E(RB3LYP) =  -495.844873355     A.U. after   13 cycles
 SCF Done:  E(RB3LYP) =  -495.845311556     A.U. after   12 cycles
 SCF Done:  E(RB3LYP) =  -495.845641789     A.U. after   12 cycles
 SCF Done:  E(RB3LYP) =  -495.845547691     A.U. after   12 cycles
 SCF Done:  E(RB3LYP) =  -495.845671962     A.U. after   11 cycles
 SCF Done:  E(RB3LYP) =  -495.845705200     A.U. after   12 cycles
 SCF Done:  E(RB3LYP) =  -495.845717965     A.U. after   10 cycles
 SCF Done:  E(RB3LYP) =  -495.845718986     A.U. after    8 cycles
 SCF Done:  E(RB3LYP) =  -495.845719341     A.U. after    8 cycles
 SCF Done:  E(RB3LYP) =  -495.845719536     A.U. after    8 cycles
 SCF Done:  E(RB3LYP) =  -495.845719588     A.U. after    8 cycles
 SCF Done:  E(RB3LYP) =  -495.845719597     A.U. after    7 cycles
 Optimization completed.
    -- Stationary point found.

                         Standard orientation:
 ---------------------------------------------------------------------
 Center     Atomic      Atomic             Coordinates (Angstroms)
 Number     Number       Type             X           Y           Z
 ---------------------------------------------------------------------
      1          1           0       -3.862425   -1.664649    0.041825
      2          6           0       -2.981701   -1.389807    0.625825
      3          1           0       -2.399785   -2.288527    0.854971
      4          1           0       -3.329079   -0.953366    1.570161
      5          6           0       -2.187243   -0.347123   -0.148073
      6          8           0       -2.718922    0.472054   -0.881331
      7          7           0       -0.814840   -0.417672    0.017704
      8          1           0       -0.516118   -0.932718    0.839500
      9          6           0        0.042941    0.736485   -0.310511
     10          1           0       -0.063053    0.910490   -1.388738
     11          6           0       -0.340919    2.018912    0.436062
     12          1           0       -0.269789    1.871376    1.519614
     13          1           0        0.347956    2.821501    0.164577
     14          1           0       -1.360835    2.307495    0.176191
     15          6           0        1.518800    0.382593   -0.032048
     16          8           0        2.333099    1.232083    0.301905
     17          7           0        1.836402   -0.940332   -0.185121
     18          1           0        1.142183   -1.535350   -0.617611
     19          6           0        3.207850   -1.414383   -0.097059
     20          1           0        3.770270   -0.698807    0.503986
     21          1           0        3.236746   -2.397785    0.382597
     22          1           0        3.681224   -1.486794   -1.084934
 ---------------------------------------------------------------------

 The electronic state is 1-A.
 Alpha  occ. eigenvalues --  -19.11942 -19.11645 -14.36756 -14.36755 -10.29491
 Alpha  occ. eigenvalues --  -10.29036 -10.23760 -10.22331 -10.19901 -10.17117
 Alpha  occ. eigenvalues --   -1.04017  -1.03478  -0.93641  -0.91625  -0.77870
 Alpha  occ. eigenvalues --   -0.73076  -0.71544  -0.64107  -0.58794  -0.58021
 Alpha  occ. eigenvalues --   -0.53745  -0.48189  -0.47998  -0.46675  -0.45478
 Alpha  occ. eigenvalues --   -0.44683  -0.42421  -0.41712  -0.40328  -0.40276
 Alpha  occ. eigenvalues --   -0.39426  -0.38169  -0.36688  -0.36226  -0.34724
 Alpha  occ. eigenvalues --   -0.26969  -0.26254  -0.25702  -0.24774
 Alpha virt. eigenvalues --    0.01009   0.02365   0.06812   0.09525   0.12259
 Alpha virt. eigenvalues --    0.12636   0.13027   0.14523   0.14978   0.15324
 Alpha virt. eigenvalues --    0.16712   0.17352   0.17764   0.18409   0.19902

 Mulliken atomic charges:
              1
     1  H    0.191368
     2  C   -0.544717
     3  H    0.152484
     4  H    0.183528
     5  C    0.594632
     6  O   -0.491428
     7  N   -0.624367
     8  H    0.322405
     9  C   -0.036242
    10  H    0.190949
    11  C   -0.449506
    12  H    0.138846
    13  H    0.175753
    14  H    0.178063
    15  C    0.578379
    16  O   -0.512275
    17  N   -0.594111
    18  H    0.335078
    19  C   -0.307664
    20  H    0.202297
    21  H    0.154368
    22  H    0.162162
 Sum of Mulliken atomic charges =   0.00000

 Dipole moment (field-independent basis, Debye):
    X=              0.3804    Y=             -4.3203    Z=              1.1796  Tot=              4.4946
 Quadrupole moment (field-independent basis, Debye-Ang):
   XX=            -66.9235   YY=            -58.3154   ZZ=            -59.5792
   XY=             -2.8984   XZ=             -7.7569   YZ=             -0.4397

 Normal termination of Gaussian 09 at Fri Feb 10 21:15:29 2017.
