 Gaussian 09, Revision A.02,
 Gaussian 09:  EM64L-G09RevA.02 11-Jun-2009

 ----------------------------------------------------------------------
 # b3lyp/6-31G* Opt=(ModRedundant, maxcycles=1000, calcfc) geom=nocrowd
 ----------------------------------------------------------------------

 ------------------
 Phi Psi fixed scan
 ------------------
 Symbolic Z-matrix:
 Charge =  0 Multiplicity = 1

 SCF Done:  E(RB3LYP) =  -495.841534009     A.U. after   14 cycles

  Exact polarizability:   0.000   0.000   0.000   0.000   0.000   0.000
 Approx polarizability: 121.834   1.085 129.973   1.793  -8.889  82.551

 SCF Done:  E(RB3LYP) =  -495.845415656     A.U. after   12 cycles
 SCF Done:  E(RB3LYP) =  -495.849228410     A.U. after   12 cycles
 SCF Done:  E(RB3LYP) =  -495.849709887     A.U. after   12 cycles
 SCF Done:  E(RB3LYP) =  -495.674236647     A.U. after   16 cycles
 SCF Done:  E(RB3LYP) =  -495.740835383     A.U. after   15 cycles
 SCF Done:  E(RB3LYP) =  -495.789422640     A.U. after   13 cycles
 SCF Done:  E(RB3LYP) =  -495.813947524     A.U. after   13 cycles
 SCF Done:  E(RB3LYP) =  -495.829722249     A.U. after   12 cycles
 SCF Done:  E(RB3LYP) =  -495.840310732     A.U. after   13 cycles
 SCF Done:  E(RB3LYP) =  -495.850045432     A.U. after   11 cycles
 SCF Done:  E(RB3LYP) =  -495.850082753     A.U. after   11 cycles
 SCF Done:  E(RB3LYP) =  -495.850097792     A.U. after   10 cycles
 SCF Done:  E(RB3LYP) =  -495.850118614     A.U. after   11 cycles
 SCF Done:  E(RB3LYP) =  -495.850126487     A.U. after   10 cycles
 SCF Done:  E(RB3LYP) =  -495.850127010     A.U. after    9 cycles
 SCF Done:  E(RB3LYP) =  -495.850127221     A.U. after    7 cycles
 SCF Done:  E(RB3LYP) =  -495.850127280     A.U. after    7 cycles
 SCF Done:  E(RB3LYP) =  -495.850127288     A.U. after    6 cycles
 SCF Done:  E(RB3LYP) =  -495.850127281     A.U. after    6 cycles
 Optimization completed.
    -- Stationary point found.

                         Standard orientation:
 ---------------------------------------------------------------------
 Center     Atomic      Atomic             Coordinates (Angstroms)
 Number     Number       Type             X           Y           Z
 ---------------------------------------------------------------------
      1          1           0       -4.009451   -1.334053   -0.524583
      2          6           0       -3.315952   -1.169372    0.305760
      3          1           0       -2.825511   -2.115059    0.555837
      4          1           0       -3.909380   -0.839289    1.164327
      5          6           0       -2.348571   -0.056684   -0.077591
      6          8           0       -2.748333    1.056430   -0.409877
      7          7           0       -1.030908   -0.397059   -0.024693
      8          1           0       -0.741700   -1.351002    0.161351
      9          6           0        0.068023    0.498986   -0.343533
     10          1           0        0.016550    0.782494   -1.406651
     11          6           0        0.037490    1.784199    0.504855
     12          1           0        0.217055    1.558561    1.561146
     13          1           0        0.787611    2.509336    0.166669
     14          1           0       -0.943421    2.248952    0.399202
     15          6           0        1.354687   -0.335102   -0.137548
     16          8           0        1.307277   -1.559930   -0.037058
     17          7           0        2.514349    0.367843   -0.068652
     18          1           0        2.476923    1.372267   -0.154623
     19          6           0        3.813481   -0.268155    0.075254
     20          1           0        3.643769   -1.336679    0.209899
     21          1           0        4.433287   -0.112937   -0.815845
     22          1           0        4.343681    0.126695    0.948982
 ---------------------------------------------------------------------

 The electronic state is 1-A.
 Alpha  occ. eigenvalues --  -19.12632 -19.09780 -14.37569 -14.34881 -10.29859
 Alpha  occ. eigenvalues --  -10.27825 -10.24121 -10.22789 -10.18474 -10.18333
 Alpha  occ. eigenvalues --   -1.04675  -1.01720  -0.93385  -0.91395  -0.78062
 Alpha  occ. eigenvalues --   -0.72656  -0.70970  -0.65376  -0.59984  -0.56683
 Alpha  occ. eigenvalues --   -0.53722  -0.49113  -0.47509  -0.46030  -0.45296
 Alpha  occ. eigenvalues --   -0.44124  -0.42851  -0.41332  -0.40253  -0.40021
 Alpha  occ. eigenvalues --   -0.38792  -0.38379  -0.37326  -0.36849  -0.33950
 Alpha  occ. eigenvalues --   -0.26878  -0.26512  -0.24430  -0.23675
 Alpha virt. eigenvalues --    0.01579   0.03828   0.06408   0.10215   0.11210
 Alpha virt. eigenvalues --    0.13334   0.14139   0.14796   0.15271   0.15681
 Alpha virt. eigenvalues --    0.15938   0.18284   0.18459   0.19782   0.20088

 Mulliken atomic charges:
              1
     1  H    0.181695
     2  C   -0.533405
     3  H    0.148901
     4  H    0.180984
     5  C    0.599707
     6  O   -0.523864
     7  N   -0.618523
     8  H    0.351938
     9  C   -0.010579
    10  H    0.175491
    11  C   -0.474036
    12  H    0.155105
    13  H    0.125845
    14  H    0.214940
    15  C    0.598303
    16  O   -0.530953
    17  N   -0.594129
    18  H    0.333269
    19  C   -0.313463
    20  H    0.207850
    21  H    0.162806
    22  H    0.162119
 Sum of Mulliken atomic charges =   0.00000

 Dipole moment (field-independent basis, Debye):
    X=              3.5326    Y=              0.4673    Z=              0.5872  Tot=              3.6114
 Quadrupole moment (field-independent basis, Debye-Ang):
   XX=            -55.5335   YY=            -62.5639   ZZ=            -59.7441
   XY=             12.5899   XZ=             -2.8667   YZ=              0.2146

 Normal termination of Gaussian 09 at Fri Feb 10 21:14:06 2017.
