 Gaussian 09, Revision A.02,
 Gaussian 09:  EM64L-G09RevA.02 11-Jun-2009

 ----------------------------------------------------------------------
 # b3lyp/6-31G* Opt=(ModRedundant, maxcycles=1000, calcfc) geom=nocrowd
 ----------------------------------------------------------------------

 ------------------
 Phi Psi fixed scan
 ------------------
 Symbolic Z-matrix:
 Charge =  0 Multiplicity = 1

 SCF Done:  E(RB3LYP) =  -495.836042638     A.U. after   15 cycles

  Exact polarizability:   0.000   0.000   0.000   0.000   0.000   0.000
 Approx polarizability: 119.645  -3.244 125.549   9.460  -0.407  90.146

 SCF Done:  E(RB3LYP) =  -495.839886719     A.U. after   12 cycles
 SCF Done:  E(RB3LYP) =  -495.843794014     A.U. after   12 cycles
 SCF Done:  E(RB3LYP) =  -495.844867250     A.U. after   12 cycles
 SCF Done:  E(RB3LYP) =  -495.839505648     A.U. after   14 cycles
 SCF Done:  E(RB3LYP) =  -495.844969366     A.U. after   13 cycles
 SCF Done:  E(RB3LYP) =  -495.845610691     A.U. after   12 cycles
 SCF Done:  E(RB3LYP) =  -495.845689435     A.U. after   12 cycles
 SCF Done:  E(RB3LYP) =  -495.845181567     A.U. after   13 cycles
 SCF Done:  E(RB3LYP) =  -495.845711129     A.U. after   13 cycles
 SCF Done:  E(RB3LYP) =  -495.845733362     A.U. after   11 cycles
 SCF Done:  E(RB3LYP) =  -495.845734911     A.U. after    9 cycles
 SCF Done:  E(RB3LYP) =  -495.845735379     A.U. after    8 cycles
 SCF Done:  E(RB3LYP) =  -495.845735752     A.U. after    7 cycles
 SCF Done:  E(RB3LYP) =  -495.845736512     A.U. after    9 cycles
 SCF Done:  E(RB3LYP) =  -495.845737244     A.U. after    9 cycles
 SCF Done:  E(RB3LYP) =  -495.845737262     A.U. after    7 cycles
 Optimization completed on the basis of negligible forces.
    -- Stationary point found.

                         Standard orientation:
 ---------------------------------------------------------------------
 Center     Atomic      Atomic             Coordinates (Angstroms)
 Number     Number       Type             X           Y           Z
 ---------------------------------------------------------------------
      1          1           0       -3.845666   -1.690392    0.126334
      2          6           0       -2.980170   -1.362578    0.705713
      3          1           0       -2.393841   -2.234946    1.012515
      4          1           0       -3.351145   -0.861581    1.608031
      5          6           0       -2.181062   -0.370584   -0.127989
      6          8           0       -2.706114    0.383089   -0.933600
      7          7           0       -0.814431   -0.406190    0.073941
      8          1           0       -0.515465   -0.875768    0.921614
      9          6           0        0.044888    0.719138   -0.341899
     10          1           0       -0.035218    0.791217   -1.433711
     11          6           0       -0.359413    2.058886    0.278611
     12          1           0       -0.294343    2.014102    1.370689
     13          1           0        0.320402    2.844454   -0.059893
     14          1           0       -1.379744    2.309045   -0.017198
     15          6           0        1.507312    0.377571    0.017705
     16          8           0        2.261310    1.190209    0.534935
     17          7           0        1.882106   -0.895087   -0.312743
     18          1           0        1.200394   -1.479217   -0.777735
     19          6           0        3.237176   -1.386943   -0.137402
     20          1           0        3.793342   -0.625057    0.410405
     21          1           0        3.245065   -2.322062    0.434223
     22          1           0        3.728540   -1.560174   -1.102776
 ---------------------------------------------------------------------

 The electronic state is 1-A.
 Alpha  occ. eigenvalues --  -19.11791 -19.11693 -14.36728 -14.36725 -10.29382
 Alpha  occ. eigenvalues --  -10.29011 -10.23710 -10.22325 -10.19823 -10.16970
 Alpha  occ. eigenvalues --   -1.03937  -1.03410  -0.93495  -0.91666  -0.77839
 Alpha  occ. eigenvalues --   -0.73029  -0.71549  -0.64035  -0.58692  -0.58136
 Alpha  occ. eigenvalues --   -0.53629  -0.48187  -0.48032  -0.46669  -0.45416
 Alpha  occ. eigenvalues --   -0.44825  -0.42298  -0.41661  -0.40233  -0.40080
 Alpha  occ. eigenvalues --   -0.39352  -0.38035  -0.36622  -0.36373  -0.34716
 Alpha  occ. eigenvalues --   -0.26832  -0.25939  -0.25710  -0.24800
 Alpha virt. eigenvalues --    0.01052   0.02425   0.07035   0.09146   0.11981
 Alpha virt. eigenvalues --    0.12654   0.12909   0.14689   0.15436   0.15634
 Alpha virt. eigenvalues --    0.16469   0.17276   0.17756   0.18550   0.19932

 Mulliken atomic charges:
              1
     1  H    0.190713
     2  C   -0.544239
     3  H    0.152352
     4  H    0.183654
     5  C    0.594523
     6  O   -0.493939
     7  N   -0.619529
     8  H    0.323930
     9  C   -0.032610
    10  H    0.184172
    11  C   -0.445185
    12  H    0.143580
    13  H    0.167952
    14  H    0.176903
    15  C    0.568747
    16  O   -0.510215
    17  N   -0.586308
    18  H    0.334551
    19  C   -0.310546
    20  H    0.204983
    21  H    0.155312
    22  H    0.161198
 Sum of Mulliken atomic charges =   0.00000

 Dipole moment (field-independent basis, Debye):
    X=              0.5547    Y=             -4.1342    Z=              0.9602  Tot=              4.2803
 Quadrupole moment (field-independent basis, Debye-Ang):
   XX=            -66.2300   YY=            -58.2398   ZZ=            -59.8663
   XY=             -3.0206   XZ=             -9.1006   YZ=             -1.0254

 Normal termination of Gaussian 09 at Fri Feb 10 21:14:28 2017.
