 Gaussian 09, Revision A.02,
 Gaussian 09:  EM64L-G09RevA.02 11-Jun-2009

 ----------------------------------------------------------------------
 # b3lyp/6-31G* Opt=(ModRedundant, maxcycles=1000, calcfc) geom=nocrowd
 ----------------------------------------------------------------------

 ------------------
 Phi Psi fixed scan
 ------------------
 Symbolic Z-matrix:
 Charge =  0 Multiplicity = 1

 SCF Done:  E(RB3LYP) =  -495.835705719     A.U. after   15 cycles

  Exact polarizability:   0.000   0.000   0.000   0.000   0.000   0.000
 Approx polarizability: 117.655   9.688 113.305   5.941 -10.808 104.056

 SCF Done:  E(RB3LYP) =  -495.838738814     A.U. after   12 cycles
 SCF Done:  E(RB3LYP) =  -495.841855804     A.U. after   12 cycles
 SCF Done:  E(RB3LYP) =  -495.842272537     A.U. after   16 cycles
 SCF Done:  E(RB3LYP) =  -495.752621343     A.U. after   14 cycles
 SCF Done:  E(RB3LYP) =  -495.777245243     A.U. after   12 cycles
 SCF Done:  E(RB3LYP) =  -495.796920682     A.U. after   12 cycles
 SCF Done:  E(RB3LYP) =  -495.812297320     A.U. after   12 cycles
 SCF Done:  E(RB3LYP) =  -495.823985575     A.U. after   12 cycles
 SCF Done:  E(RB3LYP) =  -495.832563438     A.U. after   12 cycles
 SCF Done:  E(RB3LYP) =  -495.842483677     A.U. after   12 cycles
 SCF Done:  E(RB3LYP) =  -495.842564570     A.U. after   12 cycles
 SCF Done:  E(RB3LYP) =  -495.842599298     A.U. after   11 cycles
 SCF Done:  E(RB3LYP) =  -495.842631795     A.U. after   11 cycles
 SCF Done:  E(RB3LYP) =  -495.842641584     A.U. after   12 cycles
 SCF Done:  E(RB3LYP) =  -495.842642586     A.U. after   10 cycles
 SCF Done:  E(RB3LYP) =  -495.842642938     A.U. after    9 cycles
 SCF Done:  E(RB3LYP) =  -495.842643282     A.U. after    9 cycles
 SCF Done:  E(RB3LYP) =  -495.842643484     A.U. after    8 cycles
 SCF Done:  E(RB3LYP) =  -495.842643525     A.U. after    7 cycles
 Optimization completed.
    -- Stationary point found.

                         Standard orientation:
 ---------------------------------------------------------------------
 Center     Atomic      Atomic             Coordinates (Angstroms)
 Number     Number       Type             X           Y           Z
 ---------------------------------------------------------------------
      1          1           0        3.728850   -1.561734   -0.737603
      2          6           0        3.021213   -1.540883    0.095371
      3          1           0        3.605400   -1.567641    1.021640
      4          1           0        2.389627   -2.433991    0.051994
      5          6           0        2.244006   -0.230940    0.038643
      6          8           0        2.805590    0.842977   -0.131387
      7          7           0        0.886598   -0.356228    0.199202
      8          1           0        0.537289   -1.254613    0.503146
      9          6           0       -0.038002    0.782349    0.309854
     10          1           0        0.170032    1.339382    1.229930
     11          6           0        0.049599    1.746957   -0.884577
     12          1           0       -0.118158    1.226901   -1.834635
     13          1           0       -0.712062    2.526790   -0.778025
     14          1           0        1.037099    2.206802   -0.917164
     15          6           0       -1.468041    0.235362    0.478570
     16          8           0       -2.153428    0.509264    1.454586
     17          7           0       -1.905121   -0.547066   -0.554518
     18          1           0       -1.289328   -0.682760   -1.343936
     19          6           0       -3.249577   -1.093856   -0.612584
     20          1           0       -3.734016   -0.867865    0.338206
     21          1           0       -3.830780   -0.640321   -1.424772
     22          1           0       -3.226771   -2.179755   -0.758832
 ---------------------------------------------------------------------

 The electronic state is 1-A.
 Alpha  occ. eigenvalues --  -19.11738 -19.11197 -14.37050 -14.36709 -10.29141
 Alpha  occ. eigenvalues --  -10.29085 -10.23771 -10.22501 -10.19585 -10.18203
 Alpha  occ. eigenvalues --   -1.03825  -1.03078  -0.93420  -0.91856  -0.78315
 Alpha  occ. eigenvalues --   -0.73147  -0.71275  -0.65110  -0.59051  -0.57790
 Alpha  occ. eigenvalues --   -0.53909  -0.50198  -0.47334  -0.45814  -0.45159
 Alpha  occ. eigenvalues --   -0.44345  -0.42868  -0.41485  -0.40868  -0.40027
 Alpha  occ. eigenvalues --   -0.39382  -0.38395  -0.37726  -0.36415  -0.34875
 Alpha  occ. eigenvalues --   -0.26598  -0.25877  -0.25382  -0.24482
 Alpha virt. eigenvalues --    0.01423   0.02627   0.06509   0.08036   0.11423
 Alpha virt. eigenvalues --    0.12568   0.13565   0.15136   0.15359   0.15816
 Alpha virt. eigenvalues --    0.16194   0.17654   0.17940   0.18486   0.20063

 Mulliken atomic charges:
              1
     1  H    0.187871
     2  C   -0.538413
     3  H    0.187420
     4  H    0.143495
     5  C    0.600014
     6  O   -0.503167
     7  N   -0.629272
     8  H    0.329504
     9  C    0.001280
    10  H    0.179851
    11  C   -0.461386
    12  H    0.131336
    13  H    0.158963
    14  H    0.207347
    15  C    0.547339
    16  O   -0.506866
    17  N   -0.578443
    18  H    0.329968
    19  C   -0.311208
    20  H    0.206298
    21  H    0.162006
    22  H    0.156060
 Sum of Mulliken atomic charges =   0.00000

 Dipole moment (field-independent basis, Debye):
    X=             -1.0167    Y=             -3.7192    Z=             -2.3863  Tot=              4.5344
 Quadrupole moment (field-independent basis, Debye-Ang):
   XX=            -66.2912   YY=            -57.2878   ZZ=            -61.5959
   XY=             -3.2707   XZ=              8.3328   YZ=             -0.8254

 Normal termination of Gaussian 09 at Fri Feb 10 21:34:39 2017.
