 Gaussian 09, Revision A.02,
 Gaussian 09:  EM64L-G09RevA.02 11-Jun-2009

 ----------------------------------------------------------------------
 # b3lyp/6-31G* Opt=(ModRedundant, maxcycles=1000, calcfc) geom=nocrowd
 ----------------------------------------------------------------------

 ------------------
 Phi Psi fixed scan
 ------------------
 Symbolic Z-matrix:
 Charge =  0 Multiplicity = 1

 SCF Done:  E(RB3LYP) =  -495.828491149     A.U. after   16 cycles

  Exact polarizability:   0.000   0.000   0.000   0.000   0.000   0.000
 Approx polarizability: 121.901  -4.384 128.843   2.321  11.826  84.423

 SCF Done:  E(RB3LYP) =  -495.833293278     A.U. after   12 cycles
 SCF Done:  E(RB3LYP) =  -495.839376416     A.U. after   13 cycles
 SCF Done:  E(RB3LYP) =  -495.823975027     A.U. after   13 cycles
 SCF Done:  E(RB3LYP) =  -495.834109502     A.U. after   16 cycles
 SCF Done:  E(RB3LYP) =  -495.839088978     A.U. after   12 cycles
 SCF Done:  E(RB3LYP) =  -495.839783826     A.U. after   12 cycles
 SCF Done:  E(RB3LYP) =  -495.840790366     A.U. after   12 cycles
 SCF Done:  E(RB3LYP) =  -495.841761688     A.U. after   13 cycles
 SCF Done:  E(RB3LYP) =  -495.842036537     A.U. after   12 cycles
 SCF Done:  E(RB3LYP) =  -495.842325512     A.U. after   14 cycles
 SCF Done:  E(RB3LYP) =  -495.842612772     A.U. after   12 cycles
 SCF Done:  E(RB3LYP) =  -495.842564470     A.U. after   12 cycles
 SCF Done:  E(RB3LYP) =  -495.842626076     A.U. after   11 cycles
 SCF Done:  E(RB3LYP) =  -495.842639628     A.U. after   10 cycles
 SCF Done:  E(RB3LYP) =  -495.842644069     A.U. after   10 cycles
 SCF Done:  E(RB3LYP) =  -495.842643688     A.U. after   10 cycles
 SCF Done:  E(RB3LYP) =  -495.842644834     A.U. after    8 cycles
 SCF Done:  E(RB3LYP) =  -495.842645286     A.U. after    9 cycles
 SCF Done:  E(RB3LYP) =  -495.842645318     A.U. after    7 cycles
 Optimization completed.
    -- Stationary point found.

                         Standard orientation:
 ---------------------------------------------------------------------
 Center     Atomic      Atomic             Coordinates (Angstroms)
 Number     Number       Type             X           Y           Z
 ---------------------------------------------------------------------
      1          1           0       -3.808372   -1.533125    0.611323
      2          6           0       -2.990764   -1.563172   -0.112973
      3          1           0       -3.437579   -1.671606   -1.107904
      4          1           0       -2.363112   -2.437165    0.087834
      5          6           0       -2.235876   -0.240430   -0.046672
      6          8           0       -2.820777    0.827761    0.042406
      7          7           0       -0.859231   -0.364009   -0.088729
      8          1           0       -0.533628   -1.233601   -0.495281
      9          6           0        0.043125    0.776592   -0.308599
     10          1           0       -0.133035    1.221476   -1.296524
     11          6           0       -0.121639    1.873150    0.759724
     12          1           0        0.036111    1.456992    1.761524
     13          1           0        0.626480    2.649981    0.579758
     14          1           0       -1.121992    2.301330    0.712414
     15          6           0        1.514824    0.330444   -0.304125
     16          8           0        2.382054    1.057557   -0.767011
     17          7           0        1.778450   -0.918092    0.202382
     18          1           0        1.085570   -1.306990    0.829659
     19          6           0        3.155737   -1.363632    0.366930
     20          1           0        3.727356   -1.042667   -0.504866
     21          1           0        3.627817   -0.935637    1.260893
     22          1           0        3.177194   -2.454536    0.436736
 ---------------------------------------------------------------------

 The electronic state is 1-A.
 Alpha  occ. eigenvalues --  -19.11881 -19.11724 -14.37049 -14.36833 -10.29592
 Alpha  occ. eigenvalues --  -10.29090 -10.23848 -10.22474 -10.19866 -10.17540
 Alpha  occ. eigenvalues --   -1.04042  -1.03538  -0.93816  -0.91758  -0.78179
 Alpha  occ. eigenvalues --   -0.73153  -0.71415  -0.64492  -0.59061  -0.57044
 Alpha  occ. eigenvalues --   -0.54153  -0.50378  -0.47554  -0.45908  -0.45580
 Alpha  occ. eigenvalues --   -0.44521  -0.42812  -0.41506  -0.40717  -0.39844
 Alpha  occ. eigenvalues --   -0.39697  -0.38016  -0.37220  -0.35902  -0.34817
 Alpha  occ. eigenvalues --   -0.27197  -0.26581  -0.25778  -0.24531
 Alpha virt. eigenvalues --    0.01166   0.02134   0.06020   0.09569   0.12321
 Alpha virt. eigenvalues --    0.12630   0.13261   0.14173   0.15051   0.15461
 Alpha virt. eigenvalues --    0.16890   0.17866   0.18138   0.18354   0.20172

 Mulliken atomic charges:
              1
     1  H    0.191348
     2  C   -0.541574
     3  H    0.185479
     4  H    0.146182
     5  C    0.594767
     6  O   -0.489614
     7  N   -0.637980
     8  H    0.325244
     9  C   -0.010621
    10  H    0.176956
    11  C   -0.458012
    12  H    0.138561
    13  H    0.171289
    14  H    0.202116
    15  C    0.576360
    16  O   -0.512747
    17  N   -0.600300
    18  H    0.330898
    19  C   -0.303807
    20  H    0.197583
    21  H    0.164769
    22  H    0.153103
 Sum of Mulliken atomic charges =   0.00000

 Dipole moment (field-independent basis, Debye):
    X=              0.3713    Y=             -4.7135    Z=              1.0376  Tot=              4.8406
 Quadrupole moment (field-independent basis, Debye-Ang):
   XX=            -68.3214   YY=            -58.1893   ZZ=            -59.2090
   XY=              0.1300   XZ=              5.2970   YZ=              0.8678

 Normal termination of Gaussian 09 at Fri Feb 10 21:21:23 2017.
