 Gaussian 09, Revision A.02,
 Gaussian 09:  EM64L-G09RevA.02 11-Jun-2009

 ----------------------------------------------------------------------
 # b3lyp/6-31G* Opt=(ModRedundant, maxcycles=1000, calcfc) geom=nocrowd
 ----------------------------------------------------------------------

 ------------------
 Phi Psi fixed scan
 ------------------
 Symbolic Z-matrix:
 Charge =  0 Multiplicity = 1

 SCF Done:  E(RB3LYP) =  -495.834528796     A.U. after   15 cycles

  Exact polarizability:   0.000   0.000   0.000   0.000   0.000   0.000
 Approx polarizability: 121.275  -1.096 126.500   6.960  -1.335  88.521

 SCF Done:  E(RB3LYP) =  -495.839478767     A.U. after   12 cycles
 SCF Done:  E(RB3LYP) =  -495.844852187     A.U. after   12 cycles
 SCF Done:  E(RB3LYP) =  -495.846101826     A.U. after   12 cycles
 SCF Done:  E(RB3LYP) =  -495.845474681     A.U. after   12 cycles
 SCF Done:  E(RB3LYP) =  -495.846284987     A.U. after   12 cycles
 SCF Done:  E(RB3LYP) =  -495.846653181     A.U. after   12 cycles
 SCF Done:  E(RB3LYP) =  -495.846424334     A.U. after   12 cycles
 SCF Done:  E(RB3LYP) =  -495.846848593     A.U. after   12 cycles
 SCF Done:  E(RB3LYP) =  -495.846668015     A.U. after   11 cycles
 SCF Done:  E(RB3LYP) =  -495.846851528     A.U. after   11 cycles
 SCF Done:  E(RB3LYP) =  -495.846912590     A.U. after   11 cycles
 SCF Done:  E(RB3LYP) =  -495.846953003     A.U. after   11 cycles
 SCF Done:  E(RB3LYP) =  -495.846990243     A.U. after   11 cycles
 SCF Done:  E(RB3LYP) =  -495.847015396     A.U. after   11 cycles
 SCF Done:  E(RB3LYP) =  -495.847033181     A.U. after    9 cycles
 SCF Done:  E(RB3LYP) =  -495.847038621     A.U. after   10 cycles
 SCF Done:  E(RB3LYP) =  -495.847039512     A.U. after    7 cycles
 SCF Done:  E(RB3LYP) =  -495.847039729     A.U. after    7 cycles
 SCF Done:  E(RB3LYP) =  -495.847039768     A.U. after    6 cycles
 Optimization completed.
    -- Stationary point found.

                         Standard orientation:
 ---------------------------------------------------------------------
 Center     Atomic      Atomic             Coordinates (Angstroms)
 Number     Number       Type             X           Y           Z
 ---------------------------------------------------------------------
      1          1           0       -3.820111   -0.867994    1.357295
      2          6           0       -3.227065   -1.219852    0.507748
      3          1           0       -3.926497   -1.466795   -0.297359
      4          1           0       -2.686274   -2.124434    0.801762
      5          6           0       -2.323470   -0.084805    0.041147
      6          8           0       -2.781936    1.009582   -0.271615
      7          7           0       -0.991527   -0.389738    0.013515
      8          1           0       -0.709121   -1.361532    0.065975
      9          6           0        0.057078    0.493547   -0.495434
     10          1           0       -0.068893    0.628620   -1.581463
     11          6           0        0.032601    1.875361    0.170858
     12          1           0        0.223172    1.797945    1.247341
     13          1           0        0.778187    2.538692   -0.284977
     14          1           0       -0.950883    2.322781    0.027925
     15          6           0        1.365751   -0.309326   -0.304318
     16          8           0        1.388870   -1.506895   -0.584381
     17          7           0        2.430577    0.351261    0.216511
     18          1           0        2.335165    1.331112    0.434585
     19          6           0        3.721483   -0.284693    0.421492
     20          1           0        3.602207   -1.347325    0.208134
     21          1           0        4.482883    0.132819   -0.248191
     22          1           0        4.053077   -0.157438    1.457800
 ---------------------------------------------------------------------

 The electronic state is 1-A.
 Alpha  occ. eigenvalues --  -19.12087 -19.10209 -14.37551 -14.35317 -10.29589
 Alpha  occ. eigenvalues --  -10.28162 -10.24074 -10.22700 -10.18569 -10.18438
 Alpha  occ. eigenvalues --   -1.04282  -1.02073  -0.93232  -0.91619  -0.78155
 Alpha  occ. eigenvalues --   -0.72725  -0.70997  -0.65562  -0.59750  -0.56641
 Alpha  occ. eigenvalues --   -0.53692  -0.49778  -0.47344  -0.45690  -0.45409
 Alpha  occ. eigenvalues --   -0.44132  -0.42587  -0.41449  -0.40066  -0.39572
 Alpha  occ. eigenvalues --   -0.39213  -0.38362  -0.37668  -0.37090  -0.34214
 Alpha  occ. eigenvalues --   -0.26445  -0.26391  -0.24834  -0.23820
 Alpha virt. eigenvalues --    0.01547   0.03430   0.07294   0.09849   0.11325
 Alpha virt. eigenvalues --    0.13656   0.13782   0.14750   0.15012   0.15827
 Alpha virt. eigenvalues --    0.15907   0.17863   0.18408   0.18917   0.19893

 Mulliken atomic charges:
              1
     1  H    0.182926
     2  C   -0.534115
     3  H    0.182686
     4  H    0.148904
     5  C    0.597951
     6  O   -0.516665
     7  N   -0.616945
     8  H    0.347649
     9  C    0.014113
    10  H    0.174774
    11  C   -0.496700
    12  H    0.150265
    13  H    0.135046
    14  H    0.219563
    15  C    0.575947
    16  O   -0.530932
    17  N   -0.590670
    18  H    0.338014
    19  C   -0.314465
    20  H    0.207811
    21  H    0.163171
    22  H    0.161671
 Sum of Mulliken atomic charges =   0.00000

 Dipole moment (field-independent basis, Debye):
    X=              3.1857    Y=              0.4606    Z=              1.4907  Tot=              3.5473
 Quadrupole moment (field-independent basis, Debye-Ang):
   XX=            -56.9095   YY=            -62.0223   ZZ=            -59.7838
   XY=             12.4619   XZ=              0.4847   YZ=             -1.1871

 Normal termination of Gaussian 09 at Fri Feb 10 21:09:54 2017.
