 Gaussian 09, Revision A.02,
 Gaussian 09:  EM64L-G09RevA.02 11-Jun-2009

 ----------------------------------------------------------------------
 # b3lyp/6-31G* Opt=(ModRedundant, maxcycles=1000, calcfc) geom=nocrowd
 ----------------------------------------------------------------------

 ------------------
 Phi Psi fixed scan
 ------------------
 Symbolic Z-matrix:
 Charge =  0 Multiplicity = 1

 SCF Done:  E(RB3LYP) =  -495.837399637     A.U. after   14 cycles

  Exact polarizability:   0.000   0.000   0.000   0.000   0.000   0.000
 Approx polarizability: 122.137   0.432 129.085   4.500  -5.197  84.245

 SCF Done:  E(RB3LYP) =  -495.842118892     A.U. after   12 cycles
 SCF Done:  E(RB3LYP) =  -495.847041288     A.U. after   12 cycles
 SCF Done:  E(RB3LYP) =  -495.847967434     A.U. after   12 cycles
 SCF Done:  E(RB3LYP) =  -495.845768256     A.U. after   12 cycles
 SCF Done:  E(RB3LYP) =  -495.848128695     A.U. after   12 cycles
 SCF Done:  E(RB3LYP) =  -495.848396022     A.U. after   11 cycles
 SCF Done:  E(RB3LYP) =  -495.847158961     A.U. after   13 cycles
 SCF Done:  E(RB3LYP) =  -495.848542837     A.U. after   12 cycles
 SCF Done:  E(RB3LYP) =  -495.848612340     A.U. after   11 cycles
 SCF Done:  E(RB3LYP) =  -495.848645202     A.U. after   11 cycles
 SCF Done:  E(RB3LYP) =  -495.848682248     A.U. after   11 cycles
 SCF Done:  E(RB3LYP) =  -495.848716058     A.U. after   10 cycles
 SCF Done:  E(RB3LYP) =  -495.848739012     A.U. after   11 cycles
 SCF Done:  E(RB3LYP) =  -495.848743568     A.U. after   10 cycles
 SCF Done:  E(RB3LYP) =  -495.848744762     A.U. after    9 cycles
 SCF Done:  E(RB3LYP) =  -495.848745288     A.U. after    9 cycles
 Optimization completed.
    -- Stationary point found.

                         Standard orientation:
 ---------------------------------------------------------------------
 Center     Atomic      Atomic             Coordinates (Angstroms)
 Number     Number       Type             X           Y           Z
 ---------------------------------------------------------------------
      1          1           0       -3.869964   -0.850013    1.265963
      2          6           0       -3.276526   -1.191664    0.412256
      3          1           0       -3.973179   -1.398056   -0.406330
      4          1           0       -2.761037   -2.117322    0.685567
      5          6           0       -2.340232   -0.067241   -0.013135
      6          8           0       -2.770552    1.036874   -0.335138
      7          7           0       -1.015272   -0.390496   -0.000363
      8          1           0       -0.727820   -1.356714    0.106926
      9          6           0        0.064041    0.493766   -0.422047
     10          1           0       -0.022644    0.692600   -1.502699
     11          6           0        0.041649    1.839866    0.319335
     12          1           0        0.249601    1.706214    1.386423
     13          1           0        0.773328    2.538116   -0.106156
     14          1           0       -0.946249    2.286922    0.205937
     15          6           0        1.357815   -0.330949   -0.217903
     16          8           0        1.332158   -1.557260   -0.312186
     17          7           0        2.484996    0.364739    0.076876
     18          1           0        2.427742    1.367948    0.161422
     19          6           0        3.779200   -0.274288    0.249240
     20          1           0        3.628237   -1.350930    0.166972
     21          1           0        4.487345    0.050058   -0.522350
     22          1           0        4.198042   -0.042367    1.234842
 ---------------------------------------------------------------------

 The electronic state is 1-A.
 Alpha  occ. eigenvalues --  -19.12374 -19.09961 -14.37580 -14.35051 -10.29753
 Alpha  occ. eigenvalues --  -10.27965 -10.24135 -10.22751 -10.18475 -10.18417
 Alpha  occ. eigenvalues --   -1.04501  -1.01859  -0.93334  -0.91479  -0.78117
 Alpha  occ. eigenvalues --   -0.72677  -0.70980  -0.65513  -0.59909  -0.56592
 Alpha  occ. eigenvalues --   -0.53720  -0.49483  -0.47420  -0.45883  -0.45348
 Alpha  occ. eigenvalues --   -0.44105  -0.42720  -0.41402  -0.40025  -0.39939
 Alpha  occ. eigenvalues --   -0.38975  -0.38363  -0.37479  -0.37017  -0.34063
 Alpha  occ. eigenvalues --   -0.26693  -0.26448  -0.24603  -0.23732
 Alpha virt. eigenvalues --    0.01565   0.03678   0.06887   0.10144   0.11256
 Alpha virt. eigenvalues --    0.13480   0.13959   0.14725   0.15122   0.15761
 Alpha virt. eigenvalues --    0.15892   0.18107   0.18489   0.19306   0.20007

 Mulliken atomic charges:
              1
     1  H    0.181827
     2  C   -0.533558
     3  H    0.181957
     4  H    0.148958
     5  C    0.598784
     6  O   -0.520679
     7  N   -0.618236
     8  H    0.350629
     9  C    0.002336
    10  H    0.176462
    11  C   -0.489422
    12  H    0.153381
    13  H    0.130277
    14  H    0.218917
    15  C    0.588908
    16  O   -0.531655
    17  N   -0.593739
    18  H    0.335900
    19  C   -0.314306
    20  H    0.208171
    21  H    0.162733
    22  H    0.162354
 Sum of Mulliken atomic charges =   0.00000

 Dipole moment (field-independent basis, Debye):
    X=              3.4242    Y=              0.5039    Z=              1.0224  Tot=              3.6089
 Quadrupole moment (field-independent basis, Debye-Ang):
   XX=            -56.0972   YY=            -62.4126   ZZ=            -59.6962
   XY=             12.5898   XZ=             -1.1267   YZ=             -0.4404

 Normal termination of Gaussian 09 at Fri Feb 10 21:07:53 2017.
