 Gaussian 09, Revision A.02,
 Gaussian 09:  EM64L-G09RevA.02 11-Jun-2009

 ----------------------------------------------------------------------
 # b3lyp/6-31G* Opt=(ModRedundant, maxcycles=1000, calcfc) geom=nocrowd
 ----------------------------------------------------------------------

 ------------------
 Phi Psi fixed scan
 ------------------
 Symbolic Z-matrix:
 Charge =  0 Multiplicity = 1

 SCF Done:  E(RB3LYP) =  -495.833563267     A.U. after   15 cycles

  Exact polarizability:   0.000   0.000   0.000   0.000   0.000   0.000
 Approx polarizability: 116.813  11.953 106.917  -2.305   5.461 111.670

 SCF Done:  E(RB3LYP) =  -495.837023559     A.U. after   12 cycles
 SCF Done:  E(RB3LYP) =  -495.840624857     A.U. after   13 cycles
 SCF Done:  E(RB3LYP) =  -495.841051721     A.U. after   12 cycles
 SCF Done:  E(RB3LYP) =  -495.762701727     A.U. after   16 cycles
 SCF Done:  E(RB3LYP) =  -495.790761678     A.U. after   13 cycles
 SCF Done:  E(RB3LYP) =  -495.809767905     A.U. after   13 cycles
 SCF Done:  E(RB3LYP) =  -495.822677647     A.U. after   13 cycles
 SCF Done:  E(RB3LYP) =  -495.831350510     A.U. after   13 cycles
 SCF Done:  E(RB3LYP) =  -495.836450706     A.U. after   13 cycles
 SCF Done:  E(RB3LYP) =  -495.841257550     A.U. after   13 cycles
 SCF Done:  E(RB3LYP) =  -495.841348348     A.U. after   12 cycles
 SCF Done:  E(RB3LYP) =  -495.841401049     A.U. after   12 cycles
 SCF Done:  E(RB3LYP) =  -495.841423119     A.U. after   11 cycles
 SCF Done:  E(RB3LYP) =  -495.841434224     A.U. after   11 cycles
 SCF Done:  E(RB3LYP) =  -495.841436895     A.U. after   10 cycles
 SCF Done:  E(RB3LYP) =  -495.841438529     A.U. after   10 cycles
 SCF Done:  E(RB3LYP) =  -495.841439323     A.U. after    9 cycles
 SCF Done:  E(RB3LYP) =  -495.841439851     A.U. after    8 cycles
 SCF Done:  E(RB3LYP) =  -495.841440054     A.U. after    7 cycles
 Optimization completed.
    -- Stationary point found.

                         Standard orientation:
 ---------------------------------------------------------------------
 Center     Atomic      Atomic             Coordinates (Angstroms)
 Number     Number       Type             X           Y           Z
 ---------------------------------------------------------------------
      1          1           0        3.707250   -1.441038   -1.013726
      2          6           0        3.039063   -1.527935   -0.152624
      3          1           0        3.666214   -1.658086    0.735776
      4          1           0        2.411865   -2.416709   -0.274690
      5          6           0        2.253278   -0.229131   -0.014872
      6          8           0        2.806979    0.862363   -0.042988
      7          7           0        0.900416   -0.386677    0.145537
      8          1           0        0.560788   -1.321517    0.324520
      9          6           0       -0.034520    0.717451    0.414187
     10          1           0        0.170852    1.136959    1.405492
     11          6           0        0.053635    1.843219   -0.627616
     12          1           0       -0.057795    1.463527   -1.650282
     13          1           0       -0.735197    2.580209   -0.442517
     14          1           0        1.026716    2.329259   -0.562334
     15          6           0       -1.447597    0.106699    0.523696
     16          8           0       -1.996421   -0.041736    1.608570
     17          7           0       -2.015882   -0.261831   -0.661697
     18          1           0       -1.501102   -0.096374   -1.514224
     19          6           0       -3.342610   -0.846458   -0.749714
     20          1           0       -3.736330   -0.913494    0.265199
     21          1           0       -4.010198   -0.220858   -1.353790
     22          1           0       -3.306751   -1.850404   -1.189312
 ---------------------------------------------------------------------

 The electronic state is 1-A.
 Alpha  occ. eigenvalues --  -19.11730 -19.11010 -14.37038 -14.36568 -10.29085
 Alpha  occ. eigenvalues --  -10.28975 -10.23800 -10.22474 -10.19429 -10.18334
 Alpha  occ. eigenvalues --   -1.03805  -1.02912  -0.93171  -0.91947  -0.78284
 Alpha  occ. eigenvalues --   -0.73080  -0.71152  -0.65313  -0.59069  -0.57694
 Alpha  occ. eigenvalues --   -0.53804  -0.50181  -0.47273  -0.45687  -0.45039
 Alpha  occ. eigenvalues --   -0.44495  -0.42626  -0.41499  -0.40738  -0.40021
 Alpha  occ. eigenvalues --   -0.39191  -0.38379  -0.37934  -0.36576  -0.34803
 Alpha  occ. eigenvalues --   -0.26517  -0.25821  -0.25195  -0.24400
 Alpha virt. eigenvalues --    0.01547   0.02640   0.06630   0.07696   0.11338
 Alpha virt. eigenvalues --    0.12637   0.13539   0.15012   0.15749   0.15937
 Alpha virt. eigenvalues --    0.16247   0.17668   0.18014   0.18825   0.19874

 Mulliken atomic charges:
              1
     1  H    0.186825
     2  C   -0.537672
     3  H    0.187293
     4  H    0.143953
     5  C    0.600497
     6  O   -0.506008
     7  N   -0.624165
     8  H    0.332922
     9  C    0.009225
    10  H    0.179609
    11  C   -0.468052
    12  H    0.130646
    13  H    0.155637
    14  H    0.208385
    15  C    0.538769
    16  O   -0.505550
    17  N   -0.576321
    18  H    0.331511
    19  C   -0.312513
    20  H    0.206577
    21  H    0.161348
    22  H    0.157085
 Sum of Mulliken atomic charges =   0.00000

 Dipole moment (field-independent basis, Debye):
    X=             -1.4183    Y=             -2.6108    Z=             -3.0631  Tot=              4.2673
 Quadrupole moment (field-independent basis, Debye-Ang):
   XX=            -64.6327   YY=            -57.2824   ZZ=            -62.2035
   XY=             -6.1108   XZ=              8.0094   YZ=              0.4793

 Normal termination of Gaussian 09 at Fri Feb 10 21:18:55 2017.
