 Gaussian 09, Revision A.02,
 Gaussian 09:  EM64L-G09RevA.02 11-Jun-2009

 ----------------------------------------------------------------------
 # b3lyp/6-31G* Opt=(ModRedundant, maxcycles=1000, calcfc) geom=nocrowd
 ----------------------------------------------------------------------

 ------------------
 Phi Psi fixed scan
 ------------------
 Symbolic Z-matrix:
 Charge =  0 Multiplicity = 1

 SCF Done:  E(RB3LYP) =  -495.845440321     A.U. after   14 cycles

  Exact polarizability:   0.000   0.000   0.000   0.000   0.000   0.000
 Approx polarizability: 120.264  -0.345 126.249  -2.196 -15.569  86.852

 SCF Done:  E(RB3LYP) =  -495.848780471     A.U. after   12 cycles
 SCF Done:  E(RB3LYP) =  -495.851302073     A.U. after   13 cycles
 SCF Done:  E(RB3LYP) =  -495.851577273     A.U. after   12 cycles
 SCF Done:  E(RB3LYP) =  -495.851760105     A.U. after   12 cycles
 SCF Done:  E(RB3LYP) =  -495.851758686     A.U. after   12 cycles
 SCF Done:  E(RB3LYP) =  -495.851748704     A.U. after   12 cycles
 SCF Done:  E(RB3LYP) =  -495.851810360     A.U. after   12 cycles
 SCF Done:  E(RB3LYP) =  -495.851813470     A.U. after   10 cycles
 SCF Done:  E(RB3LYP) =  -495.851822049     A.U. after   11 cycles
 SCF Done:  E(RB3LYP) =  -495.851826006     A.U. after   10 cycles
 SCF Done:  E(RB3LYP) =  -495.851826193     A.U. after   10 cycles
 SCF Done:  E(RB3LYP) =  -495.851826484     A.U. after    9 cycles
 SCF Done:  E(RB3LYP) =  -495.851826484     A.U. after    6 cycles
 Optimization completed on the basis of negligible forces.
    -- Stationary point found.

                         Standard orientation:
 ---------------------------------------------------------------------
 Center     Atomic      Atomic             Coordinates (Angstroms)
 Number     Number       Type             X           Y           Z
 ---------------------------------------------------------------------
      1          1           0       -4.021684   -1.251558   -0.766908
      2          6           0       -3.348465   -1.158472    0.090361
      3          1           0       -2.889842   -2.131109    0.293031
      4          1           0       -3.957373   -0.866240    0.952224
      5          6           0       -2.340866   -0.053630   -0.197101
      6          8           0       -2.693715    1.075272   -0.527935
      7          7           0       -1.032268   -0.416332   -0.082291
      8          1           0       -0.764839   -1.327549    0.274103
      9          6           0        0.069728    0.521215   -0.191221
     10          1           0        0.060548    0.973042   -1.192231
     11          6           0        0.001200    1.648577    0.861267
     12          1           0        0.056850    1.227294    1.870675
     13          1           0        0.828311    2.356634    0.736169
     14          1           0       -0.941930    2.185216    0.746487
     15          6           0        1.357194   -0.301695   -0.001171
     16          8           0        1.332916   -1.430908    0.483441
     17          7           0        2.501261    0.326565   -0.380731
     18          1           0        2.430087    1.248658   -0.787104
     19          6           0        3.819446   -0.265499   -0.226029
     20          1           0        3.684159   -1.254190    0.213644
     21          1           0        4.319906   -0.369300   -1.195524
     22          1           0        4.449833    0.339590    0.435913
 ---------------------------------------------------------------------

 The electronic state is 1-A.
 Alpha  occ. eigenvalues --  -19.12676 -19.09793 -14.37602 -14.34889 -10.29785
 Alpha  occ. eigenvalues --  -10.27809 -10.23909 -10.22808 -10.18376 -10.18304
 Alpha  occ. eigenvalues --   -1.04655  -1.01763  -0.93393  -0.91411  -0.77975
 Alpha  occ. eigenvalues --   -0.72687  -0.71106  -0.64953  -0.59920  -0.57018
 Alpha  occ. eigenvalues --   -0.53639  -0.48554  -0.47408  -0.46248  -0.45185
 Alpha  occ. eigenvalues --   -0.44276  -0.43030  -0.41222  -0.40410  -0.40161
 Alpha  occ. eigenvalues --   -0.38694  -0.38355  -0.37000  -0.36631  -0.33938
 Alpha  occ. eigenvalues --   -0.26764  -0.26701  -0.24446  -0.23683
 Alpha virt. eigenvalues --    0.01597   0.03818   0.06322   0.09933   0.11377
 Alpha virt. eigenvalues --    0.13242   0.14285   0.14565   0.15502   0.15797
 Alpha virt. eigenvalues --    0.16561   0.18015   0.18351   0.18707   0.19558

 Mulliken atomic charges:
              1
     1  H    0.182568
     2  C   -0.533951
     3  H    0.149166
     4  H    0.180494
     5  C    0.599118
     6  O   -0.524586
     7  N   -0.614269
     8  H    0.348737
     9  C   -0.016018
    10  H    0.162447
    11  C   -0.455073
    12  H    0.156065
    13  H    0.130859
    14  H    0.204405
    15  C    0.601455
    16  O   -0.530304
    17  N   -0.591750
    18  H    0.331260
    19  C   -0.313309
    20  H    0.207547
    21  H    0.162754
    22  H    0.162387
 Sum of Mulliken atomic charges =   0.00000

 Dipole moment (field-independent basis, Debye):
    X=              3.3801    Y=              0.2611    Z=             -0.1968  Tot=              3.3959
 Quadrupole moment (field-independent basis, Debye-Ang):
   XX=            -54.9911   YY=            -62.3626   ZZ=            -59.9856
   XY=             12.2353   XZ=             -5.8064   YZ=              1.2030

 Normal termination of Gaussian 09 at Fri Feb 10 21:05:11 2017.
