 Gaussian 09, Revision A.02,
 Gaussian 09:  EM64L-G09RevA.02 11-Jun-2009

 ----------------------------------------------------------------------
 # b3lyp/6-31G* Opt=(ModRedundant, maxcycles=1000, calcfc) geom=nocrowd
 ----------------------------------------------------------------------

 ------------------
 Phi Psi fixed scan
 ------------------
 Symbolic Z-matrix:
 Charge =  0 Multiplicity = 1

 SCF Done:  E(RB3LYP) =  -495.834029284     A.U. after   16 cycles

  Exact polarizability:   0.000   0.000   0.000   0.000   0.000   0.000
 Approx polarizability: 120.912  -5.661 124.982   4.889  12.834  89.439

 SCF Done:  E(RB3LYP) =  -495.837447077     A.U. after   12 cycles
 SCF Done:  E(RB3LYP) =  -495.841711731     A.U. after   12 cycles
 SCF Done:  E(RB3LYP) =  -495.843357639     A.U. after   16 cycles
 SCF Done:  E(RB3LYP) =  -495.792189306     A.U. after   14 cycles
 SCF Done:  E(RB3LYP) =  -495.843372161     A.U. after   13 cycles
 SCF Done:  E(RB3LYP) =  -495.843605361     A.U. after   12 cycles
 SCF Done:  E(RB3LYP) =  -495.833704007     A.U. after   15 cycles
 SCF Done:  E(RB3LYP) =  -495.843735645     A.U. after   15 cycles
 SCF Done:  E(RB3LYP) =  -495.843806941     A.U. after   11 cycles
 SCF Done:  E(RB3LYP) =  -495.843793257     A.U. after   12 cycles
 SCF Done:  E(RB3LYP) =  -495.843841372     A.U. after   12 cycles
 SCF Done:  E(RB3LYP) =  -495.843856453     A.U. after   10 cycles
 SCF Done:  E(RB3LYP) =  -495.843861754     A.U. after   10 cycles
 SCF Done:  E(RB3LYP) =  -495.843863264     A.U. after   10 cycles
 SCF Done:  E(RB3LYP) =  -495.843863687     A.U. after    8 cycles
 SCF Done:  E(RB3LYP) =  -495.843864090     A.U. after    8 cycles
 SCF Done:  E(RB3LYP) =  -495.843864259     A.U. after    8 cycles
 Optimization completed.
    -- Stationary point found.

                         Standard orientation:
 ---------------------------------------------------------------------
 Center     Atomic      Atomic             Coordinates (Angstroms)
 Number     Number       Type             X           Y           Z
 ---------------------------------------------------------------------
      1          1           0       -3.802446   -1.543109    0.578624
      2          6           0       -3.003413   -1.540711   -0.166690
      3          1           0       -3.475323   -1.593524   -1.154468
      4          1           0       -2.378462   -2.428789   -0.028587
      5          6           0       -2.235857   -0.228938   -0.050484
      6          8           0       -2.807863    0.838052    0.115200
      7          7           0       -0.865484   -0.354696   -0.146426
      8          1           0       -0.536678   -1.218953   -0.559452
      9          6           0        0.044035    0.790700   -0.298288
     10          1           0       -0.152599    1.314355   -1.241458
     11          6           0       -0.073151    1.798672    0.860003
     12          1           0        0.118465    1.306748    1.820623
     13          1           0        0.669622    2.589159    0.716336
     14          1           0       -1.072492    2.232088    0.881852
     15          6           0        1.502617    0.313147   -0.375742
     16          8           0        2.339905    0.947794   -1.001699
     17          7           0        1.785839   -0.841384    0.306579
     18          1           0        1.088710   -1.173882    0.960095
     19          6           0        3.153008   -1.315558    0.456024
     20          1           0        3.723560   -0.969667   -0.406725
     21          1           0        3.628305   -0.923483    1.364690
     22          1           0        3.167086   -2.409026    0.490450
 ---------------------------------------------------------------------

 The electronic state is 1-A.
 Alpha  occ. eigenvalues --  -19.11724 -19.11629 -14.37002 -14.36838 -10.29502
 Alpha  occ. eigenvalues --  -10.29039 -10.23803 -10.22460 -10.19817 -10.17837
 Alpha  occ. eigenvalues --   -1.03927  -1.03406  -0.93747  -0.91740  -0.78275
 Alpha  occ. eigenvalues --   -0.73198  -0.71399  -0.64671  -0.59002  -0.57383
 Alpha  occ. eigenvalues --   -0.54100  -0.50323  -0.47511  -0.45807  -0.45529
 Alpha  occ. eigenvalues --   -0.44382  -0.42938  -0.41494  -0.40799  -0.39957
 Alpha  occ. eigenvalues --   -0.39632  -0.38202  -0.37421  -0.36022  -0.34886
 Alpha  occ. eigenvalues --   -0.26751  -0.26483  -0.25725  -0.24494
 Alpha virt. eigenvalues --    0.01245   0.02409   0.06293   0.09240   0.11995
 Alpha virt. eigenvalues --    0.12563   0.13396   0.14344   0.15063   0.15646
 Alpha virt. eigenvalues --    0.16680   0.17783   0.17918   0.18379   0.20256

 Mulliken atomic charges:
              1
     1  H    0.190537
     2  C   -0.541195
     3  H    0.185996
     4  H    0.145936
     5  C    0.596297
     6  O   -0.493608
     7  N   -0.637414
     8  H    0.326982
     9  C   -0.005304
    10  H    0.176812
    11  C   -0.458339
    12  H    0.136801
    13  H    0.167465
    14  H    0.205044
    15  C    0.566517
    16  O   -0.513198
    17  N   -0.593220
    18  H    0.331055
    19  C   -0.306790
    20  H    0.202069
    21  H    0.162954
    22  H    0.154605
 Sum of Mulliken atomic charges =   0.00000

 Dipole moment (field-independent basis, Debye):
    X=              0.4372    Y=             -4.5061    Z=              1.3541  Tot=              4.7254
 Quadrupole moment (field-independent basis, Debye-Ang):
   XX=            -67.9845   YY=            -58.0020   ZZ=            -59.8136
   XY=              0.7969   XZ=              6.7707   YZ=              1.2017

 Normal termination of Gaussian 09 at Fri Feb 10 21:15:58 2017.
