 Gaussian 09, Revision A.02,
 Gaussian 09:  EM64L-G09RevA.02 11-Jun-2009

 ----------------------------------------------------------------------
 # b3lyp/6-31G* Opt=(ModRedundant, maxcycles=1000, calcfc) geom=nocrowd
 ----------------------------------------------------------------------

 ------------------
 Phi Psi fixed scan
 ------------------
 Symbolic Z-matrix:
 Charge =  0 Multiplicity = 1

 SCF Done:  E(RB3LYP) =  -495.824652857     A.U. after   15 cycles

  Exact polarizability:   0.000   0.000   0.000   0.000   0.000   0.000
 Approx polarizability: 122.058  -3.490 130.934   1.009  -9.764  81.714

 SCF Done:  E(RB3LYP) =  -495.830025033     A.U. after   12 cycles
 SCF Done:  E(RB3LYP) =  -495.837443307     A.U. after   13 cycles
 SCF Done:  E(RB3LYP) =  -495.793110897     A.U. after   13 cycles
 SCF Done:  E(RB3LYP) =  -495.814214246     A.U. after   12 cycles
 SCF Done:  E(RB3LYP) =  -495.829524726     A.U. after   12 cycles
 SCF Done:  E(RB3LYP) =  -495.837778663     A.U. after   13 cycles
 SCF Done:  E(RB3LYP) =  -495.838972790     A.U. after   12 cycles
 SCF Done:  E(RB3LYP) =  -495.832792734     A.U. after   13 cycles
 SCF Done:  E(RB3LYP) =  -495.839563226     A.U. after   13 cycles
 SCF Done:  E(RB3LYP) =  -495.842293625     A.U. after   12 cycles
 SCF Done:  E(RB3LYP) =  -495.842412837     A.U. after   12 cycles
 SCF Done:  E(RB3LYP) =  -495.842499100     A.U. after   12 cycles
 SCF Done:  E(RB3LYP) =  -495.842530424     A.U. after   11 cycles
 SCF Done:  E(RB3LYP) =  -495.842539657     A.U. after   10 cycles
 SCF Done:  E(RB3LYP) =  -495.842540910     A.U. after    9 cycles
 SCF Done:  E(RB3LYP) =  -495.842541272     A.U. after    8 cycles
 SCF Done:  E(RB3LYP) =  -495.842541393     A.U. after    7 cycles
 SCF Done:  E(RB3LYP) =  -495.842541471     A.U. after    7 cycles
 SCF Done:  E(RB3LYP) =  -495.842541500     A.U. after    7 cycles
 Optimization completed.
    -- Stationary point found.

                         Standard orientation:
 ---------------------------------------------------------------------
 Center     Atomic      Atomic             Coordinates (Angstroms)
 Number     Number       Type             X           Y           Z
 ---------------------------------------------------------------------
      1          1           0       -3.958844   -1.528478   -0.106184
      2          6           0       -3.011600   -1.430652    0.427533
      3          1           0       -2.473999   -2.383989    0.398224
      4          1           0       -3.238476   -1.194698    1.474649
      5          6           0       -2.218075   -0.287429   -0.188975
      6          8           0       -2.753055    0.671479   -0.721281
      7          7           0       -0.838108   -0.437818   -0.130732
      8          1           0       -0.548983   -1.059144    0.619969
      9          6           0        0.030390    0.747142   -0.254323
     10          1           0       -0.143604    1.163864   -1.251801
     11          6           0       -0.268234    1.837350    0.789431
     12          1           0       -0.137245    1.445122    1.805414
     13          1           0        0.426783    2.668372    0.652476
     14          1           0       -1.293101    2.194087    0.671967
     15          6           0        1.521128    0.374473   -0.165084
     16          8           0        2.378480    1.246676   -0.159320
     17          7           0        1.820528   -0.955444    0.010008
     18          1           0        1.150003   -1.616154   -0.362364
     19          6           0        3.215312   -1.379282    0.031830
     20          1           0        3.774583   -0.700793    0.677564
     21          1           0        3.273923   -2.394784    0.432149
     22          1           0        3.675107   -1.355418   -0.964669
 ---------------------------------------------------------------------

 The electronic state is 1-A.
 Alpha  occ. eigenvalues --  -19.12196 -19.11753 -14.36919 -14.36728 -10.29624
 Alpha  occ. eigenvalues --  -10.29107 -10.23744 -10.22365 -10.19990 -10.17628
 Alpha  occ. eigenvalues --   -1.04195  -1.03667  -0.93750  -0.91711  -0.77946
 Alpha  occ. eigenvalues --   -0.73210  -0.71407  -0.64361  -0.58951  -0.57801
 Alpha  occ. eigenvalues --   -0.53893  -0.48167  -0.47910  -0.46560  -0.45590
 Alpha  occ. eigenvalues --   -0.44315  -0.42733  -0.41786  -0.40818  -0.40485
 Alpha  occ. eigenvalues --   -0.39683  -0.38267  -0.36864  -0.36049  -0.34741
 Alpha  occ. eigenvalues --   -0.27708  -0.26520  -0.25782  -0.24708
 Alpha virt. eigenvalues --    0.00938   0.01911   0.06039   0.09796   0.12212
 Alpha virt. eigenvalues --    0.12832   0.13084   0.14227   0.14484   0.15256
 Alpha virt. eigenvalues --    0.16929   0.17552   0.17961   0.18194   0.19808

 Mulliken atomic charges:
              1
     1  H    0.192643
     2  C   -0.546804
     3  H    0.155198
     4  H    0.181418
     5  C    0.593228
     6  O   -0.486749
     7  N   -0.620992
     8  H    0.317282
     9  C   -0.040669
    10  H    0.196729
    11  C   -0.459322
    12  H    0.135819
    13  H    0.183118
    14  H    0.182090
    15  C    0.590113
    16  O   -0.510539
    17  N   -0.603541
    18  H    0.331799
    19  C   -0.302808
    20  H    0.194737
    21  H    0.151709
    22  H    0.165538
 Sum of Mulliken atomic charges =   0.00000

 Dipole moment (field-independent basis, Debye):
    X=              0.2560    Y=             -4.6440    Z=              1.6152  Tot=              4.9236
 Quadrupole moment (field-independent basis, Debye-Ang):
   XX=            -67.1948   YY=            -58.2811   ZZ=            -59.7553
   XY=             -2.0922   XZ=             -4.5126   YZ=              0.8498

 Normal termination of Gaussian 09 at Fri Feb 10 21:05:29 2017.
