 Gaussian 09, Revision A.02,
 Gaussian 09:  EM64L-G09RevA.02 11-Jun-2009

 ----------------------------------------------------------------------
 # b3lyp/6-31G* Opt=(ModRedundant, maxcycles=1000, calcfc) geom=nocrowd
 ----------------------------------------------------------------------

 ------------------
 Phi Psi fixed scan
 ------------------
 Symbolic Z-matrix:
 Charge =  0 Multiplicity = 1

 SCF Done:  E(RB3LYP) =  -495.843033522     A.U. after   14 cycles

  Exact polarizability:   0.000   0.000   0.000   0.000   0.000   0.000
 Approx polarizability: 118.994  -5.587 112.089  -3.464 -18.331 103.430

 SCF Done:  E(RB3LYP) =  -495.845810980     A.U. after   12 cycles
 SCF Done:  E(RB3LYP) =  -495.848901173     A.U. after   12 cycles
 SCF Done:  E(RB3LYP) =  -495.849872471     A.U. after   12 cycles
 SCF Done:  E(RB3LYP) =  -495.847759265     A.U. after   13 cycles
 SCF Done:  E(RB3LYP) =  -495.849934181     A.U. after   12 cycles
 SCF Done:  E(RB3LYP) =  -495.850227073     A.U. after   11 cycles
 SCF Done:  E(RB3LYP) =  -495.849741405     A.U. after   13 cycles
 SCF Done:  E(RB3LYP) =  -495.850366699     A.U. after   12 cycles
 SCF Done:  E(RB3LYP) =  -495.850414942     A.U. after   11 cycles
 SCF Done:  E(RB3LYP) =  -495.850422534     A.U. after    9 cycles
 SCF Done:  E(RB3LYP) =  -495.850431310     A.U. after   10 cycles
 SCF Done:  E(RB3LYP) =  -495.850447769     A.U. after   11 cycles
 SCF Done:  E(RB3LYP) =  -495.850459385     A.U. after   11 cycles
 SCF Done:  E(RB3LYP) =  -495.850465527     A.U. after   10 cycles
 SCF Done:  E(RB3LYP) =  -495.850466532     A.U. after   10 cycles
 SCF Done:  E(RB3LYP) =  -495.850466606     A.U. after    7 cycles
 SCF Done:  E(RB3LYP) =  -495.850466603     A.U. after    6 cycles
 Optimization completed.
    -- Stationary point found.

                         Standard orientation:
 ---------------------------------------------------------------------
 Center     Atomic      Atomic             Coordinates (Angstroms)
 Number     Number       Type             X           Y           Z
 ---------------------------------------------------------------------
      1          1           0       -4.000167   -1.314937   -0.807380
      2          6           0       -3.287759   -1.237540    0.018200
      3          1           0       -2.813414   -2.210523    0.178752
      4          1           0       -3.854985   -0.969564    0.916598
      5          6           0       -2.298697   -0.122840   -0.292763
      6          8           0       -2.660011    0.969409   -0.717608
      7          7           0       -0.981801   -0.437604   -0.091110
      8          1           0       -0.748438   -1.261009    0.453201
      9          6           0        0.065367    0.578707   -0.094542
     10          1           0        0.068545    1.059448   -1.079691
     11          6           0       -0.128870    1.655327    0.990529
     12          1           0       -0.105949    1.192757    1.982244
     13          1           0        0.671487    2.402682    0.937738
     14          1           0       -1.087682    2.154939    0.840182
     15          6           0        1.380783   -0.168797    0.162884
     16          8           0        1.449391   -1.030441    1.036346
     17          7           0        2.424025    0.182401   -0.634992
     18          1           0        2.271041    0.887876   -1.341312
     19          6           0        3.755316   -0.381941   -0.488046
     20          1           0        3.707423   -1.125783    0.308102
     21          1           0        4.078299   -0.867619   -1.415703
     22          1           0        4.486387    0.388914   -0.217505
 ---------------------------------------------------------------------

 The electronic state is 1-A.
 Alpha  occ. eigenvalues --  -19.12216 -19.10257 -14.37612 -14.35241 -10.29481
 Alpha  occ. eigenvalues --  -10.28101 -10.23711 -10.22705 -10.18646 -10.17923
 Alpha  occ. eigenvalues --   -1.04290  -1.02164  -0.93220  -0.91592  -0.77816
 Alpha  occ. eigenvalues --   -0.72726  -0.71332  -0.64593  -0.59665  -0.57271
 Alpha  occ. eigenvalues --   -0.53512  -0.48331  -0.47116  -0.46386  -0.45323
 Alpha  occ. eigenvalues --   -0.44408  -0.42777  -0.41195  -0.40509  -0.39991
 Alpha  occ. eigenvalues --   -0.39015  -0.38081  -0.36703  -0.36443  -0.34198
 Alpha  occ. eigenvalues --   -0.26618  -0.26453  -0.24841  -0.23927
 Alpha virt. eigenvalues --    0.01638   0.03403   0.06525   0.09436   0.11566
 Alpha virt. eigenvalues --    0.13425   0.13733   0.15072   0.15818   0.16041
 Alpha virt. eigenvalues --    0.16666   0.16934   0.18620   0.18892   0.19471

 Mulliken atomic charges:
              1
     1  H    0.184415
     2  C   -0.536488
     3  H    0.151064
     4  H    0.181200
     5  C    0.596166
     6  O   -0.517695
     7  N   -0.605370
     8  H    0.341719
     9  C   -0.007790
    10  H    0.152062
    11  C   -0.457411
    12  H    0.162278
    13  H    0.139639
    14  H    0.194264
    15  C    0.593707
    16  O   -0.533307
    17  N   -0.588527
    18  H    0.331479
    19  C   -0.314363
    20  H    0.207612
    21  H    0.163011
    22  H    0.162333
 Sum of Mulliken atomic charges =   0.00000

 Dipole moment (field-independent basis, Debye):
    X=              2.8927    Y=             -0.2741    Z=             -0.9305  Tot=              3.0510
 Quadrupole moment (field-independent basis, Debye-Ang):
   XX=            -55.5791   YY=            -60.7908   ZZ=            -60.9103
   XY=             10.3783   XZ=             -9.2884   YZ=              1.9180

 Normal termination of Gaussian 09 at Fri Feb 10 21:02:55 2017.
