 Gaussian 09, Revision A.02,
 Gaussian 09:  EM64L-G09RevA.02 11-Jun-2009

 ----------------------------------------------------------------------
 # b3lyp/6-31G* Opt=(ModRedundant, maxcycles=1000, calcfc) geom=nocrowd
 ----------------------------------------------------------------------

 ------------------
 Phi Psi fixed scan
 ------------------
 Symbolic Z-matrix:
 Charge =  0 Multiplicity = 1

 SCF Done:  E(RB3LYP) =  -495.841028972     A.U. after   15 cycles

  Exact polarizability:   0.000   0.000   0.000   0.000   0.000   0.000
 Approx polarizability: 118.105  -8.722 102.198  -0.714 -12.374 114.746

 SCF Done:  E(RB3LYP) =  -495.843819316     A.U. after   12 cycles
 SCF Done:  E(RB3LYP) =  -495.846958143     A.U. after   12 cycles
 SCF Done:  E(RB3LYP) =  -495.848101602     A.U. after   12 cycles
 SCF Done:  E(RB3LYP) =  -495.842321984     A.U. after   14 cycles
 SCF Done:  E(RB3LYP) =  -495.845555743     A.U. after   12 cycles
 SCF Done:  E(RB3LYP) =  -495.846214390     A.U. after   12 cycles
 SCF Done:  E(RB3LYP) =  -495.848102757     A.U. after   14 cycles
 SCF Done:  E(RB3LYP) =  -495.848554190     A.U. after   12 cycles
 SCF Done:  E(RB3LYP) =  -495.848403142     A.U. after   13 cycles
 SCF Done:  E(RB3LYP) =  -495.848839430     A.U. after   12 cycles
 SCF Done:  E(RB3LYP) =  -495.834545630     A.U. after   13 cycles
 SCF Done:  E(RB3LYP) =  -495.848845483     A.U. after   13 cycles
 SCF Done:  E(RB3LYP) =  -495.848867416     A.U. after   10 cycles
 SCF Done:  E(RB3LYP) =  -495.848876002     A.U. after    9 cycles
 SCF Done:  E(RB3LYP) =  -495.848882653     A.U. after   10 cycles
 SCF Done:  E(RB3LYP) =  -495.848883786     A.U. after    9 cycles
 SCF Done:  E(RB3LYP) =  -495.848883809     A.U. after    6 cycles
 SCF Done:  E(RB3LYP) =  -495.848883811     A.U. after    5 cycles
 Optimization completed.
    -- Stationary point found.

                         Standard orientation:
 ---------------------------------------------------------------------
 Center     Atomic      Atomic             Coordinates (Angstroms)
 Number     Number       Type             X           Y           Z
 ---------------------------------------------------------------------
      1          1           0       -3.986059   -1.463762   -0.570787
      2          6           0       -3.223661   -1.298044    0.194178
      3          1           0       -2.726151   -2.245528    0.423325
      4          1           0       -3.733113   -0.943501    1.097769
      5          6           0       -2.267698   -0.218686   -0.294102
      6          8           0       -2.654457    0.770880   -0.904409
      7          7           0       -0.941783   -0.448648   -0.023999
      8          1           0       -0.715308   -1.142480    0.680245
      9          6           0        0.059552    0.612905   -0.148357
     10          1           0        0.059026    0.946614   -1.192062
     11          6           0       -0.211501    1.817028    0.768983
     12          1           0       -0.178270    1.499975    1.815546
     13          1           0        0.550336    2.591027    0.618382
     14          1           0       -1.191099    2.240651    0.540066
     15          6           0        1.399014   -0.032836    0.234397
     16          8           0        1.542781   -0.559096    1.335081
     17          7           0        2.360765   -0.018569   -0.727030
     18          1           0        2.148931    0.421688   -1.610779
     19          6           0        3.688039   -0.574430   -0.523471
     20          1           0        3.707297   -1.013576    0.474702
     21          1           0        3.903566   -1.352725   -1.264195
     22          1           0        4.458911    0.202242   -0.590153
 ---------------------------------------------------------------------

 The electronic state is 1-A.
 Alpha  occ. eigenvalues --  -19.12022 -19.10578 -14.37526 -14.35498 -10.29335
 Alpha  occ. eigenvalues --  -10.28324 -10.23645 -10.22627 -10.18839 -10.17635
 Alpha  occ. eigenvalues --   -1.04124  -1.02436  -0.93088  -0.91740  -0.77737
 Alpha  occ. eigenvalues --   -0.72755  -0.71400  -0.64438  -0.59463  -0.57413
 Alpha  occ. eigenvalues --   -0.53460  -0.48270  -0.47045  -0.46436  -0.45426
 Alpha  occ. eigenvalues --   -0.44504  -0.42541  -0.41192  -0.40547  -0.39906
 Alpha  occ. eigenvalues --   -0.39231  -0.37952  -0.36658  -0.36240  -0.34384
 Alpha  occ. eigenvalues --   -0.26562  -0.26249  -0.25098  -0.24112
 Alpha virt. eigenvalues --    0.01692   0.03056   0.06607   0.09070   0.11605
 Alpha virt. eigenvalues --    0.13467   0.13690   0.15209   0.15895   0.16020
 Alpha virt. eigenvalues --    0.16471   0.16831   0.18579   0.19027   0.19719

 Mulliken atomic charges:
              1
     1  H    0.185516
     2  C   -0.539122
     3  H    0.153019
     4  H    0.181528
     5  C    0.594874
     6  O   -0.512478
     7  N   -0.602894
     8  H    0.338279
     9  C   -0.004987
    10  H    0.150107
    11  C   -0.459609
    12  H    0.165408
    13  H    0.142131
    14  H    0.188752
    15  C    0.588211
    16  O   -0.531923
    17  N   -0.586018
    18  H    0.331769
    19  C   -0.314690
    20  H    0.207290
    21  H    0.162566
    22  H    0.162272
 Sum of Mulliken atomic charges =   0.00000

 Dipole moment (field-independent basis, Debye):
    X=              2.5571    Y=             -0.9443    Z=             -1.1298  Tot=              2.9507
 Quadrupole moment (field-independent basis, Debye-Ang):
   XX=            -56.6898   YY=            -59.2330   ZZ=            -61.9059
   XY=              7.3601   XZ=            -11.8235   YZ=              1.5113

 Normal termination of Gaussian 09 at Fri Feb 10 21:04:46 2017.
