 Gaussian 09, Revision A.02,
 Gaussian 09:  EM64L-G09RevA.02 11-Jun-2009

 ----------------------------------------------------------------------
 # b3lyp/6-31G* Opt=(ModRedundant, maxcycles=1000, calcfc) geom=nocrowd
 ----------------------------------------------------------------------

 ------------------
 Phi Psi fixed scan
 ------------------
 Symbolic Z-matrix:
 Charge =  0 Multiplicity = 1

 SCF Done:  E(RB3LYP) =  -495.844600147     A.U. after   14 cycles

  Exact polarizability:   0.000   0.000   0.000   0.000   0.000   0.000
 Approx polarizability: 121.006   0.826 129.117  -0.430 -12.401  83.420

 SCF Done:  E(RB3LYP) =  -495.847794070     A.U. after   12 cycles
 SCF Done:  E(RB3LYP) =  -495.850780365     A.U. after   12 cycles
 SCF Done:  E(RB3LYP) =  -495.850890609     A.U. after   12 cycles
 SCF Done:  E(RB3LYP) =  -495.851066071     A.U. after   12 cycles
 SCF Done:  E(RB3LYP) =  -495.832212957     A.U. after   13 cycles
 SCF Done:  E(RB3LYP) =  -495.851118153     A.U. after   13 cycles
 SCF Done:  E(RB3LYP) =  -495.851181832     A.U. after   11 cycles
 SCF Done:  E(RB3LYP) =  -495.851231475     A.U. after   11 cycles
 SCF Done:  E(RB3LYP) =  -495.851254216     A.U. after   11 cycles
 SCF Done:  E(RB3LYP) =  -495.851260860     A.U. after   11 cycles
 SCF Done:  E(RB3LYP) =  -495.851262190     A.U. after    9 cycles
 SCF Done:  E(RB3LYP) =  -495.851262272     A.U. after    7 cycles
 Optimization completed.
    -- Stationary point found.

                         Standard orientation:
 ---------------------------------------------------------------------
 Center     Atomic      Atomic             Coordinates (Angstroms)
 Number     Number       Type             X           Y           Z
 ---------------------------------------------------------------------
      1          1           0       -4.020302   -1.287215   -0.655732
      2          6           0       -3.341086   -1.157202    0.192188
      3          1           0       -2.870686   -2.117468    0.424669
      4          1           0       -3.946291   -0.841566    1.048156
      5          6           0       -2.348322   -0.051342   -0.141204
      6          8           0       -2.720112    1.071166   -0.474469
      7          7           0       -1.036762   -0.406341   -0.054533
      8          1           0       -0.754088   -1.341010    0.219569
      9          6           0        0.069477    0.508397   -0.265043
     10          1           0        0.043832    0.883630   -1.298662
     11          6           0        0.024681    1.713496    0.697155
     12          1           0        0.128784    1.378442    1.734527
     13          1           0        0.825602    2.430247    0.483160
     14          1           0       -0.932776    2.222616    0.578502
     15          6           0        1.354462   -0.324486   -0.066824
     16          8           0        1.308925   -1.515909    0.232874
     17          7           0        2.518924    0.358262   -0.222979
     18          1           0        2.475415    1.329256   -0.496404
     19          6           0        3.824802   -0.265156   -0.086486
     20          1           0        3.666401   -1.287008    0.259267
     21          1           0        4.356511   -0.290880   -1.045175
     22          1           0        4.437876    0.273198    0.644743
 ---------------------------------------------------------------------

 The electronic state is 1-A.
 Alpha  occ. eigenvalues --  -19.12756 -19.09712 -14.37583 -14.34825 -10.29875
 Alpha  occ. eigenvalues --  -10.27766 -10.24027 -10.22818 -10.18388 -10.18318
 Alpha  occ. eigenvalues --   -1.04739  -1.01681  -0.93410  -0.91372  -0.78010
 Alpha  occ. eigenvalues --   -0.72662  -0.71003  -0.65159  -0.59988  -0.56853
 Alpha  occ. eigenvalues --   -0.53687  -0.48763  -0.47511  -0.46165  -0.45244
 Alpha  occ. eigenvalues --   -0.44172  -0.42957  -0.41260  -0.40326  -0.40169
 Alpha  occ. eigenvalues --   -0.38675  -0.38382  -0.37161  -0.36704  -0.33901
 Alpha  occ. eigenvalues --   -0.26902  -0.26619  -0.24363  -0.23647
 Alpha virt. eigenvalues --    0.01574   0.03877   0.06250   0.10117   0.11256
 Alpha virt. eigenvalues --    0.13259   0.14287   0.14751   0.15431   0.15724
 Alpha virt. eigenvalues --    0.16117   0.18345   0.18515   0.19063   0.19902

 Mulliken atomic charges:
              1
     1  H    0.181907
     2  C   -0.533593
     3  H    0.148895
     4  H    0.180552
     5  C    0.599955
     6  O   -0.525275
     7  N   -0.617220
     8  H    0.351185
     9  C   -0.017878
    10  H    0.169721
    11  C   -0.459509
    12  H    0.155042
    13  H    0.126042
    14  H    0.209098
    15  C    0.602924
    16  O   -0.530166
    17  N   -0.593150
    18  H    0.331929
    19  C   -0.312854
    20  H    0.207475
    21  H    0.162956
    22  H    0.161963
 Sum of Mulliken atomic charges =   0.00000

 Dipole moment (field-independent basis, Debye):
    X=              3.5171    Y=              0.3686    Z=              0.1510  Tot=              3.5396
 Quadrupole moment (field-independent basis, Debye-Ang):
   XX=            -55.1646   YY=            -62.5774   ZZ=            -59.8089
   XY=             12.4650   XZ=             -4.5062   YZ=              0.7132

 Normal termination of Gaussian 09 at Fri Feb 10 21:13:28 2017.
