 Gaussian 09, Revision A.02,
 Gaussian 09:  EM64L-G09RevA.02 11-Jun-2009

 ----------------------------------------------------------------------
 # b3lyp/6-31G* Opt=(ModRedundant, maxcycles=1000, calcfc) geom=nocrowd
 ----------------------------------------------------------------------

 ------------------
 Phi Psi fixed scan
 ------------------
 Symbolic Z-matrix:
 Charge =  0 Multiplicity = 1

 SCF Done:  E(RB3LYP) =  -495.836339108     A.U. after   15 cycles

  Exact polarizability:   0.000   0.000   0.000   0.000   0.000   0.000
 Approx polarizability: 119.263  -7.409 119.694   6.315  12.637  96.114

 SCF Done:  E(RB3LYP) =  -495.839213646     A.U. after   12 cycles
 SCF Done:  E(RB3LYP) =  -495.842392957     A.U. after   12 cycles
 SCF Done:  E(RB3LYP) =  -495.843222136     A.U. after   13 cycles
 SCF Done:  E(RB3LYP) =  -495.840739228     A.U. after   16 cycles
 SCF Done:  E(RB3LYP) =  -495.843272206     A.U. after   16 cycles
 SCF Done:  E(RB3LYP) =  -495.843505470     A.U. after   16 cycles
 SCF Done:  E(RB3LYP) =  -495.843077203     A.U. after   16 cycles
 SCF Done:  E(RB3LYP) =  -495.843658372     A.U. after   13 cycles
 SCF Done:  E(RB3LYP) =  -495.843716497     A.U. after   11 cycles
 SCF Done:  E(RB3LYP) =  -495.843726800     A.U. after   10 cycles
 SCF Done:  E(RB3LYP) =  -495.843738291     A.U. after   10 cycles
 SCF Done:  E(RB3LYP) =  -495.843745762     A.U. after   11 cycles
 SCF Done:  E(RB3LYP) =  -495.843749663     A.U. after   10 cycles
 SCF Done:  E(RB3LYP) =  -495.843754199     A.U. after   10 cycles
 SCF Done:  E(RB3LYP) =  -495.843755476     A.U. after   10 cycles
 SCF Done:  E(RB3LYP) =  -495.843755482     A.U. after    8 cycles
 SCF Done:  E(RB3LYP) =  -495.843755471     A.U. after    6 cycles
 Optimization completed.
    -- Stationary point found.

                         Standard orientation:
 ---------------------------------------------------------------------
 Center     Atomic      Atomic             Coordinates (Angstroms)
 Number     Number       Type             X           Y           Z
 ---------------------------------------------------------------------
      1          1           0        3.769230   -1.566061   -0.611671
      2          6           0        3.011949   -1.533693    0.175648
      3          1           0        3.537616   -1.546790    1.136983
      4          1           0        2.383130   -2.427196    0.107266
      5          6           0        2.237960   -0.226550    0.050716
      6          8           0        2.803034    0.838818   -0.151897
      7          7           0        0.874367   -0.348472    0.187208
      8          1           0        0.535746   -1.220618    0.572003
      9          6           0       -0.042347    0.796600    0.291094
     10          1           0        0.163857    1.364177    1.205542
     11          6           0        0.049369    1.747992   -0.915204
     12          1           0       -0.144670    1.213852   -1.852238
     13          1           0       -0.698875    2.539545   -0.804190
     14          1           0        1.043587    2.191151   -0.966649
     15          6           0       -1.486326    0.286981    0.431874
     16          8           0       -2.266398    0.784179    1.232187
     17          7           0       -1.825364   -0.723860   -0.427120
     18          1           0       -1.149895   -0.989274   -1.131064
     19          6           0       -3.182850   -1.232091   -0.531027
     20          1           0       -3.727587   -0.894852    0.351717
     21          1           0       -3.691817   -0.850334   -1.425212
     22          1           0       -3.182966   -2.326685   -0.564034
 ---------------------------------------------------------------------

 The electronic state is 1-A.
 Alpha  occ. eigenvalues --  -19.11664 -19.11477 -14.37005 -14.36799 -10.29341
 Alpha  occ. eigenvalues --  -10.29046 -10.23776 -10.22472 -10.19722 -10.18047
 Alpha  occ. eigenvalues --   -1.03846  -1.03264  -0.93615  -0.91772  -0.78321
 Alpha  occ. eigenvalues --   -0.73192  -0.71351  -0.64884  -0.58995  -0.57651
 Alpha  occ. eigenvalues --   -0.54005  -0.50269  -0.47427  -0.45833  -0.45341
 Alpha  occ. eigenvalues --   -0.44267  -0.43009  -0.41487  -0.40864  -0.40006
 Alpha  occ. eigenvalues --   -0.39515  -0.38327  -0.37582  -0.36204  -0.34925
 Alpha  occ. eigenvalues --   -0.26671  -0.26023  -0.25661  -0.24500
 Alpha virt. eigenvalues --    0.01331   0.02557   0.06451   0.08683   0.11661
 Alpha virt. eigenvalues --    0.12554   0.13529   0.14712   0.15181   0.15761
 Alpha virt. eigenvalues --    0.16414   0.17645   0.17859   0.18405   0.20201

 Mulliken atomic charges:
              1
     1  H    0.189320
     2  C   -0.539923
     3  H    0.186795
     4  H    0.144680
     5  C    0.598024
     6  O   -0.498390
     7  N   -0.633936
     8  H    0.328033
     9  C   -0.002408
    10  H    0.177897
    11  C   -0.459107
    12  H    0.134668
    13  H    0.163052
    14  H    0.206534
    15  C    0.556910
    16  O   -0.510663
    17  N   -0.585037
    18  H    0.330235
    19  C   -0.309430
    20  H    0.205047
    21  H    0.162164
    22  H    0.155534
 Sum of Mulliken atomic charges =   0.00000

 Dipole moment (field-independent basis, Debye):
    X=             -0.6579    Y=             -4.2153    Z=             -1.7762  Tot=              4.6213
 Quadrupole moment (field-independent basis, Debye-Ang):
   XX=            -67.3447   YY=            -57.6682   ZZ=            -60.6484
   XY=             -1.7524   XZ=              7.8292   YZ=             -1.2506

 Normal termination of Gaussian 09 at Fri Feb 10 21:24:09 2017.
