 Gaussian 09, Revision A.02,
 Gaussian 09:  EM64L-G09RevA.02 11-Jun-2009

 ----------------------------------------------------------------------
 # b3lyp/6-31G* Opt=(ModRedundant, maxcycles=1000, calcfc) geom=nocrowd
 ----------------------------------------------------------------------

 ------------------
 Phi Psi fixed scan
 ------------------
 Symbolic Z-matrix:
 Charge =  0 Multiplicity = 1

 SCF Done:  E(RB3LYP) =  -495.831440410     A.U. after   15 cycles

  Exact polarizability:   0.000   0.000   0.000   0.000   0.000   0.000
 Approx polarizability: 117.162  11.158 108.067   4.234  -3.000 110.786

 SCF Done:  E(RB3LYP) =  -495.835537132     A.U. after   12 cycles
 SCF Done:  E(RB3LYP) =  -495.839914419     A.U. after   13 cycles
 SCF Done:  E(RB3LYP) =  -495.840622134     A.U. after   12 cycles
 SCF Done:  E(RB3LYP) =  -495.836461356     A.U. after   14 cycles
 SCF Done:  E(RB3LYP) =  -495.840692333     A.U. after   14 cycles
 SCF Done:  E(RB3LYP) =  -495.840941427     A.U. after   12 cycles
 SCF Done:  E(RB3LYP) =  -495.839190638     A.U. after   13 cycles
 SCF Done:  E(RB3LYP) =  -495.841181664     A.U. after   12 cycles
 SCF Done:  E(RB3LYP) =  -495.841315395     A.U. after   12 cycles
 SCF Done:  E(RB3LYP) =  -495.841383576     A.U. after   10 cycles
 SCF Done:  E(RB3LYP) =  -495.841398082     A.U. after   10 cycles
 SCF Done:  E(RB3LYP) =  -495.841434881     A.U. after   11 cycles
 SCF Done:  E(RB3LYP) =  -495.841460281     A.U. after   11 cycles
 SCF Done:  E(RB3LYP) =  -495.841464655     A.U. after    8 cycles
 SCF Done:  E(RB3LYP) =  -495.841465442     A.U. after    9 cycles
 SCF Done:  E(RB3LYP) =  -495.841465913     A.U. after    7 cycles
 SCF Done:  E(RB3LYP) =  -495.841467042     A.U. after    9 cycles
 SCF Done:  E(RB3LYP) =  -495.841467366     A.U. after   10 cycles
 SCF Done:  E(RB3LYP) =  -495.841467234     A.U. after    8 cycles
 Optimization completed.
    -- Stationary point found.

                         Standard orientation:
 ---------------------------------------------------------------------
 Center     Atomic      Atomic             Coordinates (Angstroms)
 Number     Number       Type             X           Y           Z
 ---------------------------------------------------------------------
      1          1           0        3.747928   -1.160062   -1.289512
      2          6           0        3.066929   -1.428016   -0.477372
      3          1           0        3.680648   -1.731971    0.377628
      4          1           0        2.451803   -2.277495   -0.790299
      5          6           0        2.261519   -0.192470   -0.092385
      6          8           0        2.797651    0.894460    0.080928
      7          7           0        0.911599   -0.404780    0.036626
      8          1           0        0.606764   -1.367236    0.102537
      9          6           0       -0.034851    0.593957    0.558895
     10          1           0        0.166098    0.771434    1.622620
     11          6           0        0.044245    1.930022   -0.191960
     12          1           0       -0.024041    1.788789   -1.277879
     13          1           0       -0.768233    2.589595    0.132073
     14          1           0        1.001620    2.410173    0.007205
     15          6           0       -1.422843   -0.082624    0.519104
     16          8           0       -1.797057   -0.782568    1.454562
     17          7           0       -2.139656    0.079022   -0.627749
     18          1           0       -1.769073    0.678969   -1.349390
     19          6           0       -3.443619   -0.528724   -0.828670
     20          1           0       -3.675793   -1.105916    0.067085
     21          1           0       -4.217351    0.233794   -0.976556
     22          1           0       -3.437012   -1.197785   -1.697251
 ---------------------------------------------------------------------

 The electronic state is 1-A.
 Alpha  occ. eigenvalues --  -19.11673 -19.10934 -14.37050 -14.36308 -10.29087
 Alpha  occ. eigenvalues --  -10.28835 -10.23840 -10.22437 -10.19229 -10.18413
 Alpha  occ. eigenvalues --   -1.03801  -1.02787  -0.92940  -0.92021  -0.78244
 Alpha  occ. eigenvalues --   -0.72985  -0.71031  -0.65454  -0.59088  -0.57320
 Alpha  occ. eigenvalues --   -0.53678  -0.50233  -0.47250  -0.45532  -0.45064
 Alpha  occ. eigenvalues --   -0.44495  -0.42467  -0.41505  -0.40513  -0.39947
 Alpha  occ. eigenvalues --   -0.38911  -0.38305  -0.38188  -0.36708  -0.34752
 Alpha  occ. eigenvalues --   -0.26503  -0.25665  -0.25308  -0.24244
 Alpha virt. eigenvalues --    0.01732   0.02579   0.07051   0.07973   0.11364
 Alpha virt. eigenvalues --    0.12859   0.13574   0.14877   0.15778   0.15887
 Alpha virt. eigenvalues --    0.16394   0.17415   0.18119   0.19001   0.19687

 Mulliken atomic charges:
              1
     1  H    0.186535
     2  C   -0.538127
     3  H    0.185755
     4  H    0.147057
     5  C    0.597866
     6  O   -0.506404
     7  N   -0.617738
     8  H    0.337406
     9  C    0.019229
    10  H    0.175433
    11  C   -0.480958
    12  H    0.136852
    13  H    0.151099
    14  H    0.210367
    15  C    0.540913
    16  O   -0.513387
    17  N   -0.578476
    18  H    0.334015
    19  C   -0.313687
    20  H    0.206333
    21  H    0.161126
    22  H    0.158792
 Sum of Mulliken atomic charges =   0.00000

 Dipole moment (field-independent basis, Debye):
    X=             -1.8592    Y=             -1.0043    Z=             -3.0791  Tot=              3.7344
 Quadrupole moment (field-independent basis, Debye-Ang):
   XX=            -62.2555   YY=            -58.5910   ZZ=            -61.5284
   XY=             -9.6168   XZ=              6.0802   YZ=              1.9518

 Normal termination of Gaussian 09 at Fri Feb 10 21:20:29 2017.
