 Gaussian 09, Revision A.02,
 Gaussian 09:  EM64L-G09RevA.02 11-Jun-2009

 ----------------------------------------------------------------------
 # b3lyp/6-31G* Opt=(ModRedundant, maxcycles=1000, calcfc) geom=nocrowd
 ----------------------------------------------------------------------

 ------------------
 Phi Psi fixed scan
 ------------------
 Symbolic Z-matrix:
 Charge =  0 Multiplicity = 1

 SCF Done:  E(RB3LYP) =  -495.828122397     A.U. after   15 cycles

  Exact polarizability:   0.000   0.000   0.000   0.000   0.000   0.000
 Approx polarizability: 121.896  -2.986 131.121   4.468  -6.899  82.166

 SCF Done:  E(RB3LYP) =  -495.833329040     A.U. after   12 cycles
 SCF Done:  E(RB3LYP) =  -495.840375589     A.U. after   12 cycles
 SCF Done:  E(RB3LYP) =  -495.824808340     A.U. after   14 cycles
 SCF Done:  E(RB3LYP) =  -495.835521616     A.U. after   12 cycles
 SCF Done:  E(RB3LYP) =  -495.840451522     A.U. after   14 cycles
 SCF Done:  E(RB3LYP) =  -495.841641987     A.U. after   12 cycles
 SCF Done:  E(RB3LYP) =  -495.843088347     A.U. after   13 cycles
 SCF Done:  E(RB3LYP) =  -495.843679865     A.U. after   12 cycles
 SCF Done:  E(RB3LYP) =  -495.843459358     A.U. after   13 cycles
 SCF Done:  E(RB3LYP) =  -495.844429109     A.U. after   12 cycles
 SCF Done:  E(RB3LYP) =  -495.844560183     A.U. after   12 cycles
 SCF Done:  E(RB3LYP) =  -495.844581649     A.U. after   11 cycles
 SCF Done:  E(RB3LYP) =  -495.844568208     A.U. after   11 cycles
 SCF Done:  E(RB3LYP) =  -495.844600939     A.U. after   10 cycles
 SCF Done:  E(RB3LYP) =  -495.844609527     A.U. after   12 cycles
 SCF Done:  E(RB3LYP) =  -495.844637949     A.U. after   11 cycles
 SCF Done:  E(RB3LYP) =  -495.844638754     A.U. after    9 cycles
 SCF Done:  E(RB3LYP) =  -495.844638744     A.U. after    7 cycles
 SCF Done:  E(RB3LYP) =  -495.844638816     A.U. after    7 cycles
 Optimization completed.
    -- Stationary point found.

                         Standard orientation:
 ---------------------------------------------------------------------
 Center     Atomic      Atomic             Coordinates (Angstroms)
 Number     Number       Type             X           Y           Z
 ---------------------------------------------------------------------
      1          1           0       -3.918687   -1.585130   -0.017956
      2          6           0       -2.991595   -1.413669    0.532354
      3          1           0       -2.435602   -2.353233    0.615902
      4          1           0       -3.257080   -1.079707    1.542999
      5          6           0       -2.200114   -0.319766   -0.170368
      6          8           0       -2.735393    0.569904   -0.812283
      7          7           0       -0.822609   -0.430289   -0.052916
      8          1           0       -0.527869   -0.994492    0.738679
      9          6           0        0.037117    0.745631   -0.281154
     10          1           0       -0.102201    1.038318   -1.328658
     11          6           0       -0.312212    1.945190    0.611667
     12          1           0       -0.224375    1.676755    1.671235
     13          1           0        0.385310    2.761190    0.412693
     14          1           0       -1.332349    2.275222    0.407942
     15          6           0        1.523175    0.381121   -0.095039
     16          8           0        2.371124    1.247224    0.069215
     17          7           0        1.818142   -0.958191   -0.079986
     18          1           0        1.131774   -1.578376   -0.490341
     19          6           0        3.201878   -1.408644   -0.036253
     20          1           0        3.757811   -0.745623    0.628008
     21          1           0        3.239377   -2.430391    0.351473
     22          1           0        3.679817   -1.381369   -1.024359
 ---------------------------------------------------------------------

 The electronic state is 1-A.
 Alpha  occ. eigenvalues --  -19.12096 -19.11671 -14.36824 -14.36732 -10.29572
 Alpha  occ. eigenvalues --  -10.29059 -10.23767 -10.22357 -10.19952 -10.17345
 Alpha  occ. eigenvalues --   -1.04115  -1.03570  -0.93718  -0.91643  -0.77901
 Alpha  occ. eigenvalues --   -0.73133  -0.71489  -0.64222  -0.58875  -0.57893
 Alpha  occ. eigenvalues --   -0.53829  -0.48181  -0.47930  -0.46637  -0.45541
 Alpha  occ. eigenvalues --   -0.44488  -0.42566  -0.41755  -0.40554  -0.40409
 Alpha  occ. eigenvalues --   -0.39569  -0.38223  -0.36792  -0.36093  -0.34728
 Alpha  occ. eigenvalues --   -0.27331  -0.26440  -0.25722  -0.24731
 Alpha virt. eigenvalues --    0.00964   0.02171   0.06504   0.09721   0.12396
 Alpha virt. eigenvalues --    0.12683   0.13073   0.14288   0.14589   0.15215
 Alpha virt. eigenvalues --    0.16916   0.17582   0.17667   0.18336   0.19868

 Mulliken atomic charges:
              1
     1  H    0.192039
     2  C   -0.546112
     3  H    0.154547
     4  H    0.182022
     5  C    0.593924
     6  O   -0.488604
     7  N   -0.624859
     8  H    0.320341
     9  C   -0.039548
    10  H    0.195150
    11  C   -0.455014
    12  H    0.136249
    13  H    0.181320
    14  H    0.179904
    15  C    0.586779
    16  O   -0.512386
    17  N   -0.600540
    18  H    0.334475
    19  C   -0.303789
    20  H    0.197334
    21  H    0.152683
    22  H    0.164084
 Sum of Mulliken atomic charges =   0.00000

 Dipole moment (field-independent basis, Debye):
    X=              0.2831    Y=             -4.4845    Z=              1.3979  Tot=              4.7058
 Quadrupole moment (field-independent basis, Debye-Ang):
   XX=            -67.2810   YY=            -58.3016   ZZ=            -59.5349
   XY=             -2.5973   XZ=             -6.2045   YZ=              0.2201

 Normal termination of Gaussian 09 at Fri Feb 10 21:17:46 2017.
