 Gaussian 09, Revision A.02,
 Gaussian 09:  EM64L-G09RevA.02 11-Jun-2009

 ----------------------------------------------------------------------
 # b3lyp/6-31G* Opt=(ModRedundant, maxcycles=1000, calcfc) geom=nocrowd
 ----------------------------------------------------------------------

 ------------------
 Phi Psi fixed scan
 ------------------
 Symbolic Z-matrix:
 Charge =  0 Multiplicity = 1

 SCF Done:  E(RB3LYP) =  -495.836347587     A.U. after   15 cycles

  Exact polarizability:   0.000   0.000   0.000   0.000   0.000   0.000
 Approx polarizability: 118.076  -4.428 120.398  10.381   2.374  96.635

 SCF Done:  E(RB3LYP) =  -495.839732973     A.U. after   12 cycles
 SCF Done:  E(RB3LYP) =  -495.843357968     A.U. after   12 cycles
 SCF Done:  E(RB3LYP) =  -495.844222734     A.U. after   13 cycles
 SCF Done:  E(RB3LYP) =  -495.843885798     A.U. after   13 cycles
 SCF Done:  E(RB3LYP) =  -495.844509181     A.U. after   12 cycles
 SCF Done:  E(RB3LYP) =  -495.844826172     A.U. after   12 cycles
 SCF Done:  E(RB3LYP) =  -495.842061612     A.U. after   13 cycles
 SCF Done:  E(RB3LYP) =  -495.845017675     A.U. after   13 cycles
 SCF Done:  E(RB3LYP) =  -495.845107659     A.U. after   12 cycles
 SCF Done:  E(RB3LYP) =  -495.845122582     A.U. after    9 cycles
 SCF Done:  E(RB3LYP) =  -495.845126674     A.U. after    9 cycles
 SCF Done:  E(RB3LYP) =  -495.845129153     A.U. after    9 cycles
 SCF Done:  E(RB3LYP) =  -495.845133386     A.U. after   10 cycles
 SCF Done:  E(RB3LYP) =  -495.845135650     A.U. after    9 cycles
 SCF Done:  E(RB3LYP) =  -495.845138093     A.U. after    9 cycles
 SCF Done:  E(RB3LYP) =  -495.845139823     A.U. after   10 cycles
 SCF Done:  E(RB3LYP) =  -495.845139978     A.U. after    9 cycles
 SCF Done:  E(RB3LYP) =  -495.845139993     A.U. after    7 cycles
 Optimization completed.
    -- Stationary point found.

                         Standard orientation:
 ---------------------------------------------------------------------
 Center     Atomic      Atomic             Coordinates (Angstroms)
 Number     Number       Type             X           Y           Z
 ---------------------------------------------------------------------
      1          1           0       -3.828660   -1.723506    0.180873
      2          6           0       -2.993001   -1.331667    0.764496
      3          1           0       -2.402828   -2.163982    1.161597
      4          1           0       -3.409496   -0.769182    1.608709
      5          6           0       -2.182170   -0.389652   -0.114841
      6          8           0       -2.695454    0.306252   -0.978818
      7          7           0       -0.821815   -0.400366    0.117011
      8          1           0       -0.530425   -0.822793    0.991235
      9          6           0        0.043877    0.691506   -0.369737
     10          1           0       -0.016542    0.679219   -1.464471
     11          6           0       -0.368839    2.072396    0.143261
     12          1           0       -0.298480    2.114592    1.234096
     13          1           0        0.302475    2.836049   -0.259661
     14          1           0       -1.390764    2.291122   -0.171332
     15          6           0        1.490961    0.362889    0.060029
     16          8           0        2.151563    1.102950    0.776323
     17          7           0        1.960680   -0.816933   -0.444222
     18          1           0        1.327852   -1.378498   -0.997362
     19          6           0        3.293550   -1.321592   -0.167049
     20          1           0        3.811318   -0.566244    0.425644
     21          1           0        3.258972   -2.259905    0.400279
     22          1           0        3.849400   -1.492685   -1.096118
 ---------------------------------------------------------------------

 The electronic state is 1-A.
 Alpha  occ. eigenvalues --  -19.11799 -19.11594 -14.36769 -14.36627 -10.29225
 Alpha  occ. eigenvalues --  -10.29016 -10.23653 -10.22348 -10.19698 -10.16908
 Alpha  occ. eigenvalues --   -1.03899  -1.03320  -0.93293  -0.91770  -0.77796
 Alpha  occ. eigenvalues --   -0.72977  -0.71509  -0.64027  -0.58630  -0.58157
 Alpha  occ. eigenvalues --   -0.53524  -0.48157  -0.47969  -0.46627  -0.45351
 Alpha  occ. eigenvalues --   -0.44866  -0.42241  -0.41568  -0.40175  -0.40004
 Alpha  occ. eigenvalues --   -0.39380  -0.37839  -0.36710  -0.36319  -0.34672
 Alpha  occ. eigenvalues --   -0.26806  -0.25888  -0.25582  -0.24724
 Alpha virt. eigenvalues --    0.01174   0.02372   0.07202   0.08528   0.11797
 Alpha virt. eigenvalues --    0.12695   0.12915   0.14806   0.15552   0.15977
 Alpha virt. eigenvalues --    0.16503   0.17186   0.17874   0.18800   0.19940

 Mulliken atomic charges:
              1
     1  H    0.189807
     2  C   -0.543244
     3  H    0.151867
     4  H    0.183960
     5  C    0.594478
     6  O   -0.497100
     7  N   -0.613127
     8  H    0.326144
     9  C   -0.030061
    10  H    0.174871
    11  C   -0.444224
    12  H    0.150981
    13  H    0.159462
    14  H    0.176858
    15  C    0.562773
    16  O   -0.507548
    17  N   -0.579916
    18  H    0.333822
    19  C   -0.311725
    20  H    0.205078
    21  H    0.155954
    22  H    0.160891
 Sum of Mulliken atomic charges =   0.00000

 Dipole moment (field-independent basis, Debye):
    X=              0.8239    Y=             -3.8615    Z=              0.6613  Tot=              4.0034
 Quadrupole moment (field-independent basis, Debye-Ang):
   XX=            -65.0580   YY=            -58.1157   ZZ=            -60.3350
   XY=             -2.9123   XZ=            -10.3552   YZ=             -1.3605

 Normal termination of Gaussian 09 at Fri Feb 10 21:26:43 2017.
