 Gaussian 09, Revision A.02,
 Gaussian 09:  EM64L-G09RevA.02 11-Jun-2009

 ----------------------------------------------------------------------
 # b3lyp/6-31G* Opt=(ModRedundant, maxcycles=1000, calcfc) geom=nocrowd
 ----------------------------------------------------------------------

 ------------------
 Phi Psi fixed scan
 ------------------
 Symbolic Z-matrix:
 Charge =  0 Multiplicity = 1

 SCF Done:  E(RB3LYP) =  -495.832697834     A.U. after   15 cycles

  Exact polarizability:   0.000   0.000   0.000   0.000   0.000   0.000
 Approx polarizability: 119.764  -3.685 122.074   8.188   2.428  94.739

 SCF Done:  E(RB3LYP) =  -495.837484450     A.U. after   12 cycles
 SCF Done:  E(RB3LYP) =  -495.842718055     A.U. after   12 cycles
 SCF Done:  E(RB3LYP) =  -495.844010438     A.U. after   12 cycles
 SCF Done:  E(RB3LYP) =  -495.843530563     A.U. after   12 cycles
 SCF Done:  E(RB3LYP) =  -495.844165017     A.U. after   12 cycles
 SCF Done:  E(RB3LYP) =  -495.844613490     A.U. after   12 cycles
 SCF Done:  E(RB3LYP) =  -495.844636321     A.U. after   12 cycles
 SCF Done:  E(RB3LYP) =  -495.844818778     A.U. after   11 cycles
 SCF Done:  E(RB3LYP) =  -495.844876973     A.U. after   11 cycles
 SCF Done:  E(RB3LYP) =  -495.844902305     A.U. after   10 cycles
 SCF Done:  E(RB3LYP) =  -495.844906654     A.U. after   10 cycles
 SCF Done:  E(RB3LYP) =  -495.844912649     A.U. after   10 cycles
 SCF Done:  E(RB3LYP) =  -495.844931771     A.U. after   10 cycles
 SCF Done:  E(RB3LYP) =  -495.844971684     A.U. after   11 cycles
 SCF Done:  E(RB3LYP) =  -495.844991966     A.U. after   10 cycles
 SCF Done:  E(RB3LYP) =  -495.844994249     A.U. after   10 cycles
 SCF Done:  E(RB3LYP) =  -495.844994459     A.U. after    7 cycles
 SCF Done:  E(RB3LYP) =  -495.844994517     A.U. after    7 cycles
 SCF Done:  E(RB3LYP) =  -495.844994542     A.U. after    6 cycles
 Optimization completed.
    -- Stationary point found.

                         Standard orientation:
 ---------------------------------------------------------------------
 Center     Atomic      Atomic             Coordinates (Angstroms)
 Number     Number       Type             X           Y           Z
 ---------------------------------------------------------------------
      1          1           0       -3.787268   -0.908667    1.402812
      2          6           0       -3.168135   -1.264508    0.574257
      3          1           0       -3.844657   -1.563946   -0.233036
      4          1           0       -2.598287   -2.138400    0.904165
      5          6           0       -2.300453   -0.110727    0.085449
      6          8           0       -2.787450    0.974791   -0.210105
      7          7           0       -0.961572   -0.391762    0.018943
      8          1           0       -0.681602   -1.365174    0.031564
      9          6           0        0.048466    0.502934   -0.556646
     10          1           0       -0.114362    0.595336   -1.640768
     11          6           0        0.011850    1.903351    0.065862
     12          1           0        0.155305    1.857150    1.152077
     13          1           0        0.787917    2.538357   -0.378333
     14          1           0       -0.960137    2.358641   -0.121239
     15          6           0        1.378917   -0.267034   -0.389770
     16          8           0        1.479825   -1.398006   -0.861502
     17          7           0        2.353488    0.319886    0.351479
     18          1           0        2.199265    1.251030    0.706665
     19          6           0        3.640524   -0.311719    0.590098
     20          1           0        3.600852   -1.310692    0.154756
     21          1           0        4.454547    0.253597    0.121020
     22          1           0        3.839004   -0.392160    1.664720
 ---------------------------------------------------------------------

 The electronic state is 1-A.
 Alpha  occ. eigenvalues --  -19.11849 -19.10487 -14.37435 -14.35635 -10.29401
 Alpha  occ. eigenvalues --  -10.28393 -10.23987 -10.22612 -10.18768 -10.18428
 Alpha  occ. eigenvalues --   -1.04070  -1.02329  -0.93080  -0.91801  -0.78183
 Alpha  occ. eigenvalues --   -0.72794  -0.71009  -0.65566  -0.59528  -0.56783
 Alpha  occ. eigenvalues --   -0.53647  -0.50014  -0.47293  -0.45471  -0.45441
 Alpha  occ. eigenvalues --   -0.44233  -0.42479  -0.41480  -0.40210  -0.39491
 Alpha  occ. eigenvalues --   -0.39101  -0.38418  -0.37909  -0.37018  -0.34406
 Alpha  occ. eigenvalues --   -0.26437  -0.26093  -0.25084  -0.23934
 Alpha virt. eigenvalues --    0.01570   0.03115   0.07490   0.09346   0.11359
 Alpha virt. eigenvalues --    0.13465   0.13837   0.14870   0.15133   0.15779
 Alpha virt. eigenvalues --    0.16138   0.17495   0.18245   0.18732   0.19876

 Mulliken atomic charges:
              1
     1  H    0.184219
     2  C   -0.535446
     3  H    0.183642
     4  H    0.148881
     5  C    0.597108
     6  O   -0.512398
     7  N   -0.615430
     8  H    0.344002
     9  C    0.022489
    10  H    0.173017
    11  C   -0.496623
    12  H    0.146824
    13  H    0.139946
    14  H    0.217372
    15  C    0.562067
    16  O   -0.528269
    17  N   -0.586312
    18  H    0.338262
    19  C   -0.314837
    20  H    0.207555
    21  H    0.162408
    22  H    0.161522
 Sum of Mulliken atomic charges =   0.00000

 Dipole moment (field-independent basis, Debye):
    X=              2.8288    Y=              0.2907    Z=              1.9963  Tot=              3.4745
 Quadrupole moment (field-independent basis, Debye-Ang):
   XX=            -58.1574   YY=            -61.2820   ZZ=            -60.0829
   XY=             12.1197   XZ=              2.1338   YZ=             -1.8392

 Normal termination of Gaussian 09 at Fri Feb 10 21:12:44 2017.
