 Gaussian 09, Revision A.02,
 Gaussian 09:  EM64L-G09RevA.02 11-Jun-2009

 ----------------------------------------------------------------------
 # b3lyp/6-31G* Opt=(ModRedundant, maxcycles=1000, calcfc) geom=nocrowd
 ----------------------------------------------------------------------

 ------------------
 Phi Psi fixed scan
 ------------------
 Symbolic Z-matrix:
 Charge =  0 Multiplicity = 1

 SCF Done:  E(RB3LYP) =  -495.831217543     A.U. after   15 cycles

  Exact polarizability:   0.000   0.000   0.000   0.000   0.000   0.000
 Approx polarizability: 118.329  -7.357 115.669   7.703   4.899 102.489

 SCF Done:  E(RB3LYP) =  -495.835770776     A.U. after   16 cycles
 SCF Done:  E(RB3LYP) =  -495.840749687     A.U. after   13 cycles
 SCF Done:  E(RB3LYP) =  -495.841887033     A.U. after   12 cycles
 SCF Done:  E(RB3LYP) =  -495.841095637     A.U. after   12 cycles
 SCF Done:  E(RB3LYP) =  -495.842002766     A.U. after   12 cycles
 SCF Done:  E(RB3LYP) =  -495.842437132     A.U. after   12 cycles
 SCF Done:  E(RB3LYP) =  -495.842295723     A.U. after   13 cycles
 SCF Done:  E(RB3LYP) =  -495.842793581     A.U. after   12 cycles
 SCF Done:  E(RB3LYP) =  -495.842765613     A.U. after   11 cycles
 SCF Done:  E(RB3LYP) =  -495.842821723     A.U. after   11 cycles
 SCF Done:  E(RB3LYP) =  -495.842848575     A.U. after   11 cycles
 SCF Done:  E(RB3LYP) =  -495.842852528     A.U. after    8 cycles
 SCF Done:  E(RB3LYP) =  -495.842863466     A.U. after   10 cycles
 SCF Done:  E(RB3LYP) =  -495.842880361     A.U. after   10 cycles
 SCF Done:  E(RB3LYP) =  -495.842900710     A.U. after   10 cycles
 SCF Done:  E(RB3LYP) =  -495.842908579     A.U. after   10 cycles
 SCF Done:  E(RB3LYP) =  -495.842909504     A.U. after    8 cycles
 SCF Done:  E(RB3LYP) =  -495.842909647     A.U. after    7 cycles
 Optimization completed.
    -- Stationary point found.

                         Standard orientation:
 ---------------------------------------------------------------------
 Center     Atomic      Atomic             Coordinates (Angstroms)
 Number     Number       Type             X           Y           Z
 ---------------------------------------------------------------------
      1          1           0        3.771777   -0.990240   -1.388322
      2          6           0        3.110939   -1.329874   -0.586148
      3          1           0        3.746163   -1.670358    0.238722
      4          1           0        2.514763   -2.174059   -0.945943
      5          6           0        2.277486   -0.145955   -0.109739
      6          8           0        2.790953    0.934902    0.151741
      7          7           0        0.932332   -0.397225   -0.010542
      8          1           0        0.647402   -1.368693    0.007926
      9          6           0       -0.040131    0.527705    0.589615
     10          1           0        0.148687    0.614412    1.668270
     11          6           0        0.016202    1.925695   -0.037597
     12          1           0       -0.079384    1.877100   -1.129455
     13          1           0       -0.785703    2.553168    0.368297
     14          1           0        0.977180    2.389423    0.181613
     15          6           0       -1.397712   -0.199533    0.463544
     16          8           0       -1.613395   -1.196363    1.148412
     17          7           0       -2.254856    0.248968   -0.491777
     18          1           0       -2.014178    1.081899   -1.007299
     19          6           0       -3.545533   -0.371990   -0.736778
     20          1           0       -3.614433   -1.248131   -0.091143
     21          1           0       -4.368232    0.313755   -0.501751
     22          1           0       -3.634335   -0.685074   -1.783293
 ---------------------------------------------------------------------

 The electronic state is 1-A.
 Alpha  occ. eigenvalues --  -19.11706 -19.10752 -14.37237 -14.35974 -10.29214
 Alpha  occ. eigenvalues --  -10.28631 -10.23904 -10.22507 -10.18995 -10.18433
 Alpha  occ. eigenvalues --   -1.03899  -1.02586  -0.92926  -0.91978  -0.78211
 Alpha  occ. eigenvalues --   -0.72883  -0.71006  -0.65536  -0.59276  -0.57001
 Alpha  occ. eigenvalues --   -0.53624  -0.50177  -0.47261  -0.45493  -0.45212
 Alpha  occ. eigenvalues --   -0.44380  -0.42430  -0.41494  -0.40353  -0.39759
 Alpha  occ. eigenvalues --   -0.38683  -0.38574  -0.38104  -0.36871  -0.34608
 Alpha  occ. eigenvalues --   -0.26477  -0.25767  -0.25308  -0.24077
 Alpha virt. eigenvalues --    0.01669   0.02778   0.07414   0.08667   0.11373
 Alpha virt. eigenvalues --    0.13179   0.13710   0.14853   0.15612   0.15796
 Alpha virt. eigenvalues --    0.16400   0.17160   0.18259   0.18670   0.19780

 Mulliken atomic charges:
              1
     1  H    0.185549
     2  C   -0.537213
     3  H    0.184615
     4  H    0.148692
     5  C    0.596627
     6  O   -0.508551
     7  N   -0.614867
     8  H    0.340551
     9  C    0.024903
    10  H    0.172826
    11  C   -0.491335
    12  H    0.142749
    13  H    0.145369
    14  H    0.213758
    15  C    0.550008
    16  O   -0.522702
    17  N   -0.582192
    18  H    0.336710
    19  C   -0.314448
    20  H    0.206791
    21  H    0.161747
    22  H    0.160412
 Sum of Mulliken atomic charges =   0.00000

 Dipole moment (field-independent basis, Debye):
    X=             -2.3715    Y=             -0.1028    Z=             -2.5391  Tot=              3.4758
 Quadrupole moment (field-independent basis, Debye-Ang):
   XX=            -59.9285   YY=            -60.1472   ZZ=            -60.6413
   XY=            -11.3881   XZ=              3.9347   YZ=              2.2171

 Normal termination of Gaussian 09 at Fri Feb 10 21:10:56 2017.
