 Gaussian 09, Revision A.02,
 Gaussian 09:  EM64L-G09RevA.02 11-Jun-2009

 ----------------------------------------------------------------------
 # b3lyp/6-31G* Opt=(ModRedundant, maxcycles=1000, calcfc) geom=nocrowd
 ----------------------------------------------------------------------

 ------------------
 Phi Psi fixed scan
 ------------------
 Symbolic Z-matrix:
 Charge =  0 Multiplicity = 1

 SCF Done:  E(RB3LYP) =  -495.836372060     A.U. after   15 cycles

  Exact polarizability:   0.000   0.000   0.000   0.000   0.000   0.000
 Approx polarizability: 116.944  -6.332 114.090   9.856   3.929 104.045

 SCF Done:  E(RB3LYP) =  -495.839623756     A.U. after   12 cycles
 SCF Done:  E(RB3LYP) =  -495.843068594     A.U. after   12 cycles
 SCF Done:  E(RB3LYP) =  -495.843920882     A.U. after   13 cycles
 SCF Done:  E(RB3LYP) =  -495.841726390     A.U. after   13 cycles
 SCF Done:  E(RB3LYP) =  -495.844003318     A.U. after   13 cycles
 SCF Done:  E(RB3LYP) =  -495.844370314     A.U. after   12 cycles
 SCF Done:  E(RB3LYP) =  -495.843627911     A.U. after   15 cycles
 SCF Done:  E(RB3LYP) =  -495.844698189     A.U. after   13 cycles
 SCF Done:  E(RB3LYP) =  -495.844679704     A.U. after   11 cycles
 SCF Done:  E(RB3LYP) =  -495.844810699     A.U. after   11 cycles
 SCF Done:  E(RB3LYP) =  -495.844826106     A.U. after   11 cycles
 SCF Done:  E(RB3LYP) =  -495.844828787     A.U. after   10 cycles
 SCF Done:  E(RB3LYP) =  -495.844829243     A.U. after    8 cycles
 SCF Done:  E(RB3LYP) =  -495.844829412     A.U. after    7 cycles
 SCF Done:  E(RB3LYP) =  -495.844830177     A.U. after    9 cycles
 SCF Done:  E(RB3LYP) =  -495.844830626     A.U. after    9 cycles
 SCF Done:  E(RB3LYP) =  -495.844830649     A.U. after    6 cycles
 Optimization completed.
    -- Stationary point found.

                         Standard orientation:
 ---------------------------------------------------------------------
 Center     Atomic      Atomic             Coordinates (Angstroms)
 Number     Number       Type             X           Y           Z
 ---------------------------------------------------------------------
      1          1           0       -3.842409   -1.722015    0.203238
      2          6           0       -3.026129   -1.293258    0.788462
      3          1           0       -2.446634   -2.098453    1.251449
      4          1           0       -3.470092   -0.683830    1.584689
      5          6           0       -2.190510   -0.401072   -0.119171
      6          8           0       -2.680225    0.249152   -1.031814
      7          7           0       -0.837309   -0.403053    0.145617
      8          1           0       -0.567054   -0.772511    1.050247
      9          6           0        0.043102    0.655687   -0.384079
     10          1           0        0.000920    0.584164   -1.476900
     11          6           0       -0.366568    2.065115    0.047989
     12          1           0       -0.286365    2.168470    1.133358
     13          1           0        0.301010    2.804833   -0.405791
     14          1           0       -1.389468    2.267229   -0.274291
     15          6           0        1.470423    0.332093    0.108114
     16          8           0        2.001027    0.939392    1.029635
     17          7           0        2.064906   -0.702714   -0.554363
     18          1           0        1.527772   -1.182273   -1.263298
     19          6           0        3.378966   -1.213709   -0.206945
     20          1           0        3.803687   -0.541160    0.539447
     21          1           0        3.320345   -2.224487    0.216038
     22          1           0        4.032989   -1.237097   -1.085742
 ---------------------------------------------------------------------

 The electronic state is 1-A.
 Alpha  occ. eigenvalues --  -19.11859 -19.11390 -14.36904 -14.36415 -10.29051
 Alpha  occ. eigenvalues --  -10.29032 -10.23617 -10.22383 -10.19519 -10.16942
 Alpha  occ. eigenvalues --   -1.03903  -1.03169  -0.93076  -0.91892  -0.77746
 Alpha  occ. eigenvalues --   -0.72917  -0.71466  -0.64071  -0.58733  -0.58010
 Alpha  occ. eigenvalues --   -0.53453  -0.48169  -0.47705  -0.46553  -0.45341
 Alpha  occ. eigenvalues --   -0.44833  -0.42228  -0.41433  -0.40293  -0.39876
 Alpha  occ. eigenvalues --   -0.39485  -0.37753  -0.36755  -0.36161  -0.34620
 Alpha  occ. eigenvalues --   -0.26769  -0.25819  -0.25543  -0.24614
 Alpha virt. eigenvalues --    0.01476   0.02306   0.07343   0.07915   0.11732
 Alpha virt. eigenvalues --    0.12802   0.13122   0.14919   0.15521   0.16188
 Alpha virt. eigenvalues --    0.16659   0.17075   0.18061   0.19061   0.19889

 Mulliken atomic charges:
              1
     1  H    0.188826
     2  C   -0.542750
     3  H    0.152645
     4  H    0.183552
     5  C    0.594346
     6  O   -0.500230
     7  N   -0.607735
     8  H    0.329268
     9  C   -0.024981
    10  H    0.163641
    11  C   -0.448410
    12  H    0.159670
    13  H    0.152095
    14  H    0.177864
    15  C    0.565058
    16  O   -0.508727
    17  N   -0.578187
    18  H    0.333443
    19  C   -0.312860
    20  H    0.205019
    21  H    0.157659
    22  H    0.160796
 Sum of Mulliken atomic charges =   0.00000

 Dipole moment (field-independent basis, Debye):
    X=              1.1973    Y=             -3.4012    Z=              0.2306  Tot=              3.6132
 Quadrupole moment (field-independent basis, Debye-Ang):
   XX=            -63.1951   YY=            -58.0690   ZZ=            -60.9171
   XY=             -2.4245   XZ=            -11.7229   YZ=             -1.3913

 Normal termination of Gaussian 09 at Fri Feb 10 21:17:32 2017.
