 Gaussian 09, Revision A.02,
 Gaussian 09:  EM64L-G09RevA.02 11-Jun-2009

 ----------------------------------------------------------------------
 # b3lyp/6-31G* Opt=(ModRedundant, maxcycles=1000, calcfc) geom=nocrowd
 ----------------------------------------------------------------------

 ------------------
 Phi Psi fixed scan
 ------------------
 Symbolic Z-matrix:
 Charge =  0 Multiplicity = 1

 SCF Done:  E(RB3LYP) =  -495.838922290     A.U. after   14 cycles

  Exact polarizability:   0.000   0.000   0.000   0.000   0.000   0.000
 Approx polarizability: 117.192  -9.628 101.034   3.960  -2.263 117.049

 SCF Done:  E(RB3LYP) =  -495.842180066     A.U. after   12 cycles
 SCF Done:  E(RB3LYP) =  -495.845282774     A.U. after   12 cycles
 SCF Done:  E(RB3LYP) =  -495.846211652     A.U. after   12 cycles
 SCF Done:  E(RB3LYP) =  -495.840149659     A.U. after   13 cycles
 SCF Done:  E(RB3LYP) =  -495.846354723     A.U. after   13 cycles
 SCF Done:  E(RB3LYP) =  -495.846966541     A.U. after   12 cycles
 SCF Done:  E(RB3LYP) =  -495.846905639     A.U. after   12 cycles
 SCF Done:  E(RB3LYP) =  -495.838506803     A.U. after   13 cycles
 SCF Done:  E(RB3LYP) =  -495.846975250     A.U. after   13 cycles
 SCF Done:  E(RB3LYP) =  -495.847088809     A.U. after   11 cycles
 SCF Done:  E(RB3LYP) =  -495.847094135     A.U. after   10 cycles
 SCF Done:  E(RB3LYP) =  -495.847095098     A.U. after    8 cycles
 SCF Done:  E(RB3LYP) =  -495.847095797     A.U. after    7 cycles
 SCF Done:  E(RB3LYP) =  -495.847096714     A.U. after    9 cycles
 SCF Done:  E(RB3LYP) =  -495.847097674     A.U. after    9 cycles
 SCF Done:  E(RB3LYP) =  -495.847097697     A.U. after    7 cycles
 SCF Done:  E(RB3LYP) =  -495.847097689     A.U. after    6 cycles
 Optimization completed.
    -- Stationary point found.

                         Standard orientation:
 ---------------------------------------------------------------------
 Center     Atomic      Atomic             Coordinates (Angstroms)
 Number     Number       Type             X           Y           Z
 ---------------------------------------------------------------------
      1          1           0       -3.899145   -1.676907   -0.171306
      2          6           0       -3.150927   -1.290999    0.525197
      3          1           0       -2.618128   -2.128187    0.986815
      4          1           0       -3.682545   -0.739844    1.309649
      5          6           0       -2.235120   -0.332417   -0.222996
      6          8           0       -2.655590    0.454174   -1.061643
      7          7           0       -0.899605   -0.436906    0.089110
      8          1           0       -0.669165   -0.913025    0.954406
      9          6           0        0.052474    0.618489   -0.283548
     10          1           0        0.041618    0.691422   -1.376651
     11          6           0       -0.285083    1.987794    0.321061
     12          1           0       -0.228219    1.934948    1.411826
     13          1           0        0.432977    2.741514   -0.022578
     14          1           0       -1.286427    2.293291    0.012184
     15          6           0        1.420975    0.141484    0.231123
     16          8           0        1.668157    0.125870    1.433472
     17          7           0        2.277131   -0.320953   -0.720565
     18          1           0        1.983652   -0.287270   -1.686200
     19          6           0        3.596000   -0.844409   -0.408431
     20          1           0        3.712812   -0.806038    0.675321
     21          1           0        3.696306   -1.882647   -0.745315
     22          1           0        4.383129   -0.242241   -0.877026
 ---------------------------------------------------------------------

 The electronic state is 1-A.
 Alpha  occ. eigenvalues --  -19.11911 -19.10865 -14.37354 -14.35817 -10.29213
 Alpha  occ. eigenvalues --  -10.28566 -10.23615 -10.22531 -10.19066 -10.17338
 Alpha  occ. eigenvalues --   -1.04005  -1.02702  -0.92965  -0.91897  -0.77695
 Alpha  occ. eigenvalues --   -0.72795  -0.71434  -0.64302  -0.59220  -0.57600
 Alpha  occ. eigenvalues --   -0.53431  -0.48232  -0.47117  -0.46464  -0.45461
 Alpha  occ. eigenvalues --   -0.44624  -0.42349  -0.41202  -0.40560  -0.39785
 Alpha  occ. eigenvalues --   -0.39459  -0.37862  -0.36671  -0.36063  -0.34502
 Alpha  occ. eigenvalues --   -0.26588  -0.25982  -0.25367  -0.24306
 Alpha virt. eigenvalues --    0.01780   0.02662   0.06761   0.08536   0.11660
 Alpha virt. eigenvalues --    0.13258   0.13632   0.15194   0.15886   0.15951
 Alpha virt. eigenvalues --    0.16722   0.16895   0.18439   0.19213   0.19833

 Mulliken atomic charges:
              1
     1  H    0.186620
     2  C   -0.539923
     3  H    0.152525
     4  H    0.182770
     5  C    0.594824
     6  O   -0.508121
     7  N   -0.603489
     8  H    0.335405
     9  C   -0.006823
    10  H    0.150411
    11  C   -0.459131
    12  H    0.167225
    13  H    0.144203
    14  H    0.183865
    15  C    0.581709
    16  O   -0.525866
    17  N   -0.583788
    18  H    0.332044
    19  C   -0.314527
    20  H    0.206576
    21  H    0.161566
    22  H    0.161925
 Sum of Mulliken atomic charges =   0.00000

 Dipole moment (field-independent basis, Debye):
    X=              2.1434    Y=             -1.8831    Z=             -0.8669  Tot=              2.9818
 Quadrupole moment (field-independent basis, Debye-Ang):
   XX=            -58.4197   YY=            -58.1383   ZZ=            -62.3146
   XY=              2.5350   XZ=            -13.4229   YZ=              0.0390

 Normal termination of Gaussian 09 at Fri Feb 10 21:09:29 2017.
