 Gaussian 09, Revision A.02,
 Gaussian 09:  EM64L-G09RevA.02 11-Jun-2009

 ----------------------------------------------------------------------
 # b3lyp/6-31G* Opt=(ModRedundant, maxcycles=1000, calcfc) geom=nocrowd
 ----------------------------------------------------------------------

 ------------------
 Phi Psi fixed scan
 ------------------
 Symbolic Z-matrix:
 Charge =  0 Multiplicity = 1

 SCF Done:  E(RB3LYP) =  -495.844655558     A.U. after   14 cycles

  Exact polarizability:   0.000   0.000   0.000   0.000   0.000   0.000
 Approx polarizability: 119.669  -2.484 120.855  -3.462 -18.023  93.303

 SCF Done:  E(RB3LYP) =  -495.847499755     A.U. after   12 cycles
 SCF Done:  E(RB3LYP) =  -495.850481548     A.U. after   12 cycles
 SCF Done:  E(RB3LYP) =  -495.851126128     A.U. after   13 cycles
 SCF Done:  E(RB3LYP) =  -495.826707380     A.U. after   15 cycles
 SCF Done:  E(RB3LYP) =  -495.836564198     A.U. after   12 cycles
 SCF Done:  E(RB3LYP) =  -495.843212662     A.U. after   12 cycles
 SCF Done:  E(RB3LYP) =  -495.847682262     A.U. after   13 cycles
 SCF Done:  E(RB3LYP) =  -495.849052897     A.U. after   12 cycles
 SCF Done:  E(RB3LYP) =  -495.849313575     A.U. after   12 cycles
 SCF Done:  E(RB3LYP) =  -495.849498577     A.U. after   13 cycles
 SCF Done:  E(RB3LYP) =  -495.851406823     A.U. after   12 cycles
 SCF Done:  E(RB3LYP) =  -495.851449712     A.U. after   11 cycles
 SCF Done:  E(RB3LYP) =  -495.851491165     A.U. after   11 cycles
 SCF Done:  E(RB3LYP) =  -495.851512964     A.U. after   10 cycles
 SCF Done:  E(RB3LYP) =  -495.851528169     A.U. after   10 cycles
 SCF Done:  E(RB3LYP) =  -495.851529773     A.U. after   10 cycles
 SCF Done:  E(RB3LYP) =  -495.851530035     A.U. after    8 cycles
 SCF Done:  E(RB3LYP) =  -495.851529978     A.U. after    7 cycles
 SCF Done:  E(RB3LYP) =  -495.851529972     A.U. after    6 cycles
 Optimization completed.
    -- Stationary point found.

                         Standard orientation:
 ---------------------------------------------------------------------
 Center     Atomic      Atomic             Coordinates (Angstroms)
 Number     Number       Type             X           Y           Z
 ---------------------------------------------------------------------
      1          1           0       -4.007962   -1.257219   -0.839466
      2          6           0       -3.331019   -1.184281    0.016483
      3          1           0       -2.870973   -2.160976    0.194882
      4          1           0       -3.935784   -0.912497    0.888247
      5          6           0       -2.324311   -0.073667   -0.249900
      6          8           0       -2.673730    1.049963   -0.599101
      7          7           0       -1.013701   -0.426096   -0.100010
      8          1           0       -0.764409   -1.305401    0.339874
      9          6           0        0.068703    0.544711   -0.126371
     10          1           0        0.068897    1.042321   -1.104086
     11          6           0       -0.051795    1.615288    0.978218
     12          1           0       -0.021251    1.141457    1.964876
     13          1           0        0.772625    2.334634    0.912907
     14          1           0       -0.996767    2.148483    0.860226
     15          6           0        1.366080   -0.252844    0.075391
     16          8           0        1.379840   -1.283880    0.744025
     17          7           0        2.469546    0.275057   -0.517669
     18          1           0        2.363432    1.118783   -1.062987
     19          6           0        3.798150   -0.294185   -0.365277
     20          1           0        3.695966   -1.208342    0.220514
     21          1           0        4.231997   -0.538563   -1.341261
     22          1           0        4.469586    0.395787    0.159377
 ---------------------------------------------------------------------

 The electronic state is 1-A.
 Alpha  occ. eigenvalues --  -19.12463 -19.09982 -14.37625 -14.35032 -10.29639
 Alpha  occ. eigenvalues --  -10.27924 -10.23803 -10.22766 -10.18487 -10.18154
 Alpha  occ. eigenvalues --   -1.04486  -1.01930  -0.93324  -0.91481  -0.77908
 Alpha  occ. eigenvalues --   -0.72704  -0.71229  -0.64765  -0.59814  -0.57150
 Alpha  occ. eigenvalues --   -0.53575  -0.48421  -0.47257  -0.46317  -0.45218
 Alpha  occ. eigenvalues --   -0.44346  -0.42964  -0.41204  -0.40482  -0.40064
 Alpha  occ. eigenvalues --   -0.38828  -0.38232  -0.36847  -0.36554  -0.34039
 Alpha  occ. eigenvalues --   -0.26748  -0.26551  -0.24620  -0.23779
 Alpha virt. eigenvalues --    0.01613   0.03663   0.06431   0.09710   0.11501
 Alpha virt. eigenvalues --    0.13311   0.13906   0.14806   0.15699   0.15831
 Alpha virt. eigenvalues --    0.16811   0.17455   0.18354   0.18882   0.19342

 Mulliken atomic charges:
              1
     1  H    0.183420
     2  C   -0.534664
     3  H    0.149736
     4  H    0.180790
     5  C    0.597703
     6  O   -0.521993
     7  N   -0.609870
     8  H    0.345393
     9  C   -0.011737
    10  H    0.156069
    11  C   -0.455059
    12  H    0.158849
    13  H    0.135790
    14  H    0.199712
    15  C    0.597851
    16  O   -0.531817
    17  N   -0.590482
    18  H    0.331225
    19  C   -0.313768
    20  H    0.207581
    21  H    0.162753
    22  H    0.162519
 Sum of Mulliken atomic charges =   0.00000

 Dipole moment (field-independent basis, Debye):
    X=              3.1702    Y=              0.0823    Z=             -0.5636  Tot=              3.2210
 Quadrupole moment (field-independent basis, Debye-Ang):
   XX=            -55.0689   YY=            -61.8088   ZZ=            -60.3038
   XY=             11.6881   XZ=             -7.2975   YZ=              1.6404

 Normal termination of Gaussian 09 at Fri Feb 10 21:30:35 2017.
