 Gaussian 09, Revision A.02,
 Gaussian 09:  EM64L-G09RevA.02 11-Jun-2009

 ----------------------------------------------------------------------
 # b3lyp/6-31G* Opt=(ModRedundant, maxcycles=1000, calcfc) geom=nocrowd
 ----------------------------------------------------------------------

 ------------------
 Phi Psi fixed scan
 ------------------
 Symbolic Z-matrix:
 Charge =  0 Multiplicity = 1

 SCF Done:  E(RB3LYP) =  -495.837221926     A.U. after   15 cycles

  Exact polarizability:   0.000   0.000   0.000   0.000   0.000   0.000
 Approx polarizability: 116.666  -8.389 107.033   7.718   3.049 111.513

 SCF Done:  E(RB3LYP) =  -495.840284067     A.U. after   12 cycles
 SCF Done:  E(RB3LYP) =  -495.843578504     A.U. after   13 cycles
 SCF Done:  E(RB3LYP) =  -495.844561322     A.U. after   13 cycles
 SCF Done:  E(RB3LYP) =  -495.840805991     A.U. after   13 cycles
 SCF Done:  E(RB3LYP) =  -495.844634663     A.U. after   13 cycles
 SCF Done:  E(RB3LYP) =  -495.845069850     A.U. after   12 cycles
 SCF Done:  E(RB3LYP) =  -495.844592957     A.U. after   13 cycles
 SCF Done:  E(RB3LYP) =  -495.845445090     A.U. after   13 cycles
 SCF Done:  E(RB3LYP) =  -495.845408232     A.U. after   11 cycles
 SCF Done:  E(RB3LYP) =  -495.845537793     A.U. after   11 cycles
 SCF Done:  E(RB3LYP) =  -495.845553388     A.U. after   10 cycles
 SCF Done:  E(RB3LYP) =  -495.845554430     A.U. after    8 cycles
 SCF Done:  E(RB3LYP) =  -495.845554690     A.U. after    7 cycles
 SCF Done:  E(RB3LYP) =  -495.845554983     A.U. after    7 cycles
 SCF Done:  E(RB3LYP) =  -495.845556263     A.U. after    9 cycles
 SCF Done:  E(RB3LYP) =  -495.845556640     A.U. after    9 cycles
 Optimization completed.
    -- Stationary point found.

                         Standard orientation:
 ---------------------------------------------------------------------
 Center     Atomic      Atomic             Coordinates (Angstroms)
 Number     Number       Type             X           Y           Z
 ---------------------------------------------------------------------
      1          1           0       -3.880052   -1.696075    0.124959
      2          6           0       -3.079707   -1.269420    0.733440
      3          1           0       -2.522470   -2.075550    1.221208
      4          1           0       -3.544621   -0.649955    1.509667
      5          6           0       -2.207482   -0.391024   -0.152733
      6          8           0       -2.664097    0.267048   -1.077594
      7          7           0       -0.862647   -0.414622    0.145395
      8          1           0       -0.616329   -0.775205    1.060669
      9          6           0        0.045957    0.625765   -0.366650
     10          1           0        0.021150    0.558931   -1.460019
     11          6           0       -0.341150    2.043605    0.064513
     12          1           0       -0.263195    2.138523    1.150758
     13          1           0        0.339782    2.773724   -0.387136
     14          1           0       -1.358739    2.265510   -0.261676
     15          6           0        1.445809    0.267273    0.169219
     16          8           0        1.828167    0.644425    1.271506
     17          7           0        2.175845   -0.547962   -0.643145
     18          1           0        1.764222   -0.843352   -1.516966
     19          6           0        3.485322   -1.059670   -0.278685
     20          1           0        3.763519   -0.596586    0.668874
     21          1           0        3.467514   -2.149162   -0.153028
     22          1           0        4.231769   -0.803677   -1.038985
 ---------------------------------------------------------------------

 The electronic state is 1-A.
 Alpha  occ. eigenvalues --  -19.11869 -19.11163 -14.37120 -14.36126 -10.29114
 Alpha  occ. eigenvalues --  -10.28813 -10.23606 -10.22441 -10.19301 -10.17087
 Alpha  occ. eigenvalues --   -1.03930  -1.02964  -0.92939  -0.91961  -0.77707
 Alpha  occ. eigenvalues --   -0.72855  -0.71446  -0.64168  -0.58956  -0.57803
 Alpha  occ. eigenvalues --   -0.53423  -0.48202  -0.47369  -0.46491  -0.45403
 Alpha  occ. eigenvalues --   -0.44751  -0.42250  -0.41295  -0.40474  -0.39690
 Alpha  occ. eigenvalues --   -0.39623  -0.37786  -0.36711  -0.36045  -0.34583
 Alpha  occ. eigenvalues --   -0.26682  -0.25689  -0.25628  -0.24488
 Alpha virt. eigenvalues --    0.01800   0.02325   0.07067   0.08037   0.11701
 Alpha virt. eigenvalues --    0.13025   0.13441   0.15067   0.15570   0.16117
 Alpha virt. eigenvalues --    0.16787   0.16995   0.18234   0.19259   0.19844

 Mulliken atomic charges:
              1
     1  H    0.187789
     2  C   -0.542115
     3  H    0.153596
     4  H    0.182893
     5  C    0.594365
     6  O   -0.503596
     7  N   -0.604998
     8  H    0.332535
     9  C   -0.014696
    10  H    0.154450
    11  C   -0.455027
    12  H    0.165776
    13  H    0.147187
    14  H    0.180101
    15  C    0.573071
    16  O   -0.516234
    17  N   -0.580784
    18  H    0.332755
    19  C   -0.313888
    20  H    0.205708
    21  H    0.160044
    22  H    0.161067
 Sum of Mulliken atomic charges =   0.00000

 Dipole moment (field-independent basis, Debye):
    X=              1.6609    Y=             -2.7355    Z=             -0.3078  Tot=              3.2150
 Quadrupole moment (field-independent basis, Debye-Ang):
   XX=            -60.7964   YY=            -58.0425   ZZ=            -61.6515
   XY=             -0.9376   XZ=            -12.9869   YZ=             -1.0481

 Normal termination of Gaussian 09 at Fri Feb 10 21:25:03 2017.
