 Gaussian 09, Revision A.02,
 Gaussian 09:  EM64L-G09RevA.02 11-Jun-2009

 -------------------------------------------------------------------
 # HF/6-31G* Opt=(ModRedundant, maxcycles=1000, calcfc) geom=nocrowd
 -------------------------------------------------------------------

 ------------------
 Phi Psi fixed scan
 ------------------
 Symbolic Z-matrix:
 Charge =  0 Multiplicity = 1

 SCF Done:  E(RHF) =  -984.536855095     A.U. after   15 cycles

  Exact polarizability:   0.000   0.000   0.000   0.000   0.000   0.000
 Approx polarizability: 130.653  -4.969 132.613   2.063  13.609 125.382

 SCF Done:  E(RHF) =  -984.545400164     A.U. after   13 cycles
 SCF Done:  E(RHF) =  -984.554409243     A.U. after   13 cycles
 SCF Done:  E(RHF) =  -984.556410032     A.U. after   13 cycles
 SCF Done:  E(RHF) =  -984.558519436     A.U. after   13 cycles
 SCF Done:  E(RHF) =  -984.558609500     A.U. after   13 cycles
 SCF Done:  E(RHF) =  -984.559083995     A.U. after   14 cycles
 SCF Done:  E(RHF) =  -984.438108775     A.U. after   16 cycles
 SCF Done:  E(RHF) =  -984.559265855     A.U. after   16 cycles
 SCF Done:  E(RHF) =  -984.559358114     A.U. after   13 cycles
 SCF Done:  E(RHF) =  -984.559622891     A.U. after   11 cycles
 SCF Done:  E(RHF) =  -984.559623562     A.U. after   10 cycles
 SCF Done:  E(RHF) =  -984.559624971     A.U. after    9 cycles
 SCF Done:  E(RHF) =  -984.559625717     A.U. after    9 cycles
 SCF Done:  E(RHF) =  -984.559626877     A.U. after   10 cycles
 SCF Done:  E(RHF) =  -984.559627810     A.U. after    9 cycles
 SCF Done:  E(RHF) =  -984.559628953     A.U. after   10 cycles
 SCF Done:  E(RHF) =  -984.559629046     A.U. after   10 cycles
 SCF Done:  E(RHF) =  -984.559629348     A.U. after    9 cycles
 SCF Done:  E(RHF) =  -984.559629382     A.U. after    7 cycles
 Optimization completed.
    -- Stationary point found.

                         Standard orientation:
 ---------------------------------------------------------------------
 Center     Atomic      Atomic             Coordinates (Angstroms)
 Number     Number       Type             X           Y           Z
 ---------------------------------------------------------------------
      1          1           0        7.079414    0.871959    0.833287
      2          6           0        6.488522    0.701409   -0.056717
      3          1           0        6.595910   -0.329177   -0.372401
      4          1           0        6.872056    1.347594   -0.838956
      5          6           0        5.055205    1.092193    0.231124
      6          8           0        4.783496    2.099345    0.831806
      7          7           0        4.111452    0.255354   -0.245422
      8          1           0        4.355923   -0.585553   -0.718159
      9          6           0        2.703013    0.497018   -0.054159
     10          1           0        2.558992    0.888615    0.945187
     11          6           0        2.143919    1.504282   -1.068770
     12          1           0        2.262685    1.126910   -2.078584
     13          1           0        1.090613    1.698752   -0.894740
     14          1           0        2.684328    2.436771   -0.975032
     15          6           0        1.985910   -0.843416   -0.190836
     16          8           0        2.482623   -1.762751   -0.785031
     17          7           0        0.759137   -0.894136    0.374011
     18          1           0        0.456505   -0.105964    0.900893
     19          6           0       -0.109779   -2.056901    0.286311
     20          1           0        0.379167   -2.753458   -0.372713
     21          6           0       -0.328637   -2.705472    1.654790
     22          1           0       -0.760517   -2.010832    2.368792
     23          1           0       -0.994518   -3.557561    1.569426
     24          1           0        0.619932   -3.048254    2.050426
     25          6           0       -1.430039   -1.703273   -0.401780
     26          8           0       -1.777873   -2.257891   -1.409156
     27          7           0       -2.174935   -0.750074    0.196322
     28          1           0       -1.892606   -0.314023    1.045117
     29          6           0       -3.415767   -0.269256   -0.361748
     30          1           0       -3.303196   -0.211378   -1.437228
     31          6           0       -4.596583   -1.191784   -0.031755
     32          1           0       -4.737956   -1.254211    1.041817
     33          1           0       -5.516881   -0.830926   -0.479051
     34          1           0       -4.392786   -2.181669   -0.417816
     35          6           0       -3.649477    1.128145    0.208013
     36          8           0       -3.109188    1.488313    1.223223
     37          7           0       -4.516229    1.898661   -0.469179
     38          1           0       -4.857970    1.583632   -1.347282
     39          6           0       -4.843333    3.242141   -0.035080
     40          1           0       -5.112905    3.237828    1.011207
     41          1           0       -4.008057    3.918719   -0.172435
     42          1           0       -5.684284    3.596938   -0.614982
 ---------------------------------------------------------------------

 The electronic state is 1-A.
 Alpha  occ. eigenvalues --  -20.54459 -20.53917 -20.53079 -20.51443 -15.60493
 Alpha  occ. eigenvalues --  -15.60233 -15.59072 -15.57884 -11.36379 -11.36079
 Alpha  occ. eigenvalues --  -11.35209 -11.34317 -11.29136 -11.28391 -11.28213
 Alpha  occ. eigenvalues --  -11.27198 -11.23508 -11.23225 -11.22757 -11.22371
 Alpha  occ. eigenvalues --   -1.41440  -1.40969  -1.39790  -1.38343  -1.25994
 Alpha  occ. eigenvalues --   -1.25272  -1.24184  -1.23506  -1.07822  -1.05343
 Alpha  occ. eigenvalues --   -1.03076  -0.98675  -0.97231  -0.92129  -0.90138
 Alpha  occ. eigenvalues --   -0.87425  -0.81685  -0.81389  -0.79659  -0.78649
 Alpha  occ. eigenvalues --   -0.76128  -0.71747  -0.69091  -0.68003  -0.67044
 Alpha  occ. eigenvalues --   -0.65558  -0.65292  -0.64377  -0.63541  -0.63436
 Alpha  occ. eigenvalues --   -0.62444  -0.61478  -0.60747  -0.59902  -0.59062
 Alpha  occ. eigenvalues --   -0.58387  -0.57344  -0.56970  -0.56652  -0.56096
 Alpha  occ. eigenvalues --   -0.55968  -0.54549  -0.53947  -0.53871  -0.53179
 Alpha  occ. eigenvalues --   -0.52624  -0.52041  -0.50954  -0.49560  -0.44619
 Alpha  occ. eigenvalues --   -0.43847  -0.43023  -0.41251  -0.41190  -0.39612
 Alpha  occ. eigenvalues --   -0.39141  -0.38067
 Alpha virt. eigenvalues --    0.17699   0.18458   0.19515   0.20315   0.20538
 Alpha virt. eigenvalues --    0.21637   0.24057   0.24715   0.25439   0.27365
 Alpha virt. eigenvalues --    0.27553   0.28479   0.28969   0.29448   0.30325

 Mulliken atomic charges:
              1
     1  H    0.207651
     2  C   -0.575667
     3  H    0.173816
     4  H    0.202722
     5  C    0.755924
     6  O   -0.622748
     7  N   -0.823569
     8  H    0.419489
     9  C   -0.035123
    10  H    0.216404
    11  C   -0.487041
    12  H    0.179648
    13  H    0.160796
    14  H    0.212111
    15  C    0.791348
    16  O   -0.623847
    17  N   -0.826828
    18  H    0.392271
    19  C   -0.075000
    20  H    0.272988
    21  C   -0.485731
    22  H    0.157618
    23  H    0.186919
    24  H    0.193199
    25  C    0.794650
    26  O   -0.616127
    27  N   -0.835658
    28  H    0.414443
    29  C   -0.034386
    30  H    0.216506
    31  C   -0.484429
    32  H    0.177957
    33  H    0.160572
    34  H    0.212549
    35  C    0.778778
    36  O   -0.636401
    37  N   -0.798669
    38  H    0.391904
    39  C   -0.273529
    40  H    0.203598
    41  H    0.186591
    42  H    0.174304
 Sum of Mulliken atomic charges =   0.00000

 Dipole moment (field-independent basis, Debye):
    X=             -4.2068    Y=              0.9878    Z=             -0.3010  Tot=              4.3317
 Quadrupole moment (field-independent basis, Debye-Ang):
   XX=            -97.8700   YY=           -131.1511   ZZ=           -124.9950
   XY=            -17.5820   XZ=              0.8754   YZ=            -18.7874

 Normal termination of Gaussian 09 at Tue Dec 27 02:53:07 2016.
