 Gaussian 09, Revision A.02,
 Gaussian 09:  EM64L-G09RevA.02 11-Jun-2009

 -------------------------------------------------------------------
 # HF/6-31G* Opt=(ModRedundant, maxcycles=1000, calcfc) geom=nocrowd
 -------------------------------------------------------------------

 ------------------
 Phi Psi fixed scan
 ------------------
 Symbolic Z-matrix:
 Charge =  0 Multiplicity = 1

 SCF Done:  E(RHF) =  -984.543679693     A.U. after   15 cycles

  Exact polarizability:   0.000   0.000   0.000   0.000   0.000   0.000
 Approx polarizability: 136.395   8.012 126.829   3.574  -4.494 126.016

 SCF Done:  E(RHF) =  -984.551736936     A.U. after   13 cycles
 SCF Done:  E(RHF) =  -984.560200259     A.U. after   13 cycles
 SCF Done:  E(RHF) =  -984.562075075     A.U. after   13 cycles
 SCF Done:  E(RHF) =  -984.564064220     A.U. after   13 cycles
 SCF Done:  E(RHF) =  -984.564143256     A.U. after   13 cycles
 SCF Done:  E(RHF) =  -984.564590820     A.U. after   14 cycles
 SCF Done:  E(RHF) =  -984.440937959     A.U. after   16 cycles
 SCF Done:  E(RHF) =  -984.564760863     A.U. after   15 cycles
 SCF Done:  E(RHF) =  -984.564846458     A.U. after   12 cycles
 SCF Done:  E(RHF) =  -984.565137468     A.U. after   11 cycles
 SCF Done:  E(RHF) =  -984.565139404     A.U. after   10 cycles
 SCF Done:  E(RHF) =  -984.565134729     A.U. after   10 cycles
 SCF Done:  E(RHF) =  -984.565141494     A.U. after   10 cycles
 SCF Done:  E(RHF) =  -984.565141677     A.U. after    8 cycles
 SCF Done:  E(RHF) =  -984.565141884     A.U. after    9 cycles
 SCF Done:  E(RHF) =  -984.565142365     A.U. after    9 cycles
 SCF Done:  E(RHF) =  -984.565142530     A.U. after    9 cycles
 SCF Done:  E(RHF) =  -984.565142569     A.U. after    8 cycles
 SCF Done:  E(RHF) =  -984.565142577     A.U. after    7 cycles
 Optimization completed.
    -- Stationary point found.

                         Standard orientation:
 ---------------------------------------------------------------------
 Center     Atomic      Atomic             Coordinates (Angstroms)
 Number     Number       Type             X           Y           Z
 ---------------------------------------------------------------------
      1          1           0       -6.908290   -0.897404   -0.395088
      2          6           0       -5.978164   -1.319759   -0.750669
      3          1           0       -5.791425   -0.987492   -1.764655
      4          1           0       -6.081459   -2.399649   -0.752009
      5          6           0       -4.874303   -0.942474    0.213084
      6          8           0       -5.039887   -0.965021    1.405010
      7          7           0       -3.695287   -0.605231   -0.348476
      8          1           0       -3.585780   -0.565879   -1.336708
      9          6           0       -2.548592   -0.232242    0.441910
     10          1           0       -2.895001    0.359487    1.280144
     11          6           0       -1.787265   -1.454604    0.974943
     12          1           0       -1.403379   -2.051690    0.155336
     13          1           0       -0.952415   -1.162461    1.603349
     14          1           0       -2.462572   -2.059113    1.565666
     15          6           0       -1.638803    0.615546   -0.442009
     16          8           0       -1.697664    0.562537   -1.641701
     17          7           0       -0.741286    1.380577    0.222718
     18          1           0       -0.830976    1.454031    1.211987
     19          6           0        0.174546    2.294087   -0.437911
     20          1           0        0.026769    2.148752   -1.499305
     21          6           0       -0.128715    3.746097   -0.077533
     22          1           0       -0.025961    3.913086    0.990549
     23          1           0        0.555687    4.411327   -0.583365
     24          1           0       -1.144326    3.988577   -0.368304
     25          6           0        1.644068    1.950779   -0.165071
     26          8           0        2.493919    2.803144   -0.201272
     27          7           0        1.919797    0.653825    0.045758
     28          1           0        1.195611   -0.028172    0.054429
     29          6           0        3.269020    0.166612    0.201706
     30          1           0        3.902092    0.670806   -0.518453
     31          6           0        3.819015    0.420052    1.611858
     32          1           0        3.210374   -0.091589    2.349480
     33          1           0        4.840704    0.066401    1.703701
     34          1           0        3.803628    1.482216    1.816112
     35          6           0        3.241774   -1.331568   -0.088917
     36          8           0        2.234222   -1.977423    0.044187
     37          7           0        4.416001   -1.876777   -0.450256
     38          1           0        5.185317   -1.279056   -0.644751
     39          6           0        4.541114   -3.290308   -0.742703
     40          1           0        4.103959   -3.872696    0.055438
     41          1           0        4.044460   -3.550690   -1.670140
     42          1           0        5.591525   -3.534751   -0.823539
 ---------------------------------------------------------------------

 The electronic state is 1-A.
 Alpha  occ. eigenvalues --  -20.54386 -20.53966 -20.52716 -20.51543 -15.60421
 Alpha  occ. eigenvalues --  -15.60088 -15.58497 -15.57985 -11.36417 -11.35921
 Alpha  occ. eigenvalues --  -11.34976 -11.34404 -11.28742 -11.28505 -11.28346
 Alpha  occ. eigenvalues --  -11.26866 -11.22894 -11.22825 -11.22298 -11.22235
 Alpha  occ. eigenvalues --   -1.41400  -1.40953  -1.39507  -1.38452  -1.26211
 Alpha  occ. eigenvalues --   -1.24855  -1.23826  -1.23576  -1.07404  -1.05211
 Alpha  occ. eigenvalues --   -1.02914  -0.98690  -0.96902  -0.92004  -0.89845
 Alpha  occ. eigenvalues --   -0.86775  -0.81688  -0.80902  -0.79129  -0.78751
 Alpha  occ. eigenvalues --   -0.75977  -0.71672  -0.68909  -0.67982  -0.67676
 Alpha  occ. eigenvalues --   -0.65647  -0.64899  -0.64334  -0.63990  -0.63183
 Alpha  occ. eigenvalues --   -0.61745  -0.61136  -0.60484  -0.59901  -0.58589
 Alpha  occ. eigenvalues --   -0.58346  -0.56856  -0.56603  -0.56315  -0.56035
 Alpha  occ. eigenvalues --   -0.55167  -0.54540  -0.53813  -0.53415  -0.52708
 Alpha  occ. eigenvalues --   -0.52531  -0.52104  -0.50320  -0.49583  -0.44477
 Alpha  occ. eigenvalues --   -0.43499  -0.43272  -0.41344  -0.40767  -0.39805
 Alpha  occ. eigenvalues --   -0.38871  -0.38193
 Alpha virt. eigenvalues --    0.17930   0.18259   0.19762   0.20698   0.21078
 Alpha virt. eigenvalues --    0.21910   0.23773   0.25381   0.26049   0.26545
 Alpha virt. eigenvalues --    0.27864   0.28812   0.29156   0.29793   0.30541

 Mulliken atomic charges:
              1
     1  H    0.208199
     2  C   -0.576076
     3  H    0.173731
     4  H    0.203083
     5  C    0.755696
     6  O   -0.622038
     7  N   -0.822401
     8  H    0.418686
     9  C   -0.034629
    10  H    0.215830
    11  C   -0.490358
    12  H    0.189519
    13  H    0.162468
    14  H    0.211442
    15  C    0.782750
    16  O   -0.623334
    17  N   -0.838721
    18  H    0.392892
    19  C   -0.063445
    20  H    0.261526
    21  C   -0.474977
    22  H    0.159440
    23  H    0.209377
    24  H    0.175839
    25  C    0.786371
    26  O   -0.633870
    27  N   -0.838034
    28  H    0.438102
    29  C   -0.024577
    30  H    0.210300
    31  C   -0.487844
    32  H    0.177447
    33  H    0.161445
    34  H    0.211884
    35  C    0.775535
    36  O   -0.631196
    37  N   -0.799273
    38  H    0.390485
    39  C   -0.273418
    40  H    0.203242
    41  H    0.186155
    42  H    0.172744
 Sum of Mulliken atomic charges =   0.00000

 Dipole moment (field-independent basis, Debye):
    X=              3.7562    Y=             -1.1690    Z=             -0.7822  Tot=              4.0109
 Quadrupole moment (field-independent basis, Debye-Ang):
   XX=           -105.8715   YY=           -124.6136   ZZ=           -124.3188
   XY=            -16.1034   XZ=              9.7086   YZ=              8.1074

 Normal termination of Gaussian 09 at Tue Dec 27 02:33:32 2016.
