 Gaussian 09, Revision A.02,
 Gaussian 09:  EM64L-G09RevA.02 11-Jun-2009

 -------------------------------------------------------------------
 # HF/6-31G* Opt=(ModRedundant, maxcycles=1000, calcfc) geom=nocrowd
 -------------------------------------------------------------------

 ------------------
 Phi Psi fixed scan
 ------------------
 Symbolic Z-matrix:
 Charge =  0 Multiplicity = 1

 SCF Done:  E(RHF) =  -984.545884963     A.U. after   15 cycles

  Exact polarizability:   0.000   0.000   0.000   0.000   0.000   0.000
 Approx polarizability: 129.347  -0.998 120.836   0.259  14.625 138.370

 SCF Done:  E(RHF) =  -984.553622528     A.U. after   12 cycles
 SCF Done:  E(RHF) =  -984.561668101     A.U. after   13 cycles
 SCF Done:  E(RHF) =  -984.563453256     A.U. after   13 cycles
 SCF Done:  E(RHF) =  -984.565479839     A.U. after   15 cycles
 SCF Done:  E(RHF) =  -984.565558803     A.U. after   13 cycles
 SCF Done:  E(RHF) =  -984.566035525     A.U. after   14 cycles
 SCF Done:  E(RHF) =  -984.445768962     A.U. after   16 cycles
 SCF Done:  E(RHF) =  -984.566207604     A.U. after   16 cycles
 SCF Done:  E(RHF) =  -984.566302919     A.U. after   12 cycles
 SCF Done:  E(RHF) =  -984.566573955     A.U. after   10 cycles
 SCF Done:  E(RHF) =  -984.566574006     A.U. after   10 cycles
 SCF Done:  E(RHF) =  -984.566573902     A.U. after   10 cycles
 SCF Done:  E(RHF) =  -984.566574496     A.U. after   10 cycles
 SCF Done:  E(RHF) =  -984.566574748     A.U. after    9 cycles
 SCF Done:  E(RHF) =  -984.566574915     A.U. after    8 cycles
 SCF Done:  E(RHF) =  -984.566574995     A.U. after    9 cycles
 SCF Done:  E(RHF) =  -984.566575003     A.U. after    7 cycles
 SCF Done:  E(RHF) =  -984.566575006     A.U. after    6 cycles
 SCF Done:  E(RHF) =  -984.566575007     A.U. after    5 cycles
 Optimization completed.
    -- Stationary point found.

                         Standard orientation:
 ---------------------------------------------------------------------
 Center     Atomic      Atomic             Coordinates (Angstroms)
 Number     Number       Type             X           Y           Z
 ---------------------------------------------------------------------
      1          1           0       -6.810239   -1.995883   -1.034178
      2          6           0       -6.476482   -0.979082   -1.209969
      3          1           0       -7.338841   -0.330155   -1.132392
      4          1           0       -6.062972   -0.914685   -2.209024
      5          6           0       -5.488775   -0.602601   -0.126865
      6          8           0       -5.841314   -0.406113    1.007205
      7          7           0       -4.198701   -0.522679   -0.509883
      8          1           0       -3.930531   -0.663430   -1.457780
      9          6           0       -3.143949   -0.171445    0.408701
     10          1           0       -3.509270    0.607589    1.065744
     11          6           0       -2.691981   -1.368253    1.257328
     12          1           0       -2.308590   -2.158128    0.620331
     13          1           0       -1.916459   -1.085024    1.961699
     14          1           0       -3.538718   -1.746023    1.814647
     15          6           0       -1.976311    0.360460   -0.417146
     16          8           0       -1.849750    0.076957   -1.581148
     17          7           0       -1.105975    1.135483    0.257859
     18          1           0       -1.246584    1.298683    1.230561
     19          6           0        0.136452    1.627173   -0.306290
     20          1           0        0.195134    1.233913   -1.309117
     21          6           0        0.173857    3.153738   -0.341709
     22          1           0        0.089395    3.559384    0.659127
     23          1           0        1.106706    3.503615   -0.772834
     24          1           0       -0.645337    3.526671   -0.944857
     25          6           0        1.274051    1.089394    0.558204
     26          8           0        1.316307    1.351406    1.735596
     27          7           0        2.177492    0.314654   -0.057443
     28          1           0        2.109526    0.114252   -1.031174
     29          6           0        3.313657   -0.248585    0.634356
     30          1           0        3.679116    0.488900    1.337828
     31          6           0        2.946389   -1.528818    1.396215
     32          1           0        2.585166   -2.285415    0.708503
     33          1           0        3.802825   -1.928256    1.929164
     34          1           0        2.168636   -1.306227    2.114776
     35          6           0        4.384081   -0.540947   -0.413819
     36          8           0        4.099007   -0.697356   -1.572550
     37          7           0        5.639885   -0.654315    0.052218
     38          1           0        5.827045   -0.417301    0.998664
     39          6           0        6.754574   -0.946417   -0.826307
     40          1           0        6.990597   -0.102780   -1.464425
     41          1           0        7.618624   -1.184093   -0.220889
     42          1           0        6.518502   -1.794450   -1.452657
 ---------------------------------------------------------------------

 The electronic state is 1-A.
 Alpha  occ. eigenvalues --  -20.54156 -20.53688 -20.53165 -20.51289 -15.60275
 Alpha  occ. eigenvalues --  -15.59700 -15.59427 -15.57749 -11.36134 -11.35864
 Alpha  occ. eigenvalues --  -11.35404 -11.34182 -11.29075 -11.28480 -11.27997
 Alpha  occ. eigenvalues --  -11.27024 -11.23202 -11.22722 -11.22662 -11.22244
 Alpha  occ. eigenvalues --   -1.41248  -1.40758  -1.39847  -1.38190  -1.25259
 Alpha  occ. eigenvalues --   -1.25063  -1.24813  -1.23365  -1.07657  -1.05428
 Alpha  occ. eigenvalues --   -1.02893  -0.98545  -0.97084  -0.92116  -0.90115
 Alpha  occ. eigenvalues --   -0.86747  -0.81760  -0.80615  -0.79703  -0.78484
 Alpha  occ. eigenvalues --   -0.76066  -0.71626  -0.68742  -0.67948  -0.67442
 Alpha  occ. eigenvalues --   -0.65156  -0.65121  -0.64853  -0.63669  -0.62983
 Alpha  occ. eigenvalues --   -0.62183  -0.61009  -0.60894  -0.59845  -0.59551
 Alpha  occ. eigenvalues --   -0.58352  -0.56935  -0.56773  -0.56525  -0.55884
 Alpha  occ. eigenvalues --   -0.54998  -0.54471  -0.53937  -0.53613  -0.53058
 Alpha  occ. eigenvalues --   -0.52516  -0.51984  -0.50862  -0.49368  -0.43990
 Alpha  occ. eigenvalues --   -0.43472  -0.43002  -0.41112  -0.40996  -0.39689
 Alpha  occ. eigenvalues --   -0.39334  -0.38059
 Alpha virt. eigenvalues --    0.17609   0.18731   0.20175   0.20481   0.21785
 Alpha virt. eigenvalues --    0.22744   0.23661   0.24429   0.25747   0.27018
 Alpha virt. eigenvalues --    0.27802   0.28522   0.29116   0.29551   0.30429

 Mulliken atomic charges:
              1
     1  H    0.202573
     2  C   -0.575225
     3  H    0.207215
     4  H    0.172837
     5  C    0.756613
     6  O   -0.622783
     7  N   -0.824516
     8  H    0.418914
     9  C   -0.032141
    10  H    0.219959
    11  C   -0.490565
    12  H    0.175863
    13  H    0.164140
    14  H    0.213076
    15  C    0.786646
    16  O   -0.636151
    17  N   -0.815025
    18  H    0.407548
    19  C   -0.059944
    20  H    0.240156
    21  C   -0.484578
    22  H    0.189928
    23  H    0.172206
    24  H    0.186402
    25  C    0.800490
    26  O   -0.648046
    27  N   -0.830529
    28  H    0.429336
    29  C   -0.039188
    30  H    0.215217
    31  C   -0.484863
    32  H    0.183378
    33  H    0.162172
    34  H    0.208058
    35  C    0.777537
    36  O   -0.627173
    37  N   -0.799736
    38  H    0.390371
    39  C   -0.273454
    40  H    0.185467
    41  H    0.173141
    42  H    0.204671
 Sum of Mulliken atomic charges =   0.00000

 Dipole moment (field-independent basis, Debye):
    X=              5.3350    Y=             -0.3551    Z=              0.0599  Tot=              5.3471
 Quadrupole moment (field-independent basis, Debye-Ang):
   XX=           -103.8891   YY=           -116.5230   ZZ=           -131.3466
   XY=             -0.8616   XZ=             21.8970   YZ=             -4.3658

 Normal termination of Gaussian 09 at Tue Dec 27 00:57:27 2016.
