 Gaussian 09, Revision A.02,
 Gaussian 09:  EM64L-G09RevA.02 11-Jun-2009

 -------------------------------------------------------------------
 # HF/6-31G* Opt=(ModRedundant, maxcycles=1000, calcfc) geom=nocrowd
 -------------------------------------------------------------------

 ------------------
 Phi Psi fixed scan
 ------------------
 Symbolic Z-matrix:
 Charge =  0 Multiplicity = 1

 SCF Done:  E(RHF) =  -984.542623780     A.U. after   15 cycles

  Exact polarizability:   0.000   0.000   0.000   0.000   0.000   0.000
 Approx polarizability: 132.550   8.352 125.235   6.046   5.181 130.875

 SCF Done:  E(RHF) =  -984.550613195     A.U. after   13 cycles
 SCF Done:  E(RHF) =  -984.558934408     A.U. after   13 cycles
 SCF Done:  E(RHF) =  -984.560803094     A.U. after   13 cycles
 SCF Done:  E(RHF) =  -984.562739620     A.U. after   15 cycles
 SCF Done:  E(RHF) =  -984.563017560     A.U. after   15 cycles
 SCF Done:  E(RHF) =  -984.562963329     A.U. after   13 cycles
 SCF Done:  E(RHF) =  -984.441967355     A.U. after   15 cycles
 SCF Done:  E(RHF) =  -984.447024897     A.U. after   11 cycles
 SCF Done:  E(RHF) =  -984.563356622     A.U. after   15 cycles
 SCF Done:  E(RHF) =  -984.563879119     A.U. after   10 cycles
 SCF Done:  E(RHF) =  -984.563879359     A.U. after    9 cycles
 SCF Done:  E(RHF) =  -984.563879431     A.U. after    7 cycles
 SCF Done:  E(RHF) =  -984.563879461     A.U. after    7 cycles
 SCF Done:  E(RHF) =  -984.563879499     A.U. after    7 cycles
 SCF Done:  E(RHF) =  -984.563879546     A.U. after    7 cycles
 SCF Done:  E(RHF) =  -984.563879604     A.U. after    7 cycles
 SCF Done:  E(RHF) =  -984.563879709     A.U. after    8 cycles
 SCF Done:  E(RHF) =  -984.563879837     A.U. after    9 cycles
 SCF Done:  E(RHF) =  -984.563879845     A.U. after    7 cycles
 Optimization completed.
    -- Stationary point found.

                         Standard orientation:
 ---------------------------------------------------------------------
 Center     Atomic      Atomic             Coordinates (Angstroms)
 Number     Number       Type             X           Y           Z
 ---------------------------------------------------------------------
      1          1           0       -6.909799   -1.128858   -0.684082
      2          6           0       -5.942876   -1.594363   -0.819323
      3          1           0       -5.634974   -1.500674   -1.853641
      4          1           0       -6.043742   -2.647771   -0.580542
      5          6           0       -4.964505   -0.971384    0.152353
      6          8           0       -5.273516   -0.719773    1.288054
      7          7           0       -3.725908   -0.740552   -0.329322
      8          1           0       -3.493637   -0.938413   -1.276545
      9          6           0       -2.682788   -0.165026    0.482444
     10          1           0       -3.125184    0.598512    1.109823
     11          6           0       -1.997790   -1.209753    1.375132
     12          1           0       -1.532697   -1.978741    0.768084
     13          1           0       -1.235310   -0.757484    2.001032
     14          1           0       -2.739761   -1.667215    2.015934
     15          6           0       -1.665211    0.469447   -0.460419
     16          8           0       -1.563300    0.116046   -1.606373
     17          7           0       -0.865218    1.402538    0.098846
     18          1           0       -1.061202    1.697451    1.029745
     19          6           0        0.137094    2.150357   -0.643754
     20          1           0        0.123178    1.748943   -1.646862
     21          6           0       -0.186949    3.638663   -0.677533
     22          1           0       -0.204150    4.057668    0.321833
     23          1           0        0.560830    4.177988   -1.244034
     24          1           0       -1.155830    3.788413   -1.140051
     25          6           0        1.528860    1.890325   -0.051400
     26          8           0        2.213277    2.778624    0.384880
     27          7           0        1.923139    0.604527   -0.070662
     28          1           0        1.333879   -0.109197   -0.441307
     29          6           0        3.205066    0.183866    0.442790
     30          1           0        3.947658    0.911435    0.139343
     31          6           0        3.211896    0.073544    1.973534
     32          1           0        2.482301   -0.659631    2.299610
     33          1           0        4.188238   -0.225603    2.340580
     34          1           0        2.964038    1.034930    2.403748
     35          6           0        3.520862   -1.173517   -0.178156
     36          8           0        2.644760   -1.914954   -0.539604
     37          7           0        4.824932   -1.496338   -0.241452
     38          1           0        5.503944   -0.802736   -0.030001
     39          6           0        5.269545   -2.760782   -0.791326
     40          1           0        4.711664   -3.572396   -0.347222
     41          1           0        5.133806   -2.798334   -1.866023
     42          1           0        6.319146   -2.887315   -0.563004
 ---------------------------------------------------------------------

 The electronic state is 1-A.
 Alpha  occ. eigenvalues --  -20.54323 -20.53747 -20.53126 -20.51599 -15.60429
 Alpha  occ. eigenvalues --  -15.59947 -15.58452 -15.58047 -11.36395 -11.35732
 Alpha  occ. eigenvalues --  -11.35046 -11.34457 -11.28659 -11.28491 -11.28431
 Alpha  occ. eigenvalues --  -11.26750 -11.22870 -11.22855 -11.22500 -11.22221
 Alpha  occ. eigenvalues --   -1.41351  -1.40808  -1.39714  -1.38505  -1.26018
 Alpha  occ. eigenvalues --   -1.24703  -1.23900  -1.23644  -1.07487  -1.05222
 Alpha  occ. eigenvalues --   -1.02912  -0.98771  -0.96801  -0.92082  -0.89934
 Alpha  occ. eigenvalues --   -0.86588  -0.81705  -0.80721  -0.79101  -0.78812
 Alpha  occ. eigenvalues --   -0.75855  -0.71623  -0.68560  -0.68256  -0.67575
 Alpha  occ. eigenvalues --   -0.65594  -0.64941  -0.64414  -0.64074  -0.63305
 Alpha  occ. eigenvalues --   -0.61918  -0.61052  -0.60541  -0.59817  -0.58712
 Alpha  occ. eigenvalues --   -0.58442  -0.56918  -0.56483  -0.56365  -0.55806
 Alpha  occ. eigenvalues --   -0.54721  -0.54660  -0.53776  -0.53481  -0.52840
 Alpha  occ. eigenvalues --   -0.52658  -0.51993  -0.50843  -0.49698  -0.44470
 Alpha  occ. eigenvalues --   -0.43465  -0.43148  -0.41401  -0.40636  -0.39931
 Alpha  occ. eigenvalues --   -0.38810  -0.38145
 Alpha virt. eigenvalues --    0.17721   0.18580   0.19472   0.20793   0.21269
 Alpha virt. eigenvalues --    0.22205   0.23705   0.25311   0.25640   0.26093
 Alpha virt. eigenvalues --    0.27593   0.28814   0.29214   0.29679   0.30086

 Mulliken atomic charges:
              1
     1  H    0.208439
     2  C   -0.576226
     3  H    0.174245
     4  H    0.203107
     5  C    0.755800
     6  O   -0.622079
     7  N   -0.822777
     8  H    0.419279
     9  C   -0.032310
    10  H    0.216812
    11  C   -0.489817
    12  H    0.185498
    13  H    0.159610
    14  H    0.212374
    15  C    0.784889
    16  O   -0.631527
    17  N   -0.817441
    18  H    0.394566
    19  C   -0.082651
    20  H    0.251886
    21  C   -0.463811
    22  H    0.173446
    23  H    0.190229
    24  H    0.173561
    25  C    0.789020
    26  O   -0.625984
    27  N   -0.831833
    28  H    0.433197
    29  C   -0.025764
    30  H    0.209536
    31  C   -0.488381
    32  H    0.179421
    33  H    0.162621
    34  H    0.207005
    35  C    0.774430
    36  O   -0.626122
    37  N   -0.799775
    38  H    0.389636
    39  C   -0.273394
    40  H    0.203806
    41  H    0.185410
    42  H    0.172069
 Sum of Mulliken atomic charges =   0.00000

 Dipole moment (field-independent basis, Debye):
    X=              4.0541    Y=             -0.7079    Z=             -0.4877  Tot=              4.1442
 Quadrupole moment (field-independent basis, Debye-Ang):
   XX=           -104.3879   YY=           -124.9493   ZZ=           -124.2325
   XY=             -9.4246   XZ=             11.6273   YZ=             -0.2489

 Normal termination of Gaussian 09 at Tue Dec 27 02:42:21 2016.
