 Gaussian 09, Revision A.02,
 Gaussian 09:  EM64L-G09RevA.02 11-Jun-2009

 -------------------------------------------------------------------
 # HF/6-31G* Opt=(ModRedundant, maxcycles=1000, calcfc) geom=nocrowd
 -------------------------------------------------------------------

 ------------------
 Phi Psi fixed scan
 ------------------
 Symbolic Z-matrix:
 Charge =  0 Multiplicity = 1

 SCF Done:  E(RHF) =  -984.542139943     A.U. after   15 cycles

  Exact polarizability:   0.000   0.000   0.000   0.000   0.000   0.000
 Approx polarizability: 132.988  -2.345 125.463  -2.579  11.931 129.892

 SCF Done:  E(RHF) =  -984.550491709     A.U. after   13 cycles
 SCF Done:  E(RHF) =  -984.559379425     A.U. after   13 cycles
 SCF Done:  E(RHF) =  -984.561750362     A.U. after   13 cycles
 SCF Done:  E(RHF) =  -984.564958625     A.U. after   15 cycles
 SCF Done:  E(RHF) =  -984.565448991     A.U. after   13 cycles
 SCF Done:  E(RHF) =  -984.556671076     A.U. after   16 cycles
 SCF Done:  E(RHF) =  -984.566054211     A.U. after   16 cycles
 SCF Done:  E(RHF) =  -984.555502568     A.U. after   16 cycles
 SCF Done:  E(RHF) =  -984.566012599     A.U. after   16 cycles
 SCF Done:  E(RHF) =  -984.566457224     A.U. after   10 cycles
 SCF Done:  E(RHF) =  -984.566479395     A.U. after   11 cycles
 SCF Done:  E(RHF) =  -984.566479638     A.U. after   11 cycles
 SCF Done:  E(RHF) =  -984.566491517     A.U. after   11 cycles
 SCF Done:  E(RHF) =  -984.566494395     A.U. after   10 cycles
 SCF Done:  E(RHF) =  -984.566495181     A.U. after   10 cycles
 SCF Done:  E(RHF) =  -984.566495700     A.U. after    9 cycles
 SCF Done:  E(RHF) =  -984.566495773     A.U. after    8 cycles
 SCF Done:  E(RHF) =  -984.566495782     A.U. after    7 cycles
 SCF Done:  E(RHF) =  -984.566495789     A.U. after    6 cycles
 Optimization completed.
    -- Stationary point found.

                         Standard orientation:
 ---------------------------------------------------------------------
 Center     Atomic      Atomic             Coordinates (Angstroms)
 Number     Number       Type             X           Y           Z
 ---------------------------------------------------------------------
      1          1           0        7.666860    0.876037   -0.075529
      2          6           0        6.979843    0.399714    0.611379
      3          1           0        6.695128    1.102421    1.385018
      4          1           0        7.496590   -0.435868    1.070827
      5          6           0        5.802516   -0.135720   -0.175001
      6          8           0        5.955550   -0.737582   -1.206203
      7          7           0        4.587084    0.088162    0.362610
      8          1           0        4.483211    0.603611    1.207345
      9          6           0        3.370080   -0.365109   -0.265395
     10          1           0        3.465971   -0.226980   -1.334537
     11          6           0        3.080605   -1.844950    0.025668
     12          1           0        2.993926   -2.005706    1.094954
     13          1           0        2.159377   -2.169996   -0.446180
     14          1           0        3.895958   -2.446137   -0.354456
     15          6           0        2.230150    0.498653    0.261099
     16          8           0        2.306715    1.064504    1.321118
     17          7           0        1.146381    0.569633   -0.543805
     18          1           0        1.091520   -0.088688   -1.290208
     19          6           0       -0.131119    1.042372   -0.060115
     20          1           0       -0.024871    1.245824    0.996890
     21          6           0       -0.543718    2.331026   -0.782614
     22          1           0       -0.669414    2.152702   -1.845502
     23          1           0       -1.469597    2.740052   -0.395067
     24          1           0        0.234795    3.071828   -0.651497
     25          6           0       -1.161263   -0.078457   -0.238167
     26          8           0       -0.868069   -1.130629   -0.749513
     27          7           0       -2.408207    0.207955    0.167762
     28          1           0       -2.628733    1.076827    0.601719
     29          6           0       -3.498748   -0.731835    0.049313
     30          1           0       -3.417421   -1.224332   -0.911429
     31          6           0       -3.478373   -1.790700    1.159719
     32          1           0       -3.572440   -1.318680    2.131505
     33          1           0       -4.291582   -2.499061    1.041184
     34          1           0       -2.542988   -2.333004    1.121146
     35          6           0       -4.792669    0.075979    0.110477
     36          8           0       -4.828527    1.159054    0.635189
     37          7           0       -5.877679   -0.519221   -0.412730
     38          1           0       -5.767475   -1.369280   -0.914944
     39          6           0       -7.177004    0.122494   -0.404978
     40          1           0       -7.210654    0.960706   -1.091036
     41          1           0       -7.922631   -0.603965   -0.697837
     42          1           0       -7.405731    0.482408    0.587733
 ---------------------------------------------------------------------

 The electronic state is 1-A.
 Alpha  occ. eigenvalues --  -20.54375 -20.53959 -20.53544 -20.50995 -15.60484
 Alpha  occ. eigenvalues --  -15.59438 -15.58788 -15.57452 -11.36349 -11.35983
 Alpha  occ. eigenvalues --  -11.35375 -11.33904 -11.29312 -11.28575 -11.27510
 Alpha  occ. eigenvalues --  -11.27194 -11.23315 -11.23151 -11.22452 -11.21611
 Alpha  occ. eigenvalues --   -1.41535  -1.40832  -1.40118  -1.37892  -1.25304
 Alpha  occ. eigenvalues --   -1.25162  -1.24680  -1.23045  -1.07823  -1.05246
 Alpha  occ. eigenvalues --   -1.02530  -0.98241  -0.97249  -0.91958  -0.90123
 Alpha  occ. eigenvalues --   -0.86871  -0.81799  -0.80258  -0.79656  -0.78104
 Alpha  occ. eigenvalues --   -0.76198  -0.71551  -0.68686  -0.67634  -0.67529
 Alpha  occ. eigenvalues --   -0.65401  -0.65150  -0.64881  -0.64198  -0.62330
 Alpha  occ. eigenvalues --   -0.61361  -0.61157  -0.60792  -0.60158  -0.59578
 Alpha  occ. eigenvalues --   -0.57981  -0.56966  -0.56834  -0.56375  -0.55878
 Alpha  occ. eigenvalues --   -0.55566  -0.54804  -0.53991  -0.53768  -0.53068
 Alpha  occ. eigenvalues --   -0.52101  -0.51976  -0.50483  -0.48986  -0.43974
 Alpha  occ. eigenvalues --   -0.43276  -0.42789  -0.41260  -0.40828  -0.40309
 Alpha  occ. eigenvalues --   -0.39478  -0.37865
 Alpha virt. eigenvalues --    0.17634   0.19173   0.19658   0.20311   0.21539
 Alpha virt. eigenvalues --    0.23083   0.24177   0.24435   0.25568   0.27210
 Alpha virt. eigenvalues --    0.28300   0.28551   0.29323   0.30091   0.30281

 Mulliken atomic charges:
              1
     1  H    0.206567
     2  C   -0.575300
     3  H    0.172013
     4  H    0.201824
     5  C    0.757170
     6  O   -0.623128
     7  N   -0.823766
     8  H    0.416859
     9  C   -0.035926
    10  H    0.222277
    11  C   -0.498480
    12  H    0.173920
    13  H    0.180869
    14  H    0.209128
    15  C    0.775900
    16  O   -0.633545
    17  N   -0.789682
    18  H    0.410485
    19  C   -0.082322
    20  H    0.247746
    21  C   -0.473710
    22  H    0.172682
    23  H    0.169845
    24  H    0.196682
    25  C    0.792840
    26  O   -0.641736
    27  N   -0.837195
    28  H    0.428127
    29  C   -0.032492
    30  H    0.213645
    31  C   -0.487477
    32  H    0.182246
    33  H    0.162457
    34  H    0.211236
    35  C    0.779165
    36  O   -0.630622
    37  N   -0.799904
    38  H    0.390953
    39  C   -0.273611
    40  H    0.186212
    41  H    0.173813
    42  H    0.204238
 Sum of Mulliken atomic charges =   0.00000

 Dipole moment (field-independent basis, Debye):
    X=             -5.8540    Y=             -0.6424    Z=              0.0642  Tot=              5.8895
 Quadrupole moment (field-independent basis, Debye-Ang):
   XX=           -105.3330   YY=           -122.6429   ZZ=           -124.2298
   XY=             19.5805   XZ=             21.4258   YZ=             -5.7888

 Normal termination of Gaussian 09 at Tue Dec 27 04:31:12 2016.
