 Gaussian 09, Revision A.02,
 Gaussian 09:  EM64L-G09RevA.02 11-Jun-2009

 -------------------------------------------------------------------
 # HF/6-31G* Opt=(ModRedundant, maxcycles=1000, calcfc) geom=nocrowd
 -------------------------------------------------------------------

 ------------------
 Phi Psi fixed scan
 ------------------
 Symbolic Z-matrix:
 Charge =  0 Multiplicity = 1

 SCF Done:  E(RHF) =  -984.533138156     A.U. after   15 cycles

  Exact polarizability:   0.000   0.000   0.000   0.000   0.000   0.000
 Approx polarizability: 134.227  -2.305 128.310   1.455   5.944 126.282

 SCF Done:  E(RHF) =  -984.543004474     A.U. after   13 cycles
 SCF Done:  E(RHF) =  -984.554195056     A.U. after   13 cycles
 SCF Done:  E(RHF) =  -984.557421600     A.U. after   13 cycles
 SCF Done:  E(RHF) =  -984.560304000     A.U. after   15 cycles
 SCF Done:  E(RHF) =  -984.561755376     A.U. after   15 cycles
 SCF Done:  E(RHF) =  -984.560085510     A.U. after   14 cycles
 SCF Done:  E(RHF) =  -984.562174638     A.U. after   14 cycles
 SCF Done:  E(RHF) =  -984.559116454     A.U. after   15 cycles
 SCF Done:  E(RHF) =  -984.562432707     A.U. after   15 cycles
 SCF Done:  E(RHF) =  -984.562632235     A.U. after   10 cycles
 SCF Done:  E(RHF) =  -984.562633560     A.U. after   10 cycles
 SCF Done:  E(RHF) =  -984.562633905     A.U. after    8 cycles
 SCF Done:  E(RHF) =  -984.562634194     A.U. after    8 cycles
 SCF Done:  E(RHF) =  -984.562634697     A.U. after    9 cycles
 SCF Done:  E(RHF) =  -984.562635228     A.U. after    8 cycles
 SCF Done:  E(RHF) =  -984.562636248     A.U. after    9 cycles
 SCF Done:  E(RHF) =  -984.562637210     A.U. after   10 cycles
 SCF Done:  E(RHF) =  -984.562637454     A.U. after    9 cycles
 SCF Done:  E(RHF) =  -984.562637480     A.U. after    7 cycles
 Optimization completed.
    -- Stationary point found.

                         Standard orientation:
 ---------------------------------------------------------------------
 Center     Atomic      Atomic             Coordinates (Angstroms)
 Number     Number       Type             X           Y           Z
 ---------------------------------------------------------------------
      1          1           0        7.614434    0.754000   -0.815637
      2          6           0        7.022058    0.360467   -0.000431
      3          1           0        6.858468    1.136545    0.737410
      4          1           0        7.583756   -0.445436    0.459656
      5          6           0        5.737904   -0.208175   -0.564932
      6          8           0        5.730681   -0.874847   -1.567175
      7          7           0        4.618801    0.063759    0.135397
      8          1           0        4.648142    0.621856    0.958655
      9          6           0        3.321199   -0.425324   -0.262667
     10          1           0        3.257809   -0.375804   -1.341881
     11          6           0        3.078213   -1.872054    0.191323
     12          1           0        3.164985   -1.943579    1.269938
     13          1           0        2.090441   -2.217534   -0.093718
     14          1           0        3.819549   -2.515192   -0.264722
     15          6           0        2.273022    0.490125    0.356726
     16          8           0        2.494268    1.108566    1.364792
     17          7           0        1.093382    0.546813   -0.304518
     18          1           0        0.949358   -0.141000   -1.009955
     19          6           0       -0.103073    1.058267    0.333740
     20          1           0        0.146606    1.237139    1.371906
     21          6           0       -0.536412    2.382599   -0.298899
     22          1           0       -0.853787    2.249297   -1.327778
     23          1           0       -1.341316    2.855124    0.254287
     24          1           0        0.306277    3.061683   -0.289014
     25          6           0       -1.155957   -0.059124    0.334461
     26          8           0       -0.820434   -1.216692    0.369135
     27          7           0       -2.443457    0.315688    0.284298
     28          1           0       -2.713716    1.270505    0.217302
     29          6           0       -3.523717   -0.642949    0.316655
     30          1           0       -3.251448   -1.483197   -0.309670
     31          6           0       -3.808031   -1.148607    1.737268
     32          1           0       -4.099112   -0.324291    2.379005
     33          1           0       -4.605086   -1.884628    1.739777
     34          1           0       -2.915400   -1.609400    2.138871
     35          6           0       -4.755510    0.052244   -0.257472
     36          8           0       -4.848959    1.252723   -0.267508
     37          7           0       -5.728846   -0.759687   -0.702993
     38          1           0       -5.557675   -1.736964   -0.753710
     39          6           0       -6.962641   -0.237997   -1.255880
     40          1           0       -7.389166    0.493632   -0.584846
     41          1           0       -6.799149    0.232215   -2.218411
     42          1           0       -7.659896   -1.055809   -1.376066
 ---------------------------------------------------------------------

 The electronic state is 1-A.
 Alpha  occ. eigenvalues --  -20.54403 -20.53559 -20.53484 -20.51023 -15.60483
 Alpha  occ. eigenvalues --  -15.59421 -15.59043 -15.57477 -11.36358 -11.35854
 Alpha  occ. eigenvalues --  -11.35341 -11.33927 -11.29247 -11.28595 -11.27501
 Alpha  occ. eigenvalues --  -11.27204 -11.23304 -11.23122 -11.22465 -11.21442
 Alpha  occ. eigenvalues --   -1.41492  -1.40731  -1.40006  -1.37915  -1.25278
 Alpha  occ. eigenvalues --   -1.25076  -1.24706  -1.23060  -1.07748  -1.05193
 Alpha  occ. eigenvalues --   -1.02507  -0.98230  -0.97239  -0.91962  -0.90094
 Alpha  occ. eigenvalues --   -0.87009  -0.81664  -0.80304  -0.79773  -0.78163
 Alpha  occ. eigenvalues --   -0.76132  -0.71570  -0.68435  -0.68048  -0.67349
 Alpha  occ. eigenvalues --   -0.65408  -0.64998  -0.64813  -0.64260  -0.62484
 Alpha  occ. eigenvalues --   -0.61358  -0.60973  -0.60305  -0.60016  -0.59432
 Alpha  occ. eigenvalues --   -0.57906  -0.56973  -0.56617  -0.56508  -0.55949
 Alpha  occ. eigenvalues --   -0.55465  -0.55123  -0.54025  -0.53751  -0.53012
 Alpha  occ. eigenvalues --   -0.52072  -0.51876  -0.50403  -0.48965  -0.43951
 Alpha  occ. eigenvalues --   -0.42989  -0.42617  -0.41218  -0.40847  -0.40266
 Alpha  occ. eigenvalues --   -0.39617  -0.37870
 Alpha virt. eigenvalues --    0.17538   0.19185   0.19617   0.20347   0.21545
 Alpha virt. eigenvalues --    0.23281   0.24046   0.24406   0.25593   0.27249
 Alpha virt. eigenvalues --    0.28498   0.28531   0.29432   0.29584   0.30258

 Mulliken atomic charges:
              1
     1  H    0.206844
     2  C   -0.575840
     3  H    0.172410
     4  H    0.201694
     5  C    0.757158
     6  O   -0.623290
     7  N   -0.822322
     8  H    0.415954
     9  C   -0.039468
    10  H    0.220108
    11  C   -0.496572
    12  H    0.176798
    13  H    0.184592
    14  H    0.205359
    15  C    0.782427
    16  O   -0.631886
    17  N   -0.783717
    18  H    0.396992
    19  C   -0.062106
    20  H    0.255351
    21  C   -0.495308
    22  H    0.174848
    23  H    0.166501
    24  H    0.203030
    25  C    0.774307
    26  O   -0.633115
    27  N   -0.849725
    28  H    0.437687
    29  C   -0.030159
    30  H    0.214116
    31  C   -0.487631
    32  H    0.181274
    33  H    0.161954
    34  H    0.212737
    35  C    0.777482
    36  O   -0.630380
    37  N   -0.799933
    38  H    0.391199
    39  C   -0.273331
    40  H    0.203680
    41  H    0.186441
    42  H    0.173840
 Sum of Mulliken atomic charges =   0.00000

 Dipole moment (field-independent basis, Debye):
    X=             -5.5141    Y=             -0.7587    Z=              0.1521  Tot=              5.5681
 Quadrupole moment (field-independent basis, Debye-Ang):
   XX=           -104.1246   YY=           -123.1454   ZZ=           -124.7192
   XY=             22.6556   XZ=             16.2359   YZ=             -1.9766

 Normal termination of Gaussian 09 at Tue Dec 27 01:40:22 2016.
