 Gaussian 09, Revision A.02,
 Gaussian 09:  EM64L-G09RevA.02 11-Jun-2009

 -------------------------------------------------------------------
 # HF/6-31G* Opt=(ModRedundant, maxcycles=1000, calcfc) geom=nocrowd
 -------------------------------------------------------------------

 ------------------
 Phi Psi fixed scan
 ------------------
 Symbolic Z-matrix:
 Charge =  0 Multiplicity = 1

 SCF Done:  E(RHF) =  -984.545250166     A.U. after   15 cycles

  Exact polarizability:   0.000   0.000   0.000   0.000   0.000   0.000
 Approx polarizability: 129.524  -6.512 126.751  -2.529  11.991 131.923

 SCF Done:  E(RHF) =  -984.552761898     A.U. after   13 cycles
 SCF Done:  E(RHF) =  -984.560555653     A.U. after   14 cycles
 SCF Done:  E(RHF) =  -984.562405617     A.U. after   12 cycles
 SCF Done:  E(RHF) =  -984.564937681     A.U. after   15 cycles
 SCF Done:  E(RHF) =  -984.565706426     A.U. after   15 cycles
 SCF Done:  E(RHF) =  -984.438996562     A.U. after   16 cycles
 SCF Done:  E(RHF) =  -984.565808376     A.U. after   15 cycles
 SCF Done:  E(RHF) =  -984.565865836     A.U. after   13 cycles
 SCF Done:  E(RHF) =  -984.565737354     A.U. after   13 cycles
 SCF Done:  E(RHF) =  -984.566268047     A.U. after    8 cycles
 SCF Done:  E(RHF) =  -984.566268226     A.U. after    9 cycles
 SCF Done:  E(RHF) =  -984.566268666     A.U. after    9 cycles
 SCF Done:  E(RHF) =  -984.566269285     A.U. after    9 cycles
 SCF Done:  E(RHF) =  -984.566269806     A.U. after    9 cycles
 SCF Done:  E(RHF) =  -984.566270391     A.U. after    9 cycles
 SCF Done:  E(RHF) =  -984.566270388     A.U. after    8 cycles
 SCF Done:  E(RHF) =  -984.566270398     A.U. after   10 cycles
 SCF Done:  E(RHF) =  -984.566270572     A.U. after    9 cycles
 SCF Done:  E(RHF) =  -984.566270584     A.U. after    6 cycles
 Optimization completed on the basis of negligible forces.
    -- Stationary point found.

                         Standard orientation:
 ---------------------------------------------------------------------
 Center     Atomic      Atomic             Coordinates (Angstroms)
 Number     Number       Type             X           Y           Z
 ---------------------------------------------------------------------
      1          1           0       -6.890318   -1.414575   -1.353349
      2          6           0       -5.971871   -1.871527   -1.009437
      3          1           0       -5.393646   -2.209042   -1.860921
      4          1           0       -6.236032   -2.731158   -0.403173
      5          6           0       -5.233070   -0.877600   -0.139630
      6          8           0       -5.801202   -0.230931    0.701640
      7          7           0       -3.905485   -0.781326   -0.354959
      8          1           0       -3.457630   -1.310890   -1.068534
      9          6           0       -3.068050    0.120271    0.397003
     10          1           0       -3.609811    1.045437    0.545541
     11          6           0       -2.676119   -0.456458    1.765189
     12          1           0       -2.131962   -1.386210    1.638681
     13          1           0       -2.052806    0.233311    2.325362
     14          1           0       -3.573654   -0.649673    2.337441
     15          6           0       -1.817685    0.386032   -0.433755
     16          8           0       -1.441505   -0.391959   -1.272156
     17          7           0       -1.170954    1.537547   -0.150349
     18          1           0       -1.447807    2.046700    0.660060
     19          6           0        0.150303    1.831495   -0.671991
     20          1           0        0.230674    1.321687   -1.619427
     21          6           0        0.322855    3.334538   -0.871300
     22          1           0        0.230556    3.858222    0.072762
     23          1           0        1.303434    3.552299   -1.281121
     24          1           0       -0.428566    3.705367   -1.558234
     25          6           0        1.198162    1.310169    0.312539
     26          8           0        1.228507    1.725728    1.444887
     27          7           0        2.050519    0.390846   -0.160944
     28          1           0        1.948636    0.022055   -1.081120
     29          6           0        3.087403   -0.196040    0.655020
     30          1           0        3.500548    0.584183    1.281315
     31          6           0        2.552968   -1.325103    1.546407
     32          1           0        2.134405   -2.118440    0.937177
     33          1           0        3.340917   -1.743333    2.164129
     34          1           0        1.779824   -0.933657    2.194439
     35          6           0        4.160653   -0.731232   -0.288572
     36          8           0        3.899190   -1.043397   -1.420740
     37          7           0        5.387165   -0.872713    0.244837
     38          1           0        5.565297   -0.504136    1.149984
     39          6           0        6.498495   -1.388747   -0.528126
     40          1           0        6.831668   -0.675381   -1.273086
     41          1           0        7.317176   -1.604917    0.144785
     42          1           0        6.206204   -2.298659   -1.031914
 ---------------------------------------------------------------------

 The electronic state is 1-A.
 Alpha  occ. eigenvalues --  -20.54019 -20.53820 -20.52811 -20.51365 -15.60017
 Alpha  occ. eigenvalues --  -15.59754 -15.59064 -15.57849 -11.35951 -11.35810
 Alpha  occ. eigenvalues --  -11.35017 -11.34257 -11.28760 -11.28473 -11.28062
 Alpha  occ. eigenvalues --  -11.26824 -11.23033 -11.22893 -11.22721 -11.22280
 Alpha  occ. eigenvalues --   -1.41081  -1.40818  -1.39518  -1.38274  -1.25277
 Alpha  occ. eigenvalues --   -1.24799  -1.24526  -1.23453  -1.07573  -1.05297
 Alpha  occ. eigenvalues --   -1.02959  -0.98613  -0.96857  -0.91921  -0.90041
 Alpha  occ. eigenvalues --   -0.86602  -0.81634  -0.80449  -0.79407  -0.78502
 Alpha  occ. eigenvalues --   -0.75804  -0.71642  -0.69012  -0.68063  -0.67325
 Alpha  occ. eigenvalues --   -0.65370  -0.64901  -0.64645  -0.63384  -0.63069
 Alpha  occ. eigenvalues --   -0.61971  -0.60931  -0.60775  -0.59741  -0.59213
 Alpha  occ. eigenvalues --   -0.58231  -0.56855  -0.56561  -0.56483  -0.55766
 Alpha  occ. eigenvalues --   -0.54975  -0.54463  -0.53717  -0.53408  -0.52875
 Alpha  occ. eigenvalues --   -0.52545  -0.52183  -0.50700  -0.49475  -0.44173
 Alpha  occ. eigenvalues --   -0.43251  -0.43203  -0.41190  -0.40690  -0.39698
 Alpha  occ. eigenvalues --   -0.38906  -0.38187
 Alpha virt. eigenvalues --    0.17900   0.18729   0.20155   0.20726   0.21323
 Alpha virt. eigenvalues --    0.22338   0.23819   0.24563   0.25895   0.26672
 Alpha virt. eigenvalues --    0.27793   0.28651   0.29331   0.29519   0.30306

 Mulliken atomic charges:
              1
     1  H    0.207661
     2  C   -0.575527
     3  H    0.173008
     4  H    0.202597
     5  C    0.756815
     6  O   -0.622285
     7  N   -0.824015
     8  H    0.418170
     9  C   -0.033134
    10  H    0.222009
    11  C   -0.494494
    12  H    0.176127
    13  H    0.169048
    14  H    0.213096
    15  C    0.785972
    16  O   -0.633709
    17  N   -0.800764
    18  H    0.400362
    19  C   -0.066681
    20  H    0.232756
    21  C   -0.493169
    22  H    0.190519
    23  H    0.179010
    24  H    0.186299
    25  C    0.800808
    26  O   -0.648816
    27  N   -0.824503
    28  H    0.430693
    29  C   -0.039555
    30  H    0.213583
    31  C   -0.486803
    32  H    0.185991
    33  H    0.161801
    34  H    0.206904
    35  C    0.778675
    36  O   -0.626183
    37  N   -0.800093
    38  H    0.389665
    39  C   -0.273210
    40  H    0.184468
    41  H    0.172279
    42  H    0.204621
 Sum of Mulliken atomic charges =   0.00000

 Dipole moment (field-independent basis, Debye):
    X=              4.9275    Y=             -0.3737    Z=              0.3800  Tot=              4.9562
 Quadrupole moment (field-independent basis, Debye-Ang):
   XX=           -111.4767   YY=           -115.0207   ZZ=           -126.4489
   XY=              3.4291   XZ=             18.7022   YZ=             -7.1428

 Normal termination of Gaussian 09 at Tue Dec 27 06:00:44 2016.
