 Gaussian 09, Revision A.02,
 Gaussian 09:  EM64L-G09RevA.02 11-Jun-2009

 -------------------------------------------------------------------
 # HF/6-31G* Opt=(ModRedundant, maxcycles=1000, calcfc) geom=nocrowd
 -------------------------------------------------------------------

 ------------------
 Phi Psi fixed scan
 ------------------
 Symbolic Z-matrix:
 Charge =  0 Multiplicity = 1

 SCF Done:  E(RHF) =  -984.541549124     A.U. after   15 cycles

  Exact polarizability:   0.000   0.000   0.000   0.000   0.000   0.000
 Approx polarizability: 126.829   2.701 126.288  -5.795 -11.731 135.375

 SCF Done:  E(RHF) =  -984.550030649     A.U. after   16 cycles
 SCF Done:  E(RHF) =  -984.559033032     A.U. after   13 cycles
 SCF Done:  E(RHF) =  -984.561219923     A.U. after   13 cycles
 SCF Done:  E(RHF) =  -984.563505892     A.U. after   16 cycles
 SCF Done:  E(RHF) =  -984.564114842     A.U. after   13 cycles
 SCF Done:  E(RHF) =  -984.408333752     A.U. after   17 cycles
 SCF Done:  E(RHF) =  -984.564208908     A.U. after   16 cycles
 SCF Done:  E(RHF) =  -984.510382883     A.U. after   14 cycles
 SCF Done:  E(RHF) =  -984.564360772     A.U. after   14 cycles
 SCF Done:  E(RHF) =  -984.564830446     A.U. after    9 cycles
 SCF Done:  E(RHF) =  -984.564830883     A.U. after    9 cycles
 SCF Done:  E(RHF) =  -984.564831516     A.U. after    9 cycles
 SCF Done:  E(RHF) =  -984.564832260     A.U. after   10 cycles
 SCF Done:  E(RHF) =  -984.564832993     A.U. after   10 cycles
 SCF Done:  E(RHF) =  -984.564833779     A.U. after    9 cycles
 SCF Done:  E(RHF) =  -984.564834318     A.U. after    9 cycles
 SCF Done:  E(RHF) =  -984.564834434     A.U. after    9 cycles
 SCF Done:  E(RHF) =  -984.564834457     A.U. after    7 cycles
 SCF Done:  E(RHF) =  -984.564834467     A.U. after    7 cycles
 Optimization completed.
    -- Stationary point found.

                         Standard orientation:
 ---------------------------------------------------------------------
 Center     Atomic      Atomic             Coordinates (Angstroms)
 Number     Number       Type             X           Y           Z
 ---------------------------------------------------------------------
      1          1           0        6.921675   -0.588050    0.439413
      2          6           0        6.013640   -0.939159    0.910477
      3          1           0        5.837149   -0.381750    1.822439
      4          1           0        6.151928   -1.985015    1.163781
      5          6           0        4.877598   -0.829519   -0.083138
      6          8           0        5.023956   -1.106050   -1.245176
      7          7           0        3.694297   -0.424724    0.422722
      8          1           0        3.594677   -0.202073    1.387517
      9          6           0        2.509640   -0.305487   -0.391971
     10          1           0        2.809049    0.065249   -1.363713
     11          6           0        1.786749   -1.648278   -0.568026
     12          1           0        1.490338   -2.042883    0.397492
     13          1           0        0.898538   -1.550108   -1.182803
     14          1           0        2.458688   -2.350846   -1.043564
     15          6           0        1.587439    0.698598    0.290314
     16          8           0        1.605569    0.860963    1.480580
     17          7           0        0.720340    1.344723   -0.525429
     18          1           0        0.863116    1.271448   -1.507963
     19          6           0       -0.168810    2.385657   -0.039328
     20          1           0        0.286724    2.840797    0.826587
     21          6           0       -0.391935    3.443569   -1.120768
     22          1           0       -0.843487    3.009432   -2.008284
     23          1           0       -1.053375    4.214353   -0.747460
     24          1           0        0.551065    3.900746   -1.399432
     25          6           0       -1.522620    1.862996    0.442239
     26          8           0       -2.155672    2.490447    1.250171
     27          7           0       -1.985066    0.753223   -0.160932
     28          1           0       -1.373566    0.194155   -0.712039
     29          6           0       -3.227166    0.132433    0.230625
     30          1           0       -3.352141    0.255172    1.300027
     31          6           0       -4.428711    0.762597   -0.485103
     32          1           0       -4.336777    0.636743   -1.558389
     33          1           0       -5.362654    0.313327   -0.164067
     34          1           0       -4.461365    1.819886   -0.257286
     35          6           0       -3.117185   -1.354497   -0.100342
     36          8           0       -2.292766   -1.769507   -0.874923
     37          7           0       -4.018518   -2.151832    0.498100
     38          1           0       -4.603403   -1.771256    1.205335
     39          6           0       -4.031019   -3.584354    0.281779
     40          1           0       -4.011972   -3.798166   -0.777081
     41          1           0       -3.177249   -4.065074    0.745146
     42          1           0       -4.938744   -3.989976    0.707354
 ---------------------------------------------------------------------

 The electronic state is 1-A.
 Alpha  occ. eigenvalues --  -20.54278 -20.54063 -20.52266 -20.51568 -15.60334
 Alpha  occ. eigenvalues --  -15.60047 -15.58187 -15.58038 -11.36156 -11.35947
 Alpha  occ. eigenvalues --  -11.34463 -11.34437 -11.28537 -11.28402 -11.28248
 Alpha  occ. eigenvalues --  -11.26866 -11.23791 -11.22858 -11.22841 -11.22059
 Alpha  occ. eigenvalues --   -1.41301  -1.40956  -1.39078  -1.38470  -1.26056
 Alpha  occ. eigenvalues --   -1.24841  -1.23710  -1.23503  -1.07558  -1.05092
 Alpha  occ. eigenvalues --   -1.03239  -0.98717  -0.96841  -0.91870  -0.89804
 Alpha  occ. eigenvalues --   -0.87144  -0.81759  -0.80883  -0.78816  -0.78730
 Alpha  occ. eigenvalues --   -0.75317  -0.72010  -0.69254  -0.67774  -0.67048
 Alpha  occ. eigenvalues --   -0.65679  -0.65076  -0.64874  -0.63262  -0.63051
 Alpha  occ. eigenvalues --   -0.62354  -0.61375  -0.60243  -0.59096  -0.58352
 Alpha  occ. eigenvalues --   -0.57958  -0.57326  -0.56765  -0.56604  -0.56085
 Alpha  occ. eigenvalues --   -0.55870  -0.54433  -0.54177  -0.53605  -0.52933
 Alpha  occ. eigenvalues --   -0.52518  -0.51836  -0.49933  -0.49527  -0.44549
 Alpha  occ. eigenvalues --   -0.43453  -0.43206  -0.41363  -0.40766  -0.39573
 Alpha  occ. eigenvalues --   -0.38779  -0.38215
 Alpha virt. eigenvalues --    0.18068   0.18475   0.20155   0.20276   0.20849
 Alpha virt. eigenvalues --    0.21312   0.23836   0.25347   0.25962   0.26674
 Alpha virt. eigenvalues --    0.27971   0.28866   0.29145   0.29787   0.30474

 Mulliken atomic charges:
              1
     1  H    0.208650
     2  C   -0.577026
     3  H    0.174301
     4  H    0.202457
     5  C    0.755867
     6  O   -0.621456
     7  N   -0.821346
     8  H    0.416534
     9  C   -0.034462
    10  H    0.214125
    11  C   -0.492330
    12  H    0.179014
    13  H    0.180361
    14  H    0.207279
    15  C    0.784224
    16  O   -0.617504
    17  N   -0.848000
    18  H    0.393965
    19  C   -0.027939
    20  H    0.250300
    21  C   -0.514942
    22  H    0.169215
    23  H    0.212572
    24  H    0.184701
    25  C    0.780737
    26  O   -0.629081
    27  N   -0.830024
    28  H    0.431554
    29  C   -0.034655
    30  H    0.217315
    31  C   -0.480759
    32  H    0.176936
    33  H    0.158063
    34  H    0.209299
    35  C    0.775700
    36  O   -0.635525
    37  N   -0.797659
    38  H    0.391170
    39  C   -0.272905
    40  H    0.202993
    41  H    0.185249
    42  H    0.173036
 Sum of Mulliken atomic charges =   0.00000

 Dipole moment (field-independent basis, Debye):
    X=             -3.3248    Y=             -1.1597    Z=              0.1098  Tot=              3.5230
 Quadrupole moment (field-independent basis, Debye-Ang):
   XX=           -108.9665   YY=           -118.8085   ZZ=           -126.5380
   XY=             17.1846   XZ=              9.4868   YZ=            -18.7105

 Normal termination of Gaussian 09 at Tue Dec 27 05:07:32 2016.
