 Gaussian 09, Revision A.02,
 Gaussian 09:  EM64L-G09RevA.02 11-Jun-2009

 -------------------------------------------------------------------
 # HF/6-31G* Opt=(ModRedundant, maxcycles=1000, calcfc) geom=nocrowd
 -------------------------------------------------------------------

 ------------------
 Phi Psi fixed scan
 ------------------
 Symbolic Z-matrix:
 Charge =  0 Multiplicity = 1

 SCF Done:  E(RHF) =  -984.540884136     A.U. after   15 cycles

  Exact polarizability:   0.000   0.000   0.000   0.000   0.000   0.000
 Approx polarizability: 132.847  -0.006 125.514  -6.757  -0.821 129.810

 SCF Done:  E(RHF) =  -984.549283130     A.U. after   12 cycles
 SCF Done:  E(RHF) =  -984.558112109     A.U. after   14 cycles
 SCF Done:  E(RHF) =  -984.560318073     A.U. after   13 cycles
 SCF Done:  E(RHF) =  -984.563564879     A.U. after   16 cycles
 SCF Done:  E(RHF) =  -984.564586118     A.U. after   15 cycles
 SCF Done:  E(RHF) =  -984.511029240     A.U. after   16 cycles
 SCF Done:  E(RHF) =  -984.564610014     A.U. after   15 cycles
 SCF Done:  E(RHF) =  -984.524104101     A.U. after   16 cycles
 SCF Done:  E(RHF) =  -984.565037424     A.U. after   15 cycles
 SCF Done:  E(RHF) =  -984.565335018     A.U. after   11 cycles
 SCF Done:  E(RHF) =  -984.565343654     A.U. after   10 cycles
 SCF Done:  E(RHF) =  -984.565343143     A.U. after   11 cycles
 SCF Done:  E(RHF) =  -984.565349964     A.U. after   10 cycles
 SCF Done:  E(RHF) =  -984.565350818     A.U. after   10 cycles
 SCF Done:  E(RHF) =  -984.565351231     A.U. after    9 cycles
 SCF Done:  E(RHF) =  -984.565351259     A.U. after    7 cycles
 SCF Done:  E(RHF) =  -984.565351279     A.U. after    7 cycles
 SCF Done:  E(RHF) =  -984.565351283     A.U. after    6 cycles
 SCF Done:  E(RHF) =  -984.565351288     A.U. after    5 cycles
 Optimization completed.
    -- Stationary point found.

                         Standard orientation:
 ---------------------------------------------------------------------
 Center     Atomic      Atomic             Coordinates (Angstroms)
 Number     Number       Type             X           Y           Z
 ---------------------------------------------------------------------
      1          1           0        7.566435    0.443431    0.791962
      2          6           0        6.771093   -0.237083    1.065256
      3          1           0        6.399254    0.015893    2.050763
      4          1           0        7.186576   -1.238641    1.095636
      5          6           0        5.703606   -0.190482   -0.006938
      6          8           0        5.985925   -0.182290   -1.177094
      7          7           0        4.430165   -0.179014    0.434347
      8          1           0        4.221595   -0.182505    1.407226
      9          6           0        3.301191   -0.158426   -0.464364
     10          1           0        3.547212    0.483438   -1.300082
     11          6           0        2.948876   -1.557933   -0.988366
     12          1           0        2.723355   -2.220173   -0.160000
     13          1           0        2.085930   -1.532174   -1.644012
     14          1           0        3.795067   -1.952578   -1.535662
     15          6           0        2.117811    0.423251    0.298473
     16          8           0        2.037911    0.335298    1.495226
     17          7           0        1.185653    1.045968   -0.464978
     18          1           0        1.231371    0.870811   -1.444859
     19          6           0       -0.131906    1.327741    0.051648
     20          1           0       -0.037751    1.427465    1.123416
     21          6           0       -0.653342    2.640060   -0.545482
     22          1           0       -0.763257    2.559541   -1.622811
     23          1           0       -1.615464    2.920150   -0.134538
     24          1           0        0.051662    3.434049   -0.334097
     25          6           0       -1.069779    0.147921   -0.242446
     26          8           0       -0.697227   -0.817847   -0.857700
     27          7           0       -2.334240    0.289893    0.191777
     28          1           0       -2.615224    1.079861    0.729018
     29          6           0       -3.339516   -0.728853   -0.000227
     30          1           0       -3.234989   -1.120595   -1.004086
     31          6           0       -3.202790   -1.880528    1.004821
     32          1           0       -3.319274   -1.511622    2.017923
     33          1           0       -3.951767   -2.645722    0.829025
     34          1           0       -2.223420   -2.329082    0.904884
     35          6           0       -4.698299   -0.050716    0.153362
     36          8           0       -4.821302    0.967517    0.784264
     37          7           0       -5.735983   -0.686179   -0.416894
     38          1           0       -5.560736   -1.471670   -0.999267
     39          6           0       -7.087054   -0.169977   -0.329384
     40          1           0       -7.207768    0.730050   -0.920805
     41          1           0       -7.769693   -0.925758   -0.693142
     42          1           0       -7.330078    0.059885    0.698058
 ---------------------------------------------------------------------

 The electronic state is 1-A.
 Alpha  occ. eigenvalues --  -20.54183 -20.53550 -20.53460 -20.50956 -15.60321
 Alpha  occ. eigenvalues --  -15.59061 -15.58961 -15.57411 -11.36147 -11.35424
 Alpha  occ. eigenvalues --  -11.35321 -11.33865 -11.29036 -11.28532 -11.27387
 Alpha  occ. eigenvalues --  -11.27083 -11.23623 -11.23022 -11.22420 -11.21270
 Alpha  occ. eigenvalues --   -1.41278  -1.40683  -1.39832  -1.37848  -1.25096
 Alpha  occ. eigenvalues --   -1.24834  -1.24726  -1.22988  -1.07665  -1.05058
 Alpha  occ. eigenvalues --   -1.02561  -0.98159  -0.97086  -0.91805  -0.89896
 Alpha  occ. eigenvalues --   -0.86724  -0.81550  -0.80212  -0.79609  -0.78013
 Alpha  occ. eigenvalues --   -0.75971  -0.71386  -0.68479  -0.68175  -0.67371
 Alpha  occ. eigenvalues --   -0.65242  -0.64967  -0.64720  -0.63651  -0.62249
 Alpha  occ. eigenvalues --   -0.61583  -0.60856  -0.60703  -0.60092  -0.59018
 Alpha  occ. eigenvalues --   -0.57771  -0.56834  -0.56688  -0.56302  -0.55760
 Alpha  occ. eigenvalues --   -0.55643  -0.54805  -0.53808  -0.53684  -0.52483
 Alpha  occ. eigenvalues --   -0.52216  -0.51740  -0.50444  -0.48994  -0.43937
 Alpha  occ. eigenvalues --   -0.43175  -0.42714  -0.41012  -0.40802  -0.39956
 Alpha  occ. eigenvalues --   -0.39339  -0.37805
 Alpha virt. eigenvalues --    0.17867   0.19259   0.19789   0.20464   0.21521
 Alpha virt. eigenvalues --    0.22442   0.23578   0.24431   0.25666   0.27295
 Alpha virt. eigenvalues --    0.28326   0.28726   0.29224   0.30134   0.30429

 Mulliken atomic charges:
              1
     1  H    0.206685
     2  C   -0.575801
     3  H    0.172183
     4  H    0.201456
     5  C    0.757360
     6  O   -0.623459
     7  N   -0.822091
     8  H    0.415642
     9  C   -0.041446
    10  H    0.220030
    11  C   -0.492127
    12  H    0.177190
    13  H    0.183981
    14  H    0.203013
    15  C    0.789660
    16  O   -0.631447
    17  N   -0.778612
    18  H    0.392077
    19  C   -0.089677
    20  H    0.249823
    21  C   -0.482318
    22  H    0.169906
    23  H    0.178524
    24  H    0.195702
    25  C    0.793811
    26  O   -0.634783
    27  N   -0.836984
    28  H    0.424854
    29  C   -0.032061
    30  H    0.212344
    31  C   -0.487805
    32  H    0.181911
    33  H    0.160840
    34  H    0.213542
    35  C    0.779453
    36  O   -0.631704
    37  N   -0.800021
    38  H    0.390823
    39  C   -0.273003
    40  H    0.185754
    41  H    0.173266
    42  H    0.203508
 Sum of Mulliken atomic charges =   0.00000

 Dipole moment (field-independent basis, Debye):
    X=             -5.6433    Y=             -0.7745    Z=             -0.3030  Tot=              5.7042
 Quadrupole moment (field-independent basis, Debye-Ang):
   XX=           -112.0941   YY=           -117.0846   ZZ=           -123.9478
   XY=             12.3704   XZ=             23.9338   YZ=             -3.2131

 Normal termination of Gaussian 09 at Tue Dec 27 05:35:02 2016.
