 Gaussian 09, Revision A.02,
 Gaussian 09:  EM64L-G09RevA.02 11-Jun-2009

 -------------------------------------------------------------------
 # HF/6-31G* Opt=(ModRedundant, maxcycles=1000, calcfc) geom=nocrowd
 -------------------------------------------------------------------

 ------------------
 Phi Psi fixed scan
 ------------------
 Symbolic Z-matrix:
 Charge =  0 Multiplicity = 1

 SCF Done:  E(RHF) =  -984.531496954     A.U. after   15 cycles

  Exact polarizability:   0.000   0.000   0.000   0.000   0.000   0.000
 Approx polarizability: 133.386   3.418 130.535  -2.319   2.232 124.722

 SCF Done:  E(RHF) =  -984.541581778     A.U. after   13 cycles
 SCF Done:  E(RHF) =  -984.553037632     A.U. after   13 cycles
 SCF Done:  E(RHF) =  -984.556300755     A.U. after   13 cycles
 SCF Done:  E(RHF) =  -984.559214274     A.U. after   16 cycles
 SCF Done:  E(RHF) =  -984.557097923     A.U. after   15 cycles
 SCF Done:  E(RHF) =  -984.496393917     A.U. after   16 cycles
 SCF Done:  E(RHF) =  -984.502643604     A.U. after   15 cycles
 SCF Done:  E(RHF) =  -984.559561152     A.U. after   14 cycles
 SCF Done:  E(RHF) =  -984.560208694     A.U. after   13 cycles
 SCF Done:  E(RHF) =  -984.561666127     A.U. after    9 cycles
 SCF Done:  E(RHF) =  -984.561669055     A.U. after   10 cycles
 SCF Done:  E(RHF) =  -984.561670105     A.U. after    9 cycles
 SCF Done:  E(RHF) =  -984.561670501     A.U. after    9 cycles
 SCF Done:  E(RHF) =  -984.561670691     A.U. after    8 cycles
 SCF Done:  E(RHF) =  -984.561670833     A.U. after    8 cycles
 SCF Done:  E(RHF) =  -984.561670933     A.U. after    8 cycles
 SCF Done:  E(RHF) =  -984.561671011     A.U. after    8 cycles
 SCF Done:  E(RHF) =  -984.561671045     A.U. after    7 cycles
 SCF Done:  E(RHF) =  -984.561671049     A.U. after    7 cycles
 Optimization completed.
    -- Stationary point found.

                         Standard orientation:
 ---------------------------------------------------------------------
 Center     Atomic      Atomic             Coordinates (Angstroms)
 Number     Number       Type             X           Y           Z
 ---------------------------------------------------------------------
      1          1           0        7.629923    0.406979   -0.005232
      2          6           0        6.882040   -0.164356    0.528355
      3          1           0        6.664271    0.316422    1.474320
      4          1           0        7.293213   -1.148900    0.723804
      5          6           0        5.665287   -0.317957   -0.358864
      6          8           0        5.768103   -0.589791   -1.527265
      7          7           0        4.473425   -0.151124    0.247058
      8          1           0        4.413159    0.084875    1.211826
      9          6           0        3.222391   -0.282453   -0.459769
     10          1           0        3.347263    0.143714   -1.447021
     11          6           0        2.782814   -1.747153   -0.594378
     12          1           0        2.658038   -2.192160    0.385823
     13          1           0        1.840321   -1.833484   -1.123056
     14          1           0        3.541688   -2.292913   -1.139849
     15          6           0        2.174200    0.510206    0.311583
     16          8           0        2.289831    0.726401    1.487482
     17          7           0        1.131344    0.964395   -0.430107
     18          1           0        1.052802    0.598083   -1.353412
     19          6           0       -0.102718    1.387684    0.193026
     20          1           0        0.150412    1.666215    1.206770
     21          6           0       -0.668980    2.607639   -0.536531
     22          1           0       -0.991259    2.361419   -1.543656
     23          1           0       -1.510266    3.042389   -0.008516
     24          1           0        0.101200    3.365182   -0.602828
     25          6           0       -1.050709    0.180605    0.307735
     26          8           0       -0.610800   -0.933820    0.426902
     27          7           0       -2.370258    0.431742    0.261182
     28          1           0       -2.731085    1.349099    0.131154
     29          6           0       -3.355103   -0.615291    0.401976
     30          1           0       -3.019032   -1.476159   -0.162349
     31          6           0       -3.559807   -1.026033    1.866354
     32          1           0       -3.914446   -0.182192    2.448013
     33          1           0       -4.282742   -1.830587    1.951547
     34          1           0       -2.618669   -1.366176    2.277240
     35          6           0       -4.658700   -0.086466   -0.190285
     36          8           0       -4.864129    1.095292   -0.298637
     37          7           0       -5.562325   -1.018441   -0.536941
     38          1           0       -5.304201   -1.977246   -0.506120
     39          6           0       -6.852469   -0.660227   -1.090906
     40          1           0       -7.332938    0.078510   -0.465521
     41          1           0       -6.756216   -0.253890   -2.090844
     42          1           0       -7.470253   -1.547018   -1.128070
 ---------------------------------------------------------------------

 The electronic state is 1-A.
 Alpha  occ. eigenvalues --  -20.54297 -20.53308 -20.53067 -20.50889 -15.60384
 Alpha  occ. eigenvalues --  -15.59139 -15.59067 -15.57317 -11.36238 -11.35360
 Alpha  occ. eigenvalues --  -11.35193 -11.33798 -11.29044 -11.28581 -11.27329
 Alpha  occ. eigenvalues --  -11.27146 -11.23649 -11.23101 -11.22356 -11.21207
 Alpha  occ. eigenvalues --   -1.41336  -1.40545  -1.39622  -1.37770  -1.25165
 Alpha  occ. eigenvalues --   -1.24811  -1.24649  -1.22909  -1.07613  -1.05017
 Alpha  occ. eigenvalues --   -1.02521  -0.98089  -0.97136  -0.91840  -0.89907
 Alpha  occ. eigenvalues --   -0.86917  -0.81509  -0.80394  -0.79666  -0.77927
 Alpha  occ. eigenvalues --   -0.75919  -0.71314  -0.68282  -0.68000  -0.67599
 Alpha  occ. eigenvalues --   -0.65262  -0.65009  -0.64551  -0.64006  -0.62314
 Alpha  occ. eigenvalues --   -0.61421  -0.60961  -0.60276  -0.59702  -0.58886
 Alpha  occ. eigenvalues --   -0.57681  -0.56905  -0.56565  -0.56419  -0.55741
 Alpha  occ. eigenvalues --   -0.55616  -0.55111  -0.53874  -0.53645  -0.52417
 Alpha  occ. eigenvalues --   -0.52179  -0.51668  -0.50324  -0.48885  -0.44036
 Alpha  occ. eigenvalues --   -0.43200  -0.42426  -0.41097  -0.40727  -0.39741
 Alpha  occ. eigenvalues --   -0.39245  -0.37735
 Alpha virt. eigenvalues --    0.17587   0.19233   0.19684   0.20421   0.21722
 Alpha virt. eigenvalues --    0.22794   0.23769   0.24530   0.25616   0.27325
 Alpha virt. eigenvalues --    0.28512   0.28642   0.29320   0.29521   0.30333

 Mulliken atomic charges:
              1
     1  H    0.206117
     2  C   -0.575447
     3  H    0.172409
     4  H    0.201476
     5  C    0.757312
     6  O   -0.624738
     7  N   -0.821696
     8  H    0.416812
     9  C   -0.046421
    10  H    0.217250
    11  C   -0.482306
    12  H    0.184120
    13  H    0.170902
    14  H    0.201284
    15  C    0.802465
    16  O   -0.627710
    17  N   -0.784368
    18  H    0.384951
    19  C   -0.080733
    20  H    0.259526
    21  C   -0.503349
    22  H    0.172662
    23  H    0.174374
    24  H    0.201610
    25  C    0.788770
    26  O   -0.627500
    27  N   -0.851522
    28  H    0.434847
    29  C   -0.029736
    30  H    0.213715
    31  C   -0.487722
    32  H    0.180066
    33  H    0.160594
    34  H    0.215157
    35  C    0.777372
    36  O   -0.631754
    37  N   -0.799923
    38  H    0.391312
    39  C   -0.272784
    40  H    0.202939
    41  H    0.186118
    42  H    0.173547
 Sum of Mulliken atomic charges =   0.00000

 Dipole moment (field-independent basis, Debye):
    X=             -5.5126    Y=             -0.9367    Z=             -0.0003  Tot=              5.5916
 Quadrupole moment (field-independent basis, Debye-Ang):
   XX=           -111.6048   YY=           -117.4807   ZZ=           -124.7267
   XY=             19.2883   XZ=             16.1744   YZ=             -0.8846

 Normal termination of Gaussian 09 at Tue Dec 27 06:49:45 2016.
