 Gaussian 09, Revision A.02,
 Gaussian 09:  EM64L-G09RevA.02 11-Jun-2009

 -------------------------------------------------------------------
 # HF/6-31G* Opt=(ModRedundant, maxcycles=1000, calcfc) geom=nocrowd
 -------------------------------------------------------------------

 ------------------
 Phi Psi fixed scan
 ------------------
 Symbolic Z-matrix:
 Charge =  0 Multiplicity = 1

 SCF Done:  E(RHF) =  -984.527571747     A.U. after   15 cycles

  Exact polarizability:   0.000   0.000   0.000   0.000   0.000   0.000
 Approx polarizability: 131.658  -2.811 126.581   3.373  -8.980 130.619

 SCF Done:  E(RHF) =  -984.538289023     A.U. after   13 cycles
 SCF Done:  E(RHF) =  -984.550232764     A.U. after   15 cycles
 SCF Done:  E(RHF) =  -984.553594056     A.U. after   16 cycles
 SCF Done:  E(RHF) =  -984.556685642     A.U. after   13 cycles
 SCF Done:  E(RHF) =  -984.557832177     A.U. after   15 cycles
 SCF Done:  E(RHF) =  -984.555685132     A.U. after   16 cycles
 SCF Done:  E(RHF) =  -984.558298998     A.U. after   16 cycles
 SCF Done:  E(RHF) =  -984.446322931     A.U. after   16 cycles
 SCF Done:  E(RHF) =  -984.558489812     A.U. after   16 cycles
 SCF Done:  E(RHF) =  -984.558606125     A.U. after   10 cycles
 SCF Done:  E(RHF) =  -984.558606906     A.U. after   10 cycles
 SCF Done:  E(RHF) =  -984.558607367     A.U. after    8 cycles
 SCF Done:  E(RHF) =  -984.558607741     A.U. after    8 cycles
 SCF Done:  E(RHF) =  -984.558608108     A.U. after    8 cycles
 SCF Done:  E(RHF) =  -984.558608939     A.U. after    9 cycles
 SCF Done:  E(RHF) =  -984.558610310     A.U. after   10 cycles
 SCF Done:  E(RHF) =  -984.558611016     A.U. after   10 cycles
 SCF Done:  E(RHF) =  -984.558611125     A.U. after    8 cycles
 SCF Done:  E(RHF) =  -984.558611143     A.U. after    6 cycles
 Optimization completed.
    -- Stationary point found.

                         Standard orientation:
 ---------------------------------------------------------------------
 Center     Atomic      Atomic             Coordinates (Angstroms)
 Number     Number       Type             X           Y           Z
 ---------------------------------------------------------------------
      1          1           0       -7.493453    0.339469   -0.492100
      2          6           0       -6.775662    0.370015    0.316793
      3          1           0       -6.726471   -0.600294    0.795757
      4          1           0       -7.122179    1.099422    1.040983
      5          6           0       -5.444244    0.833251   -0.234032
      6          8           0       -5.367663    1.751508   -1.009123
      7          7           0       -4.360971    0.168625    0.213848
      8          1           0       -4.447611   -0.600183    0.839772
      9          6           0       -3.023515    0.499479   -0.211645
     10          1           0       -3.054356    0.743796   -1.266181
     11          6           0       -2.446519    1.692034    0.564499
     12          1           0       -2.392749    1.461929    1.622121
     13          1           0       -1.447726    1.943458    0.223207
     14          1           0       -3.087348    2.551426    0.417520
     15          6           0       -2.153225   -0.733068    0.005446
     16          8           0       -2.455159   -1.584267    0.794887
     17          7           0       -1.039427   -0.793467   -0.771086
     18          1           0       -0.838064    0.005359   -1.331903
     19          6           0        0.084333   -1.647906   -0.436320
     20          1           0       -0.310884   -2.422482    0.203626
     21          6           0        0.663302   -2.281522   -1.698788
     22          1           0        1.024265   -1.536088   -2.401673
     23          1           0        1.481041   -2.954613   -1.464036
     24          1           0       -0.110693   -2.854347   -2.193576
     25          6           0        1.060860   -0.851714    0.447452
     26          8           0        0.678674   -0.373011    1.483261
     27          7           0        2.314011   -0.678616   -0.008352
     28          1           0        2.622391   -1.068259   -0.869896
     29          6           0        3.303301    0.066360    0.734466
     30          1           0        2.823541    0.941593    1.154276
     31          6           0        3.918282   -0.759858    1.872152
     32          1           0        4.419020   -1.635501    1.473637
     33          1           0        4.640255   -0.177508    2.435014
     34          1           0        3.134415   -1.078076    2.546324
     35          6           0        4.381882    0.492598   -0.257739
     36          8           0        4.544668   -0.094260   -1.296917
     37          7           0        5.150937    1.525822    0.124283
     38          1           0        4.915826    2.023972    0.951016
     39          6           0        6.228860    2.022092   -0.707332
     40          1           0        6.868306    1.206318   -1.012941
     41          1           0        5.850482    2.513641   -1.595805
     42          1           0        6.810056    2.730088   -0.132576
 ---------------------------------------------------------------------

 The electronic state is 1-A.
 Alpha  occ. eigenvalues --  -20.54338 -20.53396 -20.52699 -20.51044 -15.60424
 Alpha  occ. eigenvalues --  -15.59479 -15.59217 -15.57456 -11.36275 -11.35370
 Alpha  occ. eigenvalues --  -11.35202 -11.33937 -11.29064 -11.28530 -11.27601
 Alpha  occ. eigenvalues --  -11.27176 -11.23627 -11.23161 -11.22448 -11.21677
 Alpha  occ. eigenvalues --   -1.41344  -1.40560  -1.39507  -1.37923  -1.25201
 Alpha  occ. eigenvalues --   -1.25054  -1.24555  -1.23074  -1.07651  -1.05146
 Alpha  occ. eigenvalues --   -1.02675  -0.98266  -0.97178  -0.91867  -0.90021
 Alpha  occ. eigenvalues --   -0.87169  -0.81524  -0.80706  -0.79668  -0.78095
 Alpha  occ. eigenvalues --   -0.75862  -0.71436  -0.68291  -0.68218  -0.67318
 Alpha  occ. eigenvalues --   -0.65303  -0.65100  -0.64416  -0.64256  -0.62665
 Alpha  occ. eigenvalues --   -0.61436  -0.61092  -0.60519  -0.59243  -0.59053
 Alpha  occ. eigenvalues --   -0.57877  -0.56936  -0.56612  -0.56283  -0.56036
 Alpha  occ. eigenvalues --   -0.55728  -0.54761  -0.53972  -0.53859  -0.52522
 Alpha  occ. eigenvalues --   -0.52400  -0.51985  -0.50474  -0.49054  -0.44317
 Alpha  occ. eigenvalues --   -0.43505  -0.42537  -0.41103  -0.40867  -0.39369
 Alpha  occ. eigenvalues --   -0.38972  -0.37889
 Alpha virt. eigenvalues --    0.17181   0.18798   0.19669   0.20390   0.21761
 Alpha virt. eigenvalues --    0.23052   0.23755   0.24466   0.25513   0.27299
 Alpha virt. eigenvalues --    0.28251   0.28871   0.29086   0.29781   0.30250

 Mulliken atomic charges:
              1
     1  H    0.206377
     2  C   -0.575334
     3  H    0.173287
     4  H    0.201845
     5  C    0.756927
     6  O   -0.625020
     7  N   -0.821995
     8  H    0.418691
     9  C   -0.043658
    10  H    0.216399
    11  C   -0.482911
    12  H    0.189914
    13  H    0.156470
    14  H    0.205826
    15  C    0.804516
    16  O   -0.618964
    17  N   -0.799650
    18  H    0.384347
    19  C   -0.065029
    20  H    0.258065
    21  C   -0.511782
    22  H    0.168589
    23  H    0.180273
    24  H    0.202344
    25  C    0.778877
    26  O   -0.622585
    27  N   -0.850433
    28  H    0.435767
    29  C   -0.030381
    30  H    0.214575
    31  C   -0.487442
    32  H    0.179056
    33  H    0.161116
    34  H    0.215034
    35  C    0.776922
    36  O   -0.631848
    37  N   -0.799794
    38  H    0.391623
    39  C   -0.272795
    40  H    0.202681
    41  H    0.186312
    42  H    0.173793
 Sum of Mulliken atomic charges =   0.00000

 Dipole moment (field-independent basis, Debye):
    X=              5.0653    Y=              0.8271    Z=              0.5096  Tot=              5.1577
 Quadrupole moment (field-independent basis, Debye-Ang):
   XX=           -108.9989   YY=           -118.9192   ZZ=           -126.4509
   XY=             20.9956   XZ=              1.3676   YZ=              8.0254

 Normal termination of Gaussian 09 at Tue Dec 27 03:23:47 2016.
