 Gaussian 09, Revision A.02,
 Gaussian 09:  EM64L-G09RevA.02 11-Jun-2009

 -------------------
 #SP MP2/aug-cc-pVDZ
 -------------------

 -------------------------------
 Single Point calculation at MP2
 -------------------------------
 Symbolic Z-matrix:
 Charge =  0 Multiplicity = 1

                         Standard orientation:
 ---------------------------------------------------------------------
 Center     Atomic      Atomic             Coordinates (Angstroms)
 Number     Number       Type             X           Y           Z
 ---------------------------------------------------------------------
      1          1           0        3.646482   -1.120800   -0.993103
      2          6           0        3.059683   -1.071298   -0.073503
      3          1           0        3.669884   -0.641900    0.727497
      4          1           0        2.787279   -2.095397    0.208297
      5          6           0        1.790385   -0.278894   -0.342003
      6          8           0        1.216185   -0.305092   -1.424603
      7          7           0        1.331687    0.469907    0.714897
      8          1           0        1.677087    0.212106    1.629397
      9          6           0       -0.016111    1.046112    0.685397
     10          1           0       -0.183210    1.444212    1.693197
     11          6           0       -0.120907    2.210312   -0.306103
     12          1           0        0.050692    1.871911   -1.330403
     13          1           0       -1.102306    2.692315   -0.232903
     14          1           0        0.638695    2.961010   -0.067303
     15          6           0       -1.052714   -0.100285    0.557097
     16          8           0       -0.975917   -1.065785    1.308297
     17          7           0       -2.061814    0.069718   -0.341703
     18          1           0       -1.921112    0.743718   -1.080403
     19          6           0       -3.031517   -0.988779   -0.578903
     20          1           0       -3.239419   -1.482878    0.371197
     21          1           0       -3.954216   -0.556176   -0.976103
     22          1           0       -2.654020   -1.741480   -1.283203
 ---------------------------------------------------------------------

 SCF Done:  E(RHF) =  -492.922680178     A.U. after   15 cycles
 E2 =    -0.1602120641D+01 EUMP2 =    -0.49452480081970D+03

 The electronic state is 1-A.
 Alpha  occ. eigenvalues --  -20.53448 -20.52689 -15.59565 -15.59105 -11.36366
 Alpha  occ. eigenvalues --  -11.35612 -11.29595 -11.26301 -11.24559 -11.23597
 Alpha  occ. eigenvalues --   -1.39059  -1.37827  -1.23728  -1.22827  -1.05433
 Alpha  occ. eigenvalues --   -0.99184  -0.94869  -0.88654  -0.80013  -0.76870
 Alpha  occ. eigenvalues --   -0.71514  -0.70062  -0.64995  -0.64071  -0.61666
 Alpha  occ. eigenvalues --   -0.61281  -0.59623  -0.58307  -0.56516  -0.55758
 Alpha  occ. eigenvalues --   -0.54686  -0.54472  -0.52710  -0.51164  -0.50142
 Alpha  occ. eigenvalues --   -0.42888  -0.42498  -0.40128  -0.38744
 Alpha virt. eigenvalues --    0.03095   0.03744   0.04324   0.04724   0.05950
 Alpha virt. eigenvalues --    0.05976   0.06387   0.06789   0.07609   0.07786
 Alpha virt. eigenvalues --    0.09024   0.09746   0.10784   0.11744   0.12946

 Mulliken atomic charges:
              1
     1  H   -0.004093
     2  C    0.373408
     3  H   -0.060252
     4  H    0.067173
     5  C    0.646062
     6  O   -0.842966
     7  N   -0.396887
     8  H   -0.066844
     9  C   -0.148430
    10  H   -0.121707
    11  C    0.848166
    12  H    0.062583
    13  H    0.008133
    14  H   -0.147007
    15  C    0.906281
    16  O   -0.906014
    17  N   -0.500378
    18  H   -0.104049
    19  C    0.737404
    20  H   -0.116207
    21  H   -0.180436
    22  H   -0.053942
 Sum of Mulliken atomic charges =   0.00000

 Dipole moment (field-independent basis, Debye):
    X=              0.4792    Y=              2.3736    Z=              0.6076  Tot=              2.4966
 Quadrupole moment (field-independent basis, Debye-Ang):
   XX=            -50.5784   YY=            -60.9099   ZZ=            -65.3145
   XY=             -3.4591   XZ=              9.0321   YZ=              2.5893

 Normal termination of Gaussian 09 at Tue Feb 14 02:20:43 2017.
