 Gaussian 09, Revision A.02,
 Gaussian 09:  EM64L-G09RevA.02 11-Jun-2009

 -------------------
 #SP MP2/aug-cc-pVDZ
 -------------------

 -------------------------------
 Single Point calculation at MP2
 -------------------------------
 Symbolic Z-matrix:
 Charge =  0 Multiplicity = 1

                         Standard orientation:
 ---------------------------------------------------------------------
 Center     Atomic      Atomic             Coordinates (Angstroms)
 Number     Number       Type             X           Y           Z
 ---------------------------------------------------------------------
      1          1           0       -3.771089   -1.430522    0.174896
      2          6           0       -2.895689   -1.338519   -0.469804
      3          1           0       -3.218389   -1.172220   -1.504004
      4          1           0       -2.336486   -2.281617   -0.432904
      5          6           0       -2.012993   -0.214116    0.056696
      6          8           0       -2.094294    0.194984    1.200496
      7          7           0       -1.168395    0.337487   -0.906404
      8          1           0       -1.143793   -0.209913   -1.759704
      9          6           0        0.140203    0.921192   -0.594904
     10          1           0        0.558102    1.224893   -1.563104
     11          6           0        0.026799    2.170091    0.295096
     12          1           0       -0.383100    1.900090    1.268396
     13          1           0        1.013797    2.628495    0.427896
     14          1           0       -0.638604    2.900289   -0.175804
     15          6           0        1.093007   -0.111305    0.056196
     16          8           0        0.735210   -0.900406    0.917296
     17          7           0        2.362707   -0.095601   -0.461104
     18          1           0        2.605804    0.628600   -1.122304
     19          6           0        3.435810   -0.905597    0.090796
     20          1           0        2.976312   -1.660698    0.730096
     21          1           0        3.995211   -1.399595   -0.710904
     22          1           0        4.131907   -0.308094    0.693196
 ---------------------------------------------------------------------

 SCF Done:  E(RHF) =  -492.911501152     A.U. after   14 cycles
 E2 =    -0.1602565435D+01 EUMP2 =    -0.49451406658660D+03

 The electronic state is 1-A.
 Alpha  occ. eigenvalues --  -20.53123 -20.52413 -15.60098 -15.59221 -11.36052
 Alpha  occ. eigenvalues --  -11.35558 -11.29875 -11.27116 -11.23942 -11.22854
 Alpha  occ. eigenvalues --   -1.38906  -1.37469  -1.23792  -1.23009  -1.05159
 Alpha  occ. eigenvalues --   -0.98565  -0.95810  -0.87481  -0.80051  -0.76928
 Alpha  occ. eigenvalues --   -0.71011  -0.69558  -0.65339  -0.62994  -0.62322
 Alpha  occ. eigenvalues --   -0.61770  -0.59268  -0.58532  -0.56292  -0.55688
 Alpha  occ. eigenvalues --   -0.54958  -0.53143  -0.52523  -0.50650  -0.49867
 Alpha  occ. eigenvalues --   -0.44526  -0.41360  -0.39598  -0.38298
 Alpha virt. eigenvalues --    0.02200   0.03673   0.04078   0.04584   0.05787
 Alpha virt. eigenvalues --    0.05897   0.06080   0.06813   0.07797   0.08069
 Alpha virt. eigenvalues --    0.08526   0.09379   0.11131   0.11872   0.12667

 Mulliken atomic charges:
              1
     1  H   -0.047249
     2  C    0.313046
     3  H   -0.028879
     4  H    0.064940
     5  C    0.771273
     6  O   -0.799166
     7  N   -0.440294
     8  H   -0.053980
     9  C   -0.329921
    10  H   -0.279671
    11  C    0.740701
    12  H    0.029221
    13  H   -0.067878
    14  H   -0.030368
    15  C    1.209070
    16  O   -0.833315
    17  N   -0.453817
    18  H   -0.123398
    19  C    0.732225
    20  H   -0.141389
    21  H   -0.137528
    22  H   -0.093624
 Sum of Mulliken atomic charges =   0.00000

 Dipole moment (field-independent basis, Debye):
    X=              3.0126    Y=              0.6356    Z=             -5.5009  Tot=              6.3040
 Quadrupole moment (field-independent basis, Debye-Ang):
   XX=            -53.1609   YY=            -59.7706   ZZ=            -63.6134
   XY=              5.5669   XZ=              3.6364   YZ=              1.4499

 Normal termination of Gaussian 09 at Tue Feb 14 01:15:08 2017.
