 Gaussian 09, Revision A.02,
 Gaussian 09:  EM64L-G09RevA.02 11-Jun-2009

 -------------------
 #SP MP2/aug-cc-pVDZ
 -------------------

 -------------------------------
 Single Point calculation at MP2
 -------------------------------
 Symbolic Z-matrix:
 Charge =  0 Multiplicity = 1

                         Standard orientation:
 ---------------------------------------------------------------------
 Center     Atomic      Atomic             Coordinates (Angstroms)
 Number     Number       Type             X           Y           Z
 ---------------------------------------------------------------------
      1          1           0       -3.322679   -1.868722   -0.236479
      2          6           0       -3.214484   -0.783021   -0.302779
      3          1           0       -3.915886   -0.340225    0.412921
      4          1           0       -3.487885   -0.453723   -1.309979
      5          6           0       -1.798085   -0.406715    0.107021
      6          8           0       -1.274583   -0.880712    1.116021
      7          7           0       -1.158789    0.470288   -0.715579
      8          1           0       -1.673891    0.796386   -1.520879
      9          6           0        0.109507    1.170394   -0.450279
     10          1           0        0.341005    1.701795   -1.378979
     11          6           0       -0.047297    2.203193    0.679421
     12          1           0       -0.331495    1.702292    1.609521
     13          1           0        0.902500    2.720598    0.830921
     14          1           0       -0.820501    2.935390    0.424021
     15          6           0        1.380711    0.321000   -0.199679
     16          8           0        2.446709    0.918005   -0.090179
     17          7           0        1.278918   -1.035800   -0.233779
     18          1           0        0.393619   -1.409905    0.092921
     19          6           0        2.465621   -1.836995    0.036921
     20          1           0        3.295520   -1.458691   -0.562579
     21          1           0        2.764321   -1.797194    1.092821
     22          1           0        2.261626   -2.874896   -0.239179
 ---------------------------------------------------------------------

 SCF Done:  E(RHF) =  -492.921031515     A.U. after   14 cycles
 E2 =    -0.1603469251D+01 EUMP2 =    -0.49452450076620D+03

 The electronic state is 1-A.
 Alpha  occ. eigenvalues --  -20.54567 -20.52508 -15.61436 -15.57844 -11.38054
 Alpha  occ. eigenvalues --  -11.35402 -11.30091 -11.26096 -11.25613 -11.22976
 Alpha  occ. eigenvalues --   -1.40048  -1.37826  -1.25324  -1.21838  -1.05916
 Alpha  occ. eigenvalues --   -1.00072  -0.94749  -0.88231  -0.81241  -0.76671
 Alpha  occ. eigenvalues --   -0.72194  -0.70570  -0.64987  -0.63740  -0.62525
 Alpha  occ. eigenvalues --   -0.61283  -0.60344  -0.59133  -0.57911  -0.56005
 Alpha  occ. eigenvalues --   -0.54274  -0.53884  -0.52099  -0.51810  -0.49623
 Alpha  occ. eigenvalues --   -0.44051  -0.43376  -0.40288  -0.38242
 Alpha virt. eigenvalues --    0.02292   0.03847   0.04202   0.04575   0.05931
 Alpha virt. eigenvalues --    0.06249   0.06338   0.06731   0.07455   0.08188
 Alpha virt. eigenvalues --    0.08998   0.09589   0.11360   0.12005   0.12436

 Mulliken atomic charges:
              1
     1  H    0.032929
     2  C    0.398290
     3  H    0.054436
     4  H   -0.114456
     5  C    0.571894
     6  O   -0.868404
     7  N   -0.117432
     8  H   -0.133855
     9  C   -0.329000
    10  H   -0.042173
    11  C    0.754891
    12  H   -0.045721
    13  H   -0.039654
    14  H   -0.064472
    15  C    0.924728
    16  O   -0.863891
    17  N   -0.469489
    18  H   -0.034548
    19  C    0.752578
    20  H   -0.122329
    21  H   -0.051516
    22  H   -0.192808
 Sum of Mulliken atomic charges =   0.00000

 Dipole moment (field-independent basis, Debye):
    X=             -4.5735    Y=             -0.2576    Z=             -2.8110  Tot=              5.3745
 Quadrupole moment (field-independent basis, Debye-Ang):
   XX=            -61.7714   YY=            -58.7555   ZZ=            -62.2794
   XY=             -7.4344   XZ=              5.5171   YZ=              0.1885

 Normal termination of Gaussian 09 at Tue Feb 14 01:22:04 2017.
