 Gaussian 09, Revision A.02,
 Gaussian 09:  EM64L-G09RevA.02 11-Jun-2009

 -------------------
 #SP MP2/aug-cc-pVDZ
 -------------------

 -------------------------------
 Single Point calculation at MP2
 -------------------------------
 Symbolic Z-matrix:
 Charge =  0 Multiplicity = 1

                         Standard orientation:
 ---------------------------------------------------------------------
 Center     Atomic      Atomic             Coordinates (Angstroms)
 Number     Number       Type             X           Y           Z
 ---------------------------------------------------------------------
      1          1           0       -2.724892   -2.386101    0.193906
      2          6           0       -2.974096   -1.403202   -0.220594
      3          1           0       -3.914897   -1.085405    0.236206
      4          1           0       -3.118495   -1.505002   -1.301394
      5          6           0       -1.883899   -0.410798    0.176606
      6          8           0       -1.738600   -0.044698    1.331006
      7          7           0       -1.102800    0.026204   -0.867994
      8          1           0       -1.284999   -0.378696   -1.774194
      9          6           0        0.087397    0.885808   -0.759794
     10          1           0        0.466397    0.975709   -1.784694
     11          6           0       -0.253407    2.279407   -0.225194
     12          1           0       -0.594307    2.201306    0.807606
     13          1           0        0.633191    2.921810   -0.252094
     14          1           0       -1.038209    2.734004   -0.838194
     15          6           0        1.199699    0.242711    0.112006
     16          8           0        1.325299    0.465012    1.304306
     17          7           0        2.082802   -0.531386   -0.599394
     18          1           0        1.862802   -0.752086   -1.560194
     19          6           0        3.142904   -1.284982    0.048106
     20          1           0        3.304903   -0.840982    1.031206
     21          1           0        2.877007   -2.342083    0.181306
     22          1           0        4.066304   -1.222379   -0.537094
 ---------------------------------------------------------------------

 SCF Done:  E(RHF) =  -492.910375358     A.U. after   14 cycles
 E2 =    -0.1603240875D+01 EUMP2 =    -0.49451361623312D+03

 The electronic state is 1-A.
 Alpha  occ. eigenvalues --  -20.52653 -20.52588 -15.60298 -15.59544 -11.36168
 Alpha  occ. eigenvalues --  -11.35584 -11.29956 -11.26692 -11.24795 -11.22053
 Alpha  occ. eigenvalues --   -1.38570  -1.37721  -1.24254  -1.22652  -1.05247
 Alpha  occ. eigenvalues --   -0.98920  -0.95705  -0.87294  -0.80632  -0.77283
 Alpha  occ. eigenvalues --   -0.71280  -0.69628  -0.64761  -0.64230  -0.61748
 Alpha  occ. eigenvalues --   -0.61388  -0.59963  -0.58716  -0.56416  -0.55776
 Alpha  occ. eigenvalues --   -0.54478  -0.52809  -0.51516  -0.51208  -0.50376
 Alpha  occ. eigenvalues --   -0.43819  -0.41593  -0.39123  -0.38393
 Alpha virt. eigenvalues --    0.01853   0.03536   0.03833   0.04584   0.05473
 Alpha virt. eigenvalues --    0.05833   0.06252   0.06677   0.07337   0.07776
 Alpha virt. eigenvalues --    0.08891   0.09521   0.10623   0.12205   0.12375

 Mulliken atomic charges:
              1
     1  H    0.051550
     2  C    0.363188
     3  H    0.029095
     4  H   -0.150183
     5  C    0.657006
     6  O   -0.798070
     7  N   -0.237646
     8  H   -0.141852
     9  C   -0.239673
    10  H   -0.302342
    11  C    0.729259
    12  H    0.040376
    13  H   -0.050940
    14  H   -0.021517
    15  C    1.055714
    16  O   -0.774411
    17  N   -0.467318
    18  H   -0.129682
    19  C    0.743874
    20  H   -0.131222
    21  H   -0.082694
    22  H   -0.142510
 Sum of Mulliken atomic charges =   0.00000

 Dipole moment (field-independent basis, Debye):
    X=              0.2144    Y=             -2.2154    Z=             -6.9714  Tot=              7.3181
 Quadrupole moment (field-independent basis, Debye-Ang):
   XX=            -55.3837   YY=            -57.6097   ZZ=            -64.6552
   XY=             -0.3321   XZ=              1.3339   YZ=             -0.2395

 Normal termination of Gaussian 09 at Tue Feb 14 03:03:17 2017.
