 Gaussian 09, Revision A.02,
 Gaussian 09:  EM64L-G09RevA.02 11-Jun-2009

 -------------------
 #SP MP2/aug-cc-pVDZ
 -------------------

 -------------------------------
 Single Point calculation at MP2
 -------------------------------
 Symbolic Z-matrix:
 Charge =  0 Multiplicity = 1

                         Standard orientation:
 ---------------------------------------------------------------------
 Center     Atomic      Atomic             Coordinates (Angstroms)
 Number     Number       Type             X           Y           Z
 ---------------------------------------------------------------------
      1          1           0       -3.817908   -1.202389    0.449103
      2          6           0       -3.031908   -1.132592   -0.304497
      3          1           0       -3.470907   -0.854190   -1.269097
      4          1           0       -2.561911   -2.117693   -0.410497
      5          6           0       -1.979804   -0.140995    0.167803
      6          8           0       -1.837303    0.152704    1.342903
      7          7           0       -1.236102    0.434202   -0.857597
      8          1           0       -1.328104   -0.060798   -1.737197
      9          6           0        0.121099    0.919397   -0.627397
     10          1           0        0.493001    1.238396   -1.609897
     11          6           0        0.161304    2.138997    0.311303
     12          1           0       -0.156197    1.857898    1.315303
     13          1           0        1.169705    2.566893    0.354903
     14          1           0       -0.517893    2.909699   -0.065697
     15          6           0        1.045295   -0.234806   -0.149097
     16          8           0        0.616791   -1.335105    0.168403
     17          7           0        2.380596    0.053489   -0.221997
     18          1           0        2.656100    1.006188   -0.414397
     19          6           0        3.403293   -0.872615    0.235703
     20          1           0        2.936289   -1.853613    0.331403
     21          1           0        4.220993   -0.928818   -0.490797
     22          1           0        3.813794   -0.580516    1.210703
 ---------------------------------------------------------------------

 SCF Done:  E(RHF) =  -492.916761770     A.U. after   14 cycles
 E2 =    -0.1601896535D+01 EUMP2 =    -0.49451865830499D+03

 The electronic state is 1-A.
 Alpha  occ. eigenvalues --  -20.53340 -20.52395 -15.59789 -15.58860 -11.36074
 Alpha  occ. eigenvalues --  -11.35452 -11.29771 -11.27000 -11.23633 -11.23344
 Alpha  occ. eigenvalues --   -1.39051  -1.37444  -1.23595  -1.23043  -1.05118
 Alpha  occ. eigenvalues --   -0.98482  -0.95516  -0.87886  -0.79840  -0.76818
 Alpha  occ. eigenvalues --   -0.71176  -0.69599  -0.65309  -0.62893  -0.62057
 Alpha  occ. eigenvalues --   -0.61847  -0.59197  -0.58323  -0.56284  -0.55783
 Alpha  occ. eigenvalues --   -0.54873  -0.53463  -0.53143  -0.50624  -0.49676
 Alpha  occ. eigenvalues --   -0.43805  -0.41461  -0.39577  -0.38899
 Alpha virt. eigenvalues --    0.02490   0.03722   0.04299   0.04632   0.05746
 Alpha virt. eigenvalues --    0.05974   0.06222   0.06939   0.07680   0.08291
 Alpha virt. eigenvalues --    0.08688   0.09158   0.11388   0.11888   0.12401

 Mulliken atomic charges:
              1
     1  H   -0.041504
     2  C    0.337589
     3  H   -0.027184
     4  H    0.078730
     5  C    0.766263
     6  O   -0.841443
     7  N   -0.483622
     8  H   -0.051694
     9  C   -0.132248
    10  H   -0.155687
    11  C    0.689693
    12  H    0.018722
    13  H   -0.124477
    14  H   -0.028179
    15  C    1.061308
    16  O   -0.807744
    17  N   -0.510294
    18  H   -0.106617
    19  C    0.727931
    20  H   -0.137811
    21  H   -0.146139
    22  H   -0.085593
 Sum of Mulliken atomic charges =   0.00000

 Dipole moment (field-independent basis, Debye):
    X=              2.5600    Y=              1.7949    Z=             -4.0256  Tot=              5.0972
 Quadrupole moment (field-independent basis, Debye-Ang):
   XX=            -50.6003   YY=            -61.7832   ZZ=            -63.1719
   XY=              5.7858   XZ=              5.8625   YZ=              0.2788

 Normal termination of Gaussian 09 at Tue Feb 14 02:10:30 2017.
