 Gaussian 09, Revision A.02,
 Gaussian 09:  EM64L-G09RevA.02 11-Jun-2009

 -------------------
 #SP MP2/aug-cc-pVDZ
 -------------------

 -------------------------------
 Single Point calculation at MP2
 -------------------------------
 Symbolic Z-matrix:
 Charge =  0 Multiplicity = 1

                         Standard orientation:
 ---------------------------------------------------------------------
 Center     Atomic      Atomic             Coordinates (Angstroms)
 Number     Number       Type             X           Y           Z
 ---------------------------------------------------------------------
      1          1           0       -3.214308   -1.776584   -0.758096
      2          6           0       -3.204805   -0.713284   -0.499896
      3          1           0       -3.942205   -0.565483    0.295204
      4          1           0       -3.506204   -0.130384   -1.375496
      5          6           0       -1.830205   -0.355587    0.044604
      6          8           0       -1.371806   -0.941588    1.029504
      7          7           0       -1.177902    0.639611   -0.611796
      8          1           0       -1.624502    0.993012   -1.445696
      9          6           0        0.139799    1.231009   -0.307096
     10          1           0        0.334800    1.933308   -1.120296
     11          6           0        0.101300    2.013409    1.019704
     12          1           0       -0.130801    1.342009    1.851104
     13          1           0        1.075801    2.477307    1.196304
     14          1           0       -0.662898    2.796610    0.978904
     15          6           0        1.390397    0.314706   -0.315796
     16          8           0        2.466298    0.826004   -0.617096
     17          7           0        1.239494   -0.990194    0.012004
     18          1           0        0.375393   -1.255092    0.482504
     19          6           0        2.402692   -1.855696    0.120404
     20          1           0        3.080793   -1.652998   -0.710996
     21          1           0        2.955693   -1.691997    1.055104
     22          1           0        2.076290   -2.898295    0.079204
 ---------------------------------------------------------------------

 SCF Done:  E(RHF) =  -492.922940534     A.U. after   14 cycles
 E2 =    -0.1604091473D+01 EUMP2 =    -0.49452703200704D+03

 The electronic state is 1-A.
 Alpha  occ. eigenvalues --  -20.54681 -20.52137 -15.61716 -15.57568 -11.38320
 Alpha  occ. eigenvalues --  -11.35126 -11.30038 -11.26115 -11.25647 -11.23409
 Alpha  occ. eigenvalues --   -1.40134  -1.37422  -1.25447  -1.21767  -1.06117
 Alpha  occ. eigenvalues --   -1.00215  -0.94721  -0.88573  -0.81273  -0.76836
 Alpha  occ. eigenvalues --   -0.72512  -0.70794  -0.65078  -0.63302  -0.62381
 Alpha  occ. eigenvalues --   -0.61219  -0.60398  -0.59192  -0.57904  -0.56372
 Alpha  occ. eigenvalues --   -0.54530  -0.54175  -0.52216  -0.51857  -0.49622
 Alpha  occ. eigenvalues --   -0.44282  -0.43561  -0.39751  -0.37917
 Alpha virt. eigenvalues --    0.02368   0.03953   0.04341   0.04483   0.05839
 Alpha virt. eigenvalues --    0.06227   0.06421   0.06795   0.07591   0.08014
 Alpha virt. eigenvalues --    0.08942   0.09862   0.10850   0.11943   0.12108

 Mulliken atomic charges:
              1
     1  H    0.045258
     2  C    0.425895
     3  H    0.051181
     4  H   -0.144087
     5  C    0.599103
     6  O   -0.913000
     7  N   -0.139415
     8  H   -0.124357
     9  C   -0.290776
    10  H   -0.112528
    11  C    0.720726
    12  H   -0.039766
    13  H   -0.058342
    14  H   -0.076110
    15  C    1.065242
    16  O   -0.908484
    17  N   -0.468667
    18  H   -0.034883
    19  C    0.756779
    20  H   -0.118678
    21  H   -0.049458
    22  H   -0.185632
 Sum of Mulliken atomic charges =   0.00000

 Dipole moment (field-independent basis, Debye):
    X=             -4.5037    Y=              0.1029    Z=             -1.6496  Tot=              4.7974
 Quadrupole moment (field-independent basis, Debye-Ang):
   XX=            -63.3051   YY=            -58.6993   ZZ=            -62.0531
   XY=             -7.7300   XZ=              9.1095   YZ=              1.5587

 Normal termination of Gaussian 09 at Tue Feb 14 02:30:44 2017.
