 Gaussian 09, Revision A.02,
 Gaussian 09:  EM64L-G09RevA.02 11-Jun-2009

 -------------------
 #SP MP2/aug-cc-pVDZ
 -------------------

 -------------------------------
 Single Point calculation at MP2
 -------------------------------
 Symbolic Z-matrix:
 Charge =  0 Multiplicity = 1

                         Standard orientation:
 ---------------------------------------------------------------------
 Center     Atomic      Atomic             Coordinates (Angstroms)
 Number     Number       Type             X           Y           Z
 ---------------------------------------------------------------------
      1          1           0       -3.815790   -1.037441    0.166287
      2          6           0       -3.075992   -0.866934   -0.620613
      3          1           0       -3.485798   -0.163438   -1.351613
      4          1           0       -2.898183   -1.827532   -1.115713
      5          6           0       -1.780596   -0.400822    0.025487
      6          8           0       -1.297191   -1.011017    0.981587
      7          7           0       -1.230807    0.727883   -0.504413
      8          1           0       -1.646110    1.074380   -1.357513
      9          6           0        0.088288    1.297296   -0.160013
     10          1           0        0.243980    2.107497   -0.874813
     11          6           0        0.097383    1.873996    1.263287
     12          1           0       -0.112310    1.101994    2.006287
     13          1           0        1.075878    2.313805    1.482287
     14          1           0       -0.663625    2.656489    1.354387
     15          6           0        1.281297    0.343507   -0.438213
     16          8           0        2.050195    0.586614   -1.364613
     17          7           0        1.452206   -0.683892    0.433387
     18          1           0        0.636109   -0.950999    0.980387
     19          6           0        2.510015   -1.658482    0.222687
     20          1           0        3.427711   -1.136173   -0.054813
     21          1           0        2.673121   -2.213580    1.150187
     22          1           0        2.268822   -2.369084   -0.579713
 ---------------------------------------------------------------------

 SCF Done:  E(RHF) =  -492.923087765     A.U. after   14 cycles
 E2 =    -0.1603934906D+01 EUMP2 =    -0.49452702267043D+03

 The electronic state is 1-A.
 Alpha  occ. eigenvalues --  -20.54649 -20.52535 -15.61557 -15.57502 -11.38136
 Alpha  occ. eigenvalues --  -11.35048 -11.29846 -11.25926 -11.25650 -11.23547
 Alpha  occ. eigenvalues --   -1.40032  -1.37535  -1.25236  -1.21788  -1.06047
 Alpha  occ. eigenvalues --   -1.00142  -0.94493  -0.88781  -0.81124  -0.76473
 Alpha  occ. eigenvalues --   -0.72162  -0.70750  -0.65204  -0.63563  -0.62586
 Alpha  occ. eigenvalues --   -0.61385  -0.60331  -0.58228  -0.57615  -0.56533
 Alpha  occ. eigenvalues --   -0.54467  -0.53919  -0.52341  -0.51497  -0.50854
 Alpha  occ. eigenvalues --   -0.44530  -0.43570  -0.39658  -0.37822
 Alpha virt. eigenvalues --    0.02604   0.03986   0.04251   0.04637   0.05659
 Alpha virt. eigenvalues --    0.06118   0.06517   0.06684   0.07393   0.08235
 Alpha virt. eigenvalues --    0.08897   0.10119   0.11124   0.11654   0.12059

 Mulliken atomic charges:
              1
     1  H    0.032798
     2  C    0.418277
     3  H   -0.130471
     4  H    0.051910
     5  C    0.638105
     6  O   -0.890778
     7  N   -0.263042
     8  H   -0.102432
     9  C   -0.090086
    10  H   -0.220190
    11  C    0.817383
    12  H   -0.089584
    13  H   -0.039674
    14  H   -0.079372
    15  C    0.873031
    16  O   -0.843345
    17  N   -0.507945
    18  H   -0.000118
    19  C    0.785696
    20  H   -0.118908
    21  H   -0.180759
    22  H   -0.060496
 Sum of Mulliken atomic charges =   0.00000

 Dipole moment (field-independent basis, Debye):
    X=             -3.7093    Y=              0.5418    Z=             -0.1660  Tot=              3.7524
 Quadrupole moment (field-independent basis, Debye-Ang):
   XX=            -59.6358   YY=            -58.2971   ZZ=            -65.3799
   XY=             -5.3000   XZ=             11.9258   YZ=              2.5738

 Normal termination of Gaussian 09 at Tue Feb 14 02:21:12 2017.
