 Gaussian 09, Revision A.02,
 Gaussian 09:  EM64L-G09RevA.02 11-Jun-2009

 -------------------
 #SP MP2/aug-cc-pVDZ
 -------------------

 -------------------------------
 Single Point calculation at MP2
 -------------------------------
 Symbolic Z-matrix:
 Charge =  0 Multiplicity = 1

                         Standard orientation:
 ---------------------------------------------------------------------
 Center     Atomic      Atomic             Coordinates (Angstroms)
 Number     Number       Type             X           Y           Z
 ---------------------------------------------------------------------
      1          1           0       -3.256702   -1.353500   -1.300694
      2          6           0       -3.265502   -0.642100   -0.467494
      3          1           0       -3.850002   -1.090100    0.339906
      4          1           0       -3.755901    0.278200   -0.799594
      5          6           0       -1.836302   -0.445201    0.019906
      6          8           0       -1.265902   -1.346502    0.636306
      7          7           0       -1.299301    0.777698   -0.250494
      8          1           0       -1.897900    1.385599   -0.792094
      9          6           0        0.098000    1.272497   -0.180194
     10          1           0        0.191500    1.975297   -1.010094
     11          6           0        0.328300    2.022797    1.145106
     12          1           0        0.221400    1.342397    1.994906
     13          1           0        1.336000    2.450596    1.166006
     14          1           0       -0.397599    2.835798    1.257406
     15          6           0        1.280199    0.294897   -0.426694
     16          8           0        2.127299    0.623696   -1.254594
     17          7           0        1.409398   -0.775304    0.392906
     18          1           0        0.544798   -1.127503    0.805306
     19          6           0        2.521897   -1.693704    0.207806
     20          1           0        3.455998   -1.130005    0.154606
     21          1           0        2.558497   -2.377204    1.059806
     22          1           0        2.428497   -2.279004   -0.716694
 ---------------------------------------------------------------------

 SCF Done:  E(RHF) =  -492.915462245     A.U. after   14 cycles
 E2 =    -0.1604084947D+01 EUMP2 =    -0.49451954719228D+03

 The electronic state is 1-A.
 Alpha  occ. eigenvalues --  -20.54753 -20.52423 -15.61697 -15.57104 -11.38380
 Alpha  occ. eigenvalues --  -11.35210 -11.30225 -11.25989 -11.25398 -11.23929
 Alpha  occ. eigenvalues --   -1.40113  -1.37516  -1.25356  -1.21604  -1.06255
 Alpha  occ. eigenvalues --   -1.00223  -0.94366  -0.88550  -0.81721  -0.76289
 Alpha  occ. eigenvalues --   -0.71846  -0.70795  -0.64463  -0.63847  -0.62652
 Alpha  occ. eigenvalues --   -0.61547  -0.60565  -0.58258  -0.57776  -0.56964
 Alpha  occ. eigenvalues --   -0.54427  -0.53665  -0.52398  -0.51779  -0.50398
 Alpha  occ. eigenvalues --   -0.44380  -0.43290  -0.39924  -0.37657
 Alpha virt. eigenvalues --    0.02452   0.03971   0.04289   0.04556   0.05622
 Alpha virt. eigenvalues --    0.06238   0.06390   0.06654   0.07439   0.08071
 Alpha virt. eigenvalues --    0.08706   0.10096   0.10973   0.11875   0.12227

 Mulliken atomic charges:
              1
     1  H    0.055415
     2  C    0.461147
     3  H    0.021550
     4  H   -0.139526
     5  C    0.619465
     6  O   -0.911428
     7  N   -0.300919
     8  H   -0.094961
     9  C   -0.017010
    10  H   -0.184703
    11  C    0.689083
    12  H   -0.055443
    13  H   -0.048495
    14  H   -0.095442
    15  C    0.847974
    16  O   -0.873454
    17  N   -0.429874
    18  H    0.017005
    19  C    0.803178
    20  H   -0.114024
    21  H   -0.193405
    22  H   -0.056133
 Sum of Mulliken atomic charges =   0.00000

 Dipole moment (field-independent basis, Debye):
    X=             -4.2523    Y=              1.3565    Z=              0.4191  Tot=              4.4831
 Quadrupole moment (field-independent basis, Debye-Ang):
   XX=            -58.5279   YY=            -59.4305   ZZ=            -64.8441
   XY=             -7.3600   XZ=             10.0602   YZ=              2.2193

 Normal termination of Gaussian 09 at Mon Feb 13 15:31:05 2017.
