 Gaussian 09, Revision A.02,
 Gaussian 09:  EM64L-G09RevA.02 11-Jun-2009

 -------------------
 #SP MP2/aug-cc-pVDZ
 -------------------

 -------------------------------
 Single Point calculation at MP2
 -------------------------------
 Symbolic Z-matrix:
 Charge =  0 Multiplicity = 1

                         Standard orientation:
 ---------------------------------------------------------------------
 Center     Atomic      Atomic             Coordinates (Angstroms)
 Number     Number       Type             X           Y           Z
 ---------------------------------------------------------------------
      1          1           0        3.482098   -1.527009   -0.746604
      2          6           0        3.087197   -0.984209    0.114896
      3          1           0        3.782096   -0.184008    0.389696
      4          1           0        3.020698   -1.688309    0.952696
      5          6           0        1.690197   -0.483711   -0.220404
      6          8           0        0.915298   -1.135512   -0.911504
      7          7           0        1.374095    0.749589    0.287096
      8          1           0        2.035295    1.144090    0.942196
      9          6           0        0.003295    1.282587    0.384596
     10          1           0       -0.039606    1.829787    1.330296
     11          6           0       -0.282307    2.253287   -0.770804
     12          1           0       -0.156306    1.762487   -1.741804
     13          1           0       -1.300507    2.650486   -0.708204
     14          1           0        0.421492    3.091688   -0.737104
     15          6           0       -1.051004    0.158286    0.577496
     16          8           0       -1.212703   -0.321214    1.692696
     17          7           0       -1.822704   -0.170115   -0.499604
     18          1           0       -1.378104   -0.035915   -1.398004
     19          6           0       -2.704402   -1.325916   -0.405104
     20          1           0       -3.263502   -1.266417    0.529796
     21          1           0       -3.401602   -1.313717   -1.247204
     22          1           0       -2.140401   -2.267615   -0.411804
 ---------------------------------------------------------------------

 SCF Done:  E(RHF) =  -492.917744796     A.U. after   14 cycles
 E2 =    -0.1602845707D+01 EUMP2 =    -0.49452059050323D+03

 The electronic state is 1-A.
 Alpha  occ. eigenvalues --  -20.53785 -20.52737 -15.60530 -15.57894 -11.37082
 Alpha  occ. eigenvalues --  -11.35384 -11.29876 -11.25349 -11.25180 -11.24043
 Alpha  occ. eigenvalues --   -1.39392  -1.37728  -1.24366  -1.22000  -1.05754
 Alpha  occ. eigenvalues --   -0.99631  -0.94118  -0.88545  -0.80796  -0.76336
 Alpha  occ. eigenvalues --   -0.71363  -0.69725  -0.64655  -0.64204  -0.62388
 Alpha  occ. eigenvalues --   -0.61171  -0.59808  -0.57759  -0.57076  -0.56333
 Alpha  occ. eigenvalues --   -0.54349  -0.53821  -0.52255  -0.51953  -0.50261
 Alpha  occ. eigenvalues --   -0.43316  -0.42853  -0.40074  -0.38155
 Alpha virt. eigenvalues --    0.02762   0.03935   0.04162   0.04749   0.05674
 Alpha virt. eigenvalues --    0.06256   0.06399   0.06620   0.07414   0.08128
 Alpha virt. eigenvalues --    0.08645   0.09947   0.10726   0.12083   0.13005

 Mulliken atomic charges:
              1
     1  H   -0.002413
     2  C    0.405686
     3  H   -0.095034
     4  H    0.072106
     5  C    0.591267
     6  O   -0.851087
     7  N   -0.393750
     8  H   -0.094669
     9  C   -0.126895
    10  H   -0.146664
    11  C    0.827054
    12  H   -0.050633
    13  H   -0.006709
    14  H   -0.117346
    15  C    1.121538
    16  O   -0.949261
    17  N   -0.582338
    18  H   -0.008959
    19  C    0.752814
    20  H   -0.117321
    21  H   -0.194366
    22  H   -0.033021
 Sum of Mulliken atomic charges =   0.00000

 Dipole moment (field-independent basis, Debye):
    X=              2.5823    Y=              2.7330    Z=             -1.1732  Tot=              3.9388
 Quadrupole moment (field-independent basis, Debye-Ang):
   XX=            -51.6899   YY=            -59.5040   ZZ=            -66.6252
   XY=              1.6286   XZ=              8.4769   YZ=              1.2718

 Normal termination of Gaussian 09 at Mon Feb 13 16:02:27 2017.
