 Gaussian 09, Revision A.02,
 Gaussian 09:  EM64L-G09RevA.02 11-Jun-2009

 -------------------
 #SP MP2/aug-cc-pVDZ
 -------------------

 -------------------------------
 Single Point calculation at MP2
 -------------------------------
 Symbolic Z-matrix:
 Charge =  0 Multiplicity = 1

                         Standard orientation:
 ---------------------------------------------------------------------
 Center     Atomic      Atomic             Coordinates (Angstroms)
 Number     Number       Type             X           Y           Z
 ---------------------------------------------------------------------
      1          1           0       -3.910818   -0.884582    0.431773
      2          6           0       -3.320016   -0.556885   -0.427827
      3          1           0       -3.751411    0.365417   -0.828727
      4          1           0       -3.391621   -1.339285   -1.190527
      5          6           0       -1.864615   -0.433894    0.004773
      6          8           0       -1.326821   -1.367597    0.603973
      7          7           0       -1.276308    0.755703   -0.295827
      8          1           0       -1.872004    1.395206   -0.803027
      9          6           0        0.122095    1.247994   -0.212227
     10          1           0        0.232799    1.922293   -1.063727
     11          6           0        0.317399    2.054093    1.087773
     12          1           0        0.202296    1.403794    1.960573
     13          1           0        1.319502    2.493087    1.104773
     14          1           0       -0.420096    2.861497    1.157073
     15          6           0        1.335789    0.293987   -0.374827
     16          8           0        2.305792    0.738381   -0.988027
     17          7           0        1.337982   -0.892513    0.264373
     18          1           0        0.444680   -1.250608    0.606873
     19          6           0        2.492877   -1.769220    0.167873
     20          1           0        3.399180   -1.233925    0.465073
     21          1           0        2.340471   -2.621219    0.834573
     22          1           0        2.642374   -2.136721   -0.855327
 ---------------------------------------------------------------------

 SCF Done:  E(RHF) =  -492.915570000     A.U. after   14 cycles
 E2 =    -0.1604377211D+01 EUMP2 =    -0.49451994721046D+03

 The electronic state is 1-A.
 Alpha  occ. eigenvalues --  -20.54798 -20.51979 -15.61856 -15.57154 -11.38526
 Alpha  occ. eigenvalues --  -11.35148 -11.30316 -11.26059 -11.25495 -11.23927
 Alpha  occ. eigenvalues --   -1.40173  -1.37285  -1.25492  -1.21615  -1.06317
 Alpha  occ. eigenvalues --   -1.00249  -0.94569  -0.88545  -0.81882  -0.76660
 Alpha  occ. eigenvalues --   -0.71918  -0.70884  -0.64415  -0.63916  -0.62271
 Alpha  occ. eigenvalues --   -0.61632  -0.60568  -0.58364  -0.58190  -0.56934
 Alpha  occ. eigenvalues --   -0.54453  -0.53878  -0.52432  -0.51974  -0.49922
 Alpha  occ. eigenvalues --   -0.44297  -0.43042  -0.39880  -0.37582
 Alpha virt. eigenvalues --    0.02385   0.03993   0.04300   0.04490   0.05671
 Alpha virt. eigenvalues --    0.06298   0.06428   0.06711   0.07222   0.08006
 Alpha virt. eigenvalues --    0.08826   0.09988   0.10959   0.11898   0.12466

 Mulliken atomic charges:
              1
     1  H    0.030947
     2  C    0.484746
     3  H   -0.151764
     4  H    0.051599
     5  C    0.592385
     6  O   -0.939831
     7  N   -0.308900
     8  H   -0.090952
     9  C    0.025428
    10  H   -0.149626
    11  C    0.630036
    12  H   -0.034522
    13  H   -0.042609
    14  H   -0.089982
    15  C    0.834939
    16  O   -0.891485
    17  N   -0.368924
    18  H   -0.007157
    19  C    0.777598
    20  H   -0.092814
    21  H   -0.208194
    22  H   -0.050920
 Sum of Mulliken atomic charges =   0.00000

 Dipole moment (field-independent basis, Debye):
    X=             -4.5600    Y=              1.2049    Z=              0.0407  Tot=              4.7167
 Quadrupole moment (field-independent basis, Debye-Ang):
   XX=            -60.3661   YY=            -59.6858   ZZ=            -63.3459
   XY=             -8.8335   XZ=              9.2400   YZ=              2.1582

 Normal termination of Gaussian 09 at Mon Feb 13 15:28:24 2017.
