 Gaussian 09, Revision A.02,
 Gaussian 09:  EM64L-G09RevA.02 11-Jun-2009

 -------------------
 #SP MP2/aug-cc-pVDZ
 -------------------

 -------------------------------
 Single Point calculation at MP2
 -------------------------------
 Symbolic Z-matrix:
 Charge =  0 Multiplicity = 1

                         Standard orientation:
 ---------------------------------------------------------------------
 Center     Atomic      Atomic             Coordinates (Angstroms)
 Number     Number       Type             X           Y           Z
 ---------------------------------------------------------------------
      1          1           0       -3.889082   -0.606682    0.692392
      2          6           0       -3.341484   -0.554971   -0.253508
      3          1           0       -3.738200    0.273121   -0.848708
      4          1           0       -3.522664   -1.493974   -0.785308
      5          6           0       -1.853286   -0.454340    0.056992
      6          8           0       -1.309068   -1.333929    0.728192
      7          7           0       -1.237708    0.647972   -0.447608
      8          1           0       -1.847121    1.259960   -0.972808
      9          6           0        0.139181    1.192500   -0.361308
     10          1           0        0.311871    1.661904   -1.336308
     11          6           0        0.181958    2.293201    0.716092
     12          1           0       -0.016833    1.864397    1.704192
     13          1           0        1.170049    2.757221    0.722492
     14          1           0       -0.574757    3.060386    0.516492
     15          6           0        1.393699    0.291726   -0.197308
     16          8           0        2.475687    0.875748   -0.229708
     17          7           0        1.270027   -1.049477   -0.126008
     18          1           0        0.366734   -1.417595    0.178592
     19          6           0        2.459643   -1.871952    0.032092
     20          1           0        3.214237   -1.568637   -0.697208
     21          1           0        2.900341   -1.774243    1.032892
     22          1           0        2.187965   -2.916858   -0.137608
 ---------------------------------------------------------------------

 SCF Done:  E(RHF) =  -492.914497102     A.U. after   14 cycles
 E2 =    -0.1604384284D+01 EUMP2 =    -0.49451888138614D+03

 The electronic state is 1-A.
 Alpha  occ. eigenvalues --  -20.54696 -20.51970 -15.61895 -15.57304 -11.38537
 Alpha  occ. eigenvalues --  -11.35449 -11.30527 -11.26090 -11.25449 -11.23469
 Alpha  occ. eigenvalues --   -1.40174  -1.37475  -1.25579  -1.21682  -1.06219
 Alpha  occ. eigenvalues --   -1.00114  -0.94777  -0.88212  -0.81981  -0.76714
 Alpha  occ. eigenvalues --   -0.71742  -0.70884  -0.64894  -0.64027  -0.62376
 Alpha  occ. eigenvalues --   -0.61035  -0.60455  -0.59185  -0.58295  -0.56306
 Alpha  occ. eigenvalues --   -0.54153  -0.54071  -0.52309  -0.51832  -0.49748
 Alpha  occ. eigenvalues --   -0.44063  -0.42318  -0.40563  -0.37896
 Alpha virt. eigenvalues --    0.02311   0.03975   0.04293   0.04538   0.05738
 Alpha virt. eigenvalues --    0.06171   0.06459   0.06605   0.07598   0.07992
 Alpha virt. eigenvalues --    0.09021   0.09658   0.11151   0.11898   0.12622

 Mulliken atomic charges:
              1
     1  H    0.045847
     2  C    0.441843
     3  H   -0.159996
     4  H    0.043948
     5  C    0.596321
     6  O   -0.920763
     7  N   -0.340787
     8  H   -0.072214
     9  C   -0.173114
    10  H   -0.023281
    11  C    0.692656
    12  H   -0.054854
    13  H   -0.009662
    14  H   -0.075537
    15  C    0.870570
    16  O   -0.873826
    17  N   -0.356810
    18  H   -0.008097
    19  C    0.737143
    20  H   -0.114985
    21  H   -0.050789
    22  H   -0.193613
 Sum of Mulliken atomic charges =   0.00000

 Dipole moment (field-independent basis, Debye):
    X=             -4.7925    Y=              0.8817    Z=             -1.5690  Tot=              5.1193
 Quadrupole moment (field-independent basis, Debye-Ang):
   XX=            -61.7260   YY=            -60.1563   ZZ=            -61.5151
   XY=             -9.5526   XZ=              4.9096   YZ=              0.7608

 Normal termination of Gaussian 09 at Mon Feb 13 14:55:32 2017.
