 Gaussian 09, Revision A.02,
 Gaussian 09:  EM64L-G09RevA.02 11-Jun-2009

 -------------------
 #SP MP2/aug-cc-pVDZ
 -------------------

 -------------------------------
 Single Point calculation at MP2
 -------------------------------
 Symbolic Z-matrix:
 Charge =  0 Multiplicity = 1

                         Standard orientation:
 ---------------------------------------------------------------------
 Center     Atomic      Atomic             Coordinates (Angstroms)
 Number     Number       Type             X           Y           Z
 ---------------------------------------------------------------------
      1          1           0       -3.623586   -1.464218    0.376205
      2          6           0       -3.002988   -1.020315   -0.403695
      3          1           0       -3.630491   -0.423018   -1.075495
      4          1           0       -2.541684   -1.825213   -0.988295
      5          6           0       -1.902793   -0.198710    0.245205
      6          8           0       -1.589592   -0.313908    1.415805
      7          7           0       -1.335198    0.783093   -0.580495
      8          1           0       -1.663097    0.685892   -1.535995
      9          6           0        0.110001    1.048901   -0.557695
     10          1           0        0.393200    1.328102   -1.578995
     11          6           0        0.396495    2.237302    0.383205
     12          1           0        0.143397    1.958901    1.409905
     13          1           0        1.441294    2.569107    0.350805
     14          1           0       -0.228709    3.086999    0.094305
     15          6           0        0.953007   -0.207895   -0.198895
     16          8           0        0.480713   -1.334598   -0.160995
     17          7           0        2.304806    0.012612   -0.170595
     18          1           0        2.636502    0.959313   -0.057795
     19          6           0        3.236512   -1.062984    0.134405
     20          1           0        3.382412   -1.195083    1.214505
     21          1           0        2.830716   -1.990086   -0.272395
     22          1           0        4.202411   -0.850379   -0.332795
 ---------------------------------------------------------------------

 SCF Done:  E(RHF) =  -492.907232598     A.U. after   15 cycles
 E2 =    -0.1604305632D+01 EUMP2 =    -0.49451153823033D+03

 The electronic state is 1-A.
 Alpha  occ. eigenvalues --  -20.53227 -20.52273 -15.59584 -15.58673 -11.36149
 Alpha  occ. eigenvalues --  -11.35329 -11.30128 -11.26809 -11.23899 -11.23666
 Alpha  occ. eigenvalues --   -1.39180  -1.37165  -1.23382  -1.22679  -1.05082
 Alpha  occ. eigenvalues --   -0.98558  -0.95244  -0.87953  -0.79780  -0.77006
 Alpha  occ. eigenvalues --   -0.70322  -0.69347  -0.64923  -0.63487  -0.61678
 Alpha  occ. eigenvalues --   -0.61375  -0.59763  -0.58058  -0.56219  -0.56060
 Alpha  occ. eigenvalues --   -0.54912  -0.53737  -0.53259  -0.51289  -0.48469
 Alpha  occ. eigenvalues --   -0.43614  -0.41516  -0.39735  -0.38662
 Alpha virt. eigenvalues --    0.02567   0.03628   0.04363   0.04718   0.05752
 Alpha virt. eigenvalues --    0.05996   0.06202   0.06873   0.07658   0.08186
 Alpha virt. eigenvalues --    0.08938   0.09014   0.11481   0.11764   0.12787

 Mulliken atomic charges:
              1
     1  H   -0.042218
     2  C    0.305612
     3  H   -0.012278
     4  H    0.076052
     5  C    0.824124
     6  O   -0.862819
     7  N   -0.543207
     8  H   -0.016447
     9  C    0.109187
    10  H   -0.124656
    11  C    0.693531
    12  H   -0.020997
    13  H   -0.132483
    14  H   -0.062518
    15  C    0.859184
    16  O   -0.789680
    17  N   -0.527494
    18  H   -0.093812
    19  C    0.723686
    20  H   -0.064203
    21  H   -0.115770
    22  H   -0.182796
 Sum of Mulliken atomic charges =   0.00000

 Dipole moment (field-independent basis, Debye):
    X=              2.0956    Y=              2.8297    Z=             -3.5931  Tot=              5.0308
 Quadrupole moment (field-independent basis, Debye-Ang):
   XX=            -49.1045   YY=            -62.1197   ZZ=            -63.5831
   XY=              3.0937   XZ=              7.2944   YZ=             -0.0480

 Normal termination of Gaussian 09 at Mon Feb 13 15:46:30 2017.
