 Gaussian 09, Revision A.02,
 Gaussian 09:  EM64L-G09RevA.02 11-Jun-2009

 -------------------
 #SP MP2/aug-cc-pVDZ
 -------------------

 -------------------------------
 Single Point calculation at MP2
 -------------------------------
 Symbolic Z-matrix:
 Charge =  0 Multiplicity = 1

                         Standard orientation:
 ---------------------------------------------------------------------
 Center     Atomic      Atomic             Coordinates (Angstroms)
 Number     Number       Type             X           Y           Z
 ---------------------------------------------------------------------
      1          1           0       -3.593297   -1.421408    0.603197
      2          6           0       -3.055198   -0.968107   -0.230803
      3          1           0       -3.732199   -0.314909   -0.793003
      4          1           0       -2.709996   -1.765406   -0.900003
      5          6           0       -1.842099   -0.228604    0.303097
      6          8           0       -1.350799   -0.455903    1.395797
      7          7           0       -1.363402    0.792097   -0.517403
      8          1           0       -1.778102    0.765596   -1.442203
      9          6           0        0.076298    1.080800   -0.571103
     10          1           0        0.297397    1.370401   -1.605403
     11          6           0        0.408595    2.265201    0.354397
     12          1           0        0.265295    1.976201    1.399697
     13          1           0        1.432094    2.633803    0.213697
     14          1           0       -0.267707    3.096499    0.136197
     15          6           0        0.928900   -0.193298   -0.310203
     16          8           0        0.503103   -1.309999   -0.571403
     17          7           0        2.247500    0.031905   -0.025203
     18          1           0        2.505598    0.921906    0.374197
     19          6           0        3.153202   -1.085693    0.200397
     20          1           0        2.928304   -1.865993   -0.528103
     21          1           0        4.183502   -0.745290    0.064997
     22          1           0        3.043803   -1.513993    1.205097
 ---------------------------------------------------------------------

 SCF Done:  E(RHF) =  -492.911927463     A.U. after   15 cycles
 E2 =    -0.1604282804D+01 EUMP2 =    -0.49451621026664D+03

 The electronic state is 1-A.
 Alpha  occ. eigenvalues --  -20.52828 -20.52542 -15.59412 -15.58852 -11.35930
 Alpha  occ. eigenvalues --  -11.35513 -11.30002 -11.26565 -11.23975 -11.23821
 Alpha  occ. eigenvalues --   -1.39044  -1.37264  -1.23247  -1.22797  -1.05166
 Alpha  occ. eigenvalues --   -0.98710  -0.95011  -0.88161  -0.79739  -0.77051
 Alpha  occ. eigenvalues --   -0.70492  -0.69473  -0.64740  -0.63775  -0.61411
 Alpha  occ. eigenvalues --   -0.61236  -0.59889  -0.57923  -0.56316  -0.55988
 Alpha  occ. eigenvalues --   -0.54851  -0.53912  -0.53114  -0.51407  -0.48513
 Alpha  occ. eigenvalues --   -0.43017  -0.41774  -0.39823  -0.38955
 Alpha virt. eigenvalues --    0.02772   0.03641   0.04455   0.04662   0.05813
 Alpha virt. eigenvalues --    0.06084   0.06218   0.06892   0.07635   0.07882
 Alpha virt. eigenvalues --    0.09061   0.09333   0.10925   0.11941   0.12745

 Mulliken atomic charges:
              1
     1  H   -0.031316
     2  C    0.304808
     3  H   -0.021138
     4  H    0.083676
     5  C    0.797993
     6  O   -0.874481
     7  N   -0.503413
     8  H   -0.017648
     9  C    0.081395
    10  H   -0.103079
    11  C    0.667044
    12  H   -0.046338
    13  H   -0.030111
    14  H   -0.109243
    15  C    0.866204
    16  O   -0.840701
    17  N   -0.487670
    18  H   -0.109349
    19  C    0.737743
    20  H   -0.112093
    21  H   -0.195840
    22  H   -0.056444
 Sum of Mulliken atomic charges =   0.00000

 Dipole moment (field-independent basis, Debye):
    X=              1.2444    Y=              3.1986    Z=             -2.5146  Tot=              4.2547
 Quadrupole moment (field-independent basis, Debye-Ang):
   XX=            -48.0762   YY=            -62.2392   ZZ=            -63.8140
   XY=              2.3037   XZ=              7.5503   YZ=             -0.8703

 Normal termination of Gaussian 09 at Mon Feb 13 15:52:03 2017.
