 Gaussian 09, Revision A.02,
 Gaussian 09:  EM64L-G09RevA.02 11-Jun-2009

 -------------------
 #SP MP2/aug-cc-pVDZ
 -------------------

 -------------------------------
 Single Point calculation at MP2
 -------------------------------
 Symbolic Z-matrix:
 Charge =  0 Multiplicity = 1

                         Standard orientation:
 ---------------------------------------------------------------------
 Center     Atomic      Atomic             Coordinates (Angstroms)
 Number     Number       Type             X           Y           Z
 ---------------------------------------------------------------------
      1          1           0       -3.367725   -2.014088    0.126295
      2          6           0       -3.194220   -0.956789   -0.082105
      3          1           0       -3.750717   -0.369587    0.658295
      4          1           0       -3.584919   -0.712787   -1.076005
      5          6           0       -1.703518   -0.670296    0.062895
      6          8           0       -0.987021   -1.317199    0.809795
      7          7           0       -1.241014    0.349502   -0.739705
      8          1           0       -1.952411    0.862305   -1.246205
      9          6           0        0.005490    1.112196   -0.556405
     10          1           0        0.355091    1.373995   -1.563305
     11          6           0       -0.242804    2.396097    0.241595
     12          1           0       -0.504606    2.145998    1.272295
     13          1           0        0.659198    3.016193    0.263395
     14          1           0       -1.052202    2.980701   -0.211305
     15          6           0        1.133686    0.293091    0.127295
     16          8           0        1.400387    0.417190    1.310795
     17          7           0        1.938383   -0.385313   -0.752305
     18          1           0        1.533382   -0.613111   -1.651905
     19          6           0        2.964379   -1.289117   -0.250305
     20          1           0        3.458281   -0.807620    0.594695
     21          1           0        2.543674   -2.242415    0.095295
     22          1           0        3.696378   -1.479921   -1.040005
 ---------------------------------------------------------------------

 SCF Done:  E(RHF) =  -492.910994517     A.U. after   14 cycles
 E2 =    -0.1603417847D+01 EUMP2 =    -0.49451441236360D+03

 The electronic state is 1-A.
 Alpha  occ. eigenvalues --  -20.53267 -20.52215 -15.60322 -15.58737 -11.36631
 Alpha  occ. eigenvalues --  -11.35459 -11.29839 -11.25811 -11.25060 -11.23135
 Alpha  occ. eigenvalues --   -1.38966  -1.37518  -1.24322  -1.22142  -1.05411
 Alpha  occ. eigenvalues --   -0.99252  -0.95178  -0.87182  -0.80901  -0.76758
 Alpha  occ. eigenvalues --   -0.70250  -0.69108  -0.65620  -0.63672  -0.62103
 Alpha  occ. eigenvalues --   -0.60955  -0.59959  -0.58278  -0.57657  -0.55730
 Alpha  occ. eigenvalues --   -0.53878  -0.53210  -0.52387  -0.51097  -0.50657
 Alpha  occ. eigenvalues --   -0.42609  -0.41427  -0.39895  -0.38619
 Alpha virt. eigenvalues --    0.02331   0.03589   0.04040   0.04634   0.05710
 Alpha virt. eigenvalues --    0.05965   0.06448   0.06864   0.07108   0.08380
 Alpha virt. eigenvalues --    0.08837   0.09057   0.11001   0.11576   0.12899

 Mulliken atomic charges:
              1
     1  H   -0.017282
     2  C    0.392667
     3  H    0.053895
     4  H   -0.066307
     5  C    0.692854
     6  O   -0.795348
     7  N   -0.407418
     8  H   -0.114929
     9  C   -0.225131
    10  H   -0.254830
    11  C    0.703375
    12  H   -0.002387
    13  H   -0.027963
    14  H   -0.045332
    15  C    1.130842
    16  O   -0.827613
    17  N   -0.507747
    18  H   -0.084118
    19  C    0.742751
    20  H   -0.106320
    21  H   -0.054601
    22  H   -0.179059
 Sum of Mulliken atomic charges =   0.00000

 Dipole moment (field-independent basis, Debye):
    X=             -2.4756    Y=              1.4010    Z=             -5.3459  Tot=              6.0556
 Quadrupole moment (field-independent basis, Debye-Ang):
   XX=            -50.9870   YY=            -60.6115   ZZ=            -64.0799
   XY=             -4.7405   XZ=             -2.0735   YZ=              1.1967

 Normal termination of Gaussian 09 at Mon Feb 13 15:41:16 2017.
