 Gaussian 09, Revision A.02,
 Gaussian 09:  EM64L-G09RevA.02 11-Jun-2009

 -------------------
 #SP MP2/aug-cc-pVDZ
 -------------------

 -------------------------------
 Single Point calculation at MP2
 -------------------------------
 Symbolic Z-matrix:
 Charge =  0 Multiplicity = 1

                         Standard orientation:
 ---------------------------------------------------------------------
 Center     Atomic      Atomic             Coordinates (Angstroms)
 Number     Number       Type             X           Y           Z
 ---------------------------------------------------------------------
      1          1           0       -3.051987   -2.132926    0.067409
      2          6           0       -3.044894   -1.043426   -0.016591
      3          1           0       -3.678097   -0.647630    0.785209
      4          1           0       -3.478796   -0.752529   -0.978691
      5          6           0       -1.618598   -0.548817    0.191409
      6          8           0       -0.893895   -1.015212    1.060109
      7          7           0       -1.226404    0.454986   -0.657091
      8          1           0       -1.916807    0.817681   -1.300091
      9          6           0        0.043191    1.195194   -0.595891
     10          1           0        0.311889    1.420596   -1.636491
     11          6           0       -0.107818    2.503093    0.185309
     12          1           0       -0.340816    2.290891    1.231809
     13          1           0        0.823679    3.073999    0.157609
     14          1           0       -0.910422    3.112788   -0.245191
     15          6           0        1.210596    0.353602   -0.017891
     16          8           0        1.904694    0.768506    0.895909
     17          7           0        1.499204   -0.780697   -0.730491
     18          1           0        0.738706   -1.155102   -1.283091
     19          6           0        2.430510   -1.756390   -0.180791
     20          1           0        3.292707   -1.222685    0.221209
     21          1           0        1.975114   -2.341293    0.628809
     22          1           0        2.760915   -2.429688   -0.976891
 ---------------------------------------------------------------------

 SCF Done:  E(RHF) =  -492.917230565     A.U. after   14 cycles
 E2 =    -0.1603412684D+01 EUMP2 =    -0.49452064324911D+03

 The electronic state is 1-A.
 Alpha  occ. eigenvalues --  -20.53843 -20.52524 -15.61083 -15.58028 -11.37353
 Alpha  occ. eigenvalues --  -11.35429 -11.29877 -11.25654 -11.25404 -11.22736
 Alpha  occ. eigenvalues --   -1.39534  -1.37735  -1.24978  -1.21800  -1.05622
 Alpha  occ. eigenvalues --   -0.99628  -0.94879  -0.87237  -0.81366  -0.76605
 Alpha  occ. eigenvalues --   -0.71148  -0.69769  -0.65294  -0.64167  -0.62225
 Alpha  occ. eigenvalues --   -0.60921  -0.60087  -0.58625  -0.57806  -0.55883
 Alpha  occ. eigenvalues --   -0.53573  -0.52677  -0.52141  -0.51727  -0.50760
 Alpha  occ. eigenvalues --   -0.43153  -0.42107  -0.40295  -0.38376
 Alpha virt. eigenvalues --    0.02158   0.03758   0.03802   0.04672   0.05746
 Alpha virt. eigenvalues --    0.06164   0.06257   0.06726   0.07153   0.08532
 Alpha virt. eigenvalues --    0.08957   0.09043   0.11011   0.12186   0.12717

 Mulliken atomic charges:
              1
     1  H    0.019841
     2  C    0.445475
     3  H    0.059130
     4  H   -0.123006
     5  C    0.568697
     6  O   -0.830259
     7  N   -0.265056
     8  H   -0.158921
     9  C   -0.299123
    10  H   -0.142819
    11  C    0.772166
    12  H   -0.034534
    13  H   -0.038422
    14  H   -0.041816
    15  C    1.128564
    16  O   -0.857367
    17  N   -0.530750
    18  H   -0.056726
    19  C    0.737264
    20  H   -0.111909
    21  H   -0.055044
    22  H   -0.185384
 Sum of Mulliken atomic charges =   0.00000

 Dipole moment (field-independent basis, Debye):
    X=             -4.1449    Y=             -0.0883    Z=             -4.9121  Tot=              6.4279
 Quadrupole moment (field-independent basis, Debye-Ang):
   XX=            -56.7621   YY=            -58.3477   ZZ=            -63.9607
   XY=             -4.7284   XZ=             -0.3150   YZ=              0.2296

 Normal termination of Gaussian 09 at Mon Feb 13 17:15:29 2017.
