 Gaussian 09, Revision A.02,
 Gaussian 09:  EM64L-G09RevA.02 11-Jun-2009

 -------------------
 #SP MP2/aug-cc-pVDZ
 -------------------

 -------------------------------
 Single Point calculation at MP2
 -------------------------------
 Symbolic Z-matrix:
 Charge =  0 Multiplicity = 1

                         Standard orientation:
 ---------------------------------------------------------------------
 Center     Atomic      Atomic             Coordinates (Angstroms)
 Number     Number       Type             X           Y           Z
 ---------------------------------------------------------------------
      1          1           0       -3.838319   -1.529457   -0.142796
      2          6           0       -3.432708   -0.520361   -0.229796
      3          1           0       -3.851402    0.090143    0.579804
      4          1           0       -3.750003   -0.083058   -1.183396
      5          6           0       -1.912709   -0.595077   -0.085796
      6          8           0       -1.362019   -1.529683    0.464204
      7          7           0       -1.255698    0.468816   -0.682296
      8          1           0       -1.881390    1.179022   -1.043696
      9          6           0        0.073208    1.034602   -0.400796
     10          1           0        0.431713    1.441398   -1.355296
     11          6           0       -0.028880    2.184603    0.616104
     12          1           0       -0.326184    1.783806    1.588604
     13          1           0        0.937626    2.688193    0.729104
     14          1           0       -0.765372    2.927711    0.287704
     15          6           0        1.135498    0.043791    0.134204
     16          8           0        1.106093   -0.405609    1.266604
     17          7           0        2.242597   -0.058621   -0.672296
     18          1           0        2.135899    0.162680   -1.652896
     19          6           0        3.353588   -0.921133   -0.299496
     20          1           0        3.464888   -0.878134    0.784804
     21          1           0        3.183877   -1.967531   -0.585496
     22          1           0        4.269792   -0.562342   -0.777296
 ---------------------------------------------------------------------

 SCF Done:  E(RHF) =  -492.901203370     A.U. after   15 cycles
 E2 =    -0.1604160140D+01 EUMP2 =    -0.49450536351052D+03

 The electronic state is 1-A.
 Alpha  occ. eigenvalues --  -20.52456 -20.52326 -15.59669 -15.59372 -11.35889
 Alpha  occ. eigenvalues --  -11.35676 -11.30172 -11.26329 -11.24450 -11.23786
 Alpha  occ. eigenvalues --   -1.38460  -1.37415  -1.23818  -1.22545  -1.05497
 Alpha  occ. eigenvalues --   -0.98833  -0.95475  -0.87492  -0.80733  -0.77032
 Alpha  occ. eigenvalues --   -0.69572  -0.68700  -0.65693  -0.63580  -0.62070
 Alpha  occ. eigenvalues --   -0.61146  -0.59734  -0.57933  -0.57623  -0.55676
 Alpha  occ. eigenvalues --   -0.54373  -0.53895  -0.52684  -0.51253  -0.49907
 Alpha  occ. eigenvalues --   -0.42678  -0.40634  -0.39253  -0.38764
 Alpha virt. eigenvalues --    0.02336   0.03449   0.04321   0.04432   0.05775
 Alpha virt. eigenvalues --    0.05862   0.06300   0.06993   0.07163   0.08085
 Alpha virt. eigenvalues --    0.08888   0.09068   0.10916   0.11697   0.12800

 Mulliken atomic charges:
              1
     1  H   -0.047226
     2  C    0.353118
     3  H    0.044273
     4  H   -0.032738
     5  C    0.739270
     6  O   -0.774005
     7  N   -0.369143
     8  H   -0.090003
     9  C   -0.195079
    10  H   -0.324292
    11  C    0.716555
    12  H    0.010352
    13  H   -0.042960
    14  H   -0.067168
    15  C    1.007628
    16  O   -0.780798
    17  N   -0.454218
    18  H   -0.099383
    19  C    0.753704
    20  H   -0.114185
    21  H   -0.057004
    22  H   -0.176700
 Sum of Mulliken atomic charges =   0.00000

 Dipole moment (field-independent basis, Debye):
    X=             -0.4987    Y=              4.1642    Z=             -4.5925  Tot=              6.2193
 Quadrupole moment (field-independent basis, Debye-Ang):
   XX=            -47.6629   YY=            -63.4595   ZZ=            -62.5785
   XY=             -4.7094   XZ=             -2.6927   YZ=              2.1372

 Normal termination of Gaussian 09 at Mon Feb 13 14:57:02 2017.
