 Gaussian 09, Revision A.02,
 Gaussian 09:  EM64L-G09RevA.02 11-Jun-2009

 -------------------
 #SP MP2/aug-cc-pVDZ
 -------------------

 -------------------------------
 Single Point calculation at MP2
 -------------------------------
 Symbolic Z-matrix:
 Charge =  0 Multiplicity = 1

                         Standard orientation:
 ---------------------------------------------------------------------
 Center     Atomic      Atomic             Coordinates (Angstroms)
 Number     Number       Type             X           Y           Z
 ---------------------------------------------------------------------
      1          1           0       -3.747906   -1.482396   -0.030694
      2          6           0       -3.013905   -1.038497   -0.704594
      3          1           0       -3.530804   -0.426396   -1.453494
      4          1           0       -2.487006   -1.843697   -1.231594
      5          6           0       -2.020404   -0.225298    0.116506
      6          8           0       -1.944004   -0.313398    1.324806
      7          7           0       -1.290903    0.709901   -0.637394
      8          1           0       -1.511703    0.607802   -1.622494
      9          6           0        0.147897    0.996400   -0.487494
     10          1           0        0.492698    1.307899   -1.479394
     11          6           0        0.336499    2.168400    0.501806
     12          1           0       -0.047202    1.869800    1.481206
     13          1           0        1.391799    2.446598    0.605106
     14          1           0       -0.227800    3.040300    0.157906
     15          6           0        1.038396   -0.177001   -0.005794
     16          8           0        0.665295   -1.102501    0.693406
     17          7           0        2.320996   -0.089503   -0.494594
     18          1           0        2.590397    0.740797   -1.003494
     19          6           0        3.375895   -0.988504   -0.056894
     20          1           0        2.896594   -1.844203    0.420206
     21          1           0        3.964495   -1.333205   -0.913794
     22          1           0        4.049196   -0.511905    0.667506
 ---------------------------------------------------------------------

 SCF Done:  E(RHF) =  -492.899312344     A.U. after   14 cycles
 E2 =    -0.1603837012D+01 EUMP2 =    -0.49450314935542D+03

 The electronic state is 1-A.
 Alpha  occ. eigenvalues --  -20.53068 -20.52460 -15.59675 -15.58979 -11.36179
 Alpha  occ. eigenvalues --  -11.35421 -11.30291 -11.26876 -11.24088 -11.23468
 Alpha  occ. eigenvalues --   -1.38962  -1.37360  -1.23569  -1.22626  -1.05281
 Alpha  occ. eigenvalues --   -0.98711  -0.95479  -0.87435  -0.80174  -0.76829
 Alpha  occ. eigenvalues --   -0.70214  -0.69200  -0.65141  -0.62828  -0.62153
 Alpha  occ. eigenvalues --   -0.61574  -0.59879  -0.58472  -0.56561  -0.56072
 Alpha  occ. eigenvalues --   -0.54744  -0.53545  -0.52880  -0.51095  -0.48991
 Alpha  occ. eigenvalues --   -0.44209  -0.41541  -0.39336  -0.38010
 Alpha virt. eigenvalues --    0.02191   0.03593   0.04171   0.04542   0.05664
 Alpha virt. eigenvalues --    0.05869   0.06001   0.07063   0.07799   0.08094
 Alpha virt. eigenvalues --    0.08501   0.09359   0.11075   0.11924   0.12029

 Mulliken atomic charges:
              1
     1  H   -0.055948
     2  C    0.273269
     3  H   -0.002439
     4  H    0.054463
     5  C    0.798459
     6  O   -0.784219
     7  N   -0.492525
     8  H   -0.045798
     9  C   -0.251060
    10  H   -0.214098
    11  C    0.728428
    12  H   -0.025539
    13  H   -0.086132
    14  H   -0.061571
    15  C    1.252230
    16  O   -0.810380
    17  N   -0.506433
    18  H   -0.117788
    19  C    0.721363
    20  H   -0.136828
    21  H   -0.142255
    22  H   -0.095199
 Sum of Mulliken atomic charges =   0.00000

 Dipole moment (field-independent basis, Debye):
    X=              2.5022    Y=              2.3439    Z=             -5.5339  Tot=              6.5099
 Quadrupole moment (field-independent basis, Debye-Ang):
   XX=            -51.3489   YY=            -61.3581   ZZ=            -63.2372
   XY=              3.1183   XZ=              5.5211   YZ=              1.6569

 Normal termination of Gaussian 09 at Mon Feb 13 14:50:50 2017.
