 Gaussian 09, Revision A.02,
 Gaussian 09:  EM64L-G09RevA.02 11-Jun-2009

 -------------------
 #SP MP2/aug-cc-pVDZ
 -------------------

 -------------------------------
 Single Point calculation at MP2
 -------------------------------
 Symbolic Z-matrix:
 Charge =  0 Multiplicity = 1

                         Standard orientation:
 ---------------------------------------------------------------------
 Center     Atomic      Atomic             Coordinates (Angstroms)
 Number     Number       Type             X           Y           Z
 ---------------------------------------------------------------------
      1          1           0        3.464942   -1.464236   -0.898699
      2          6           0        3.080334   -0.958342   -0.011199
      3          1           0        3.807221   -0.213531    0.330201
      4          1           0        2.953446   -1.705544    0.781401
      5          6           0        1.725824   -0.352864   -0.335199
      6          8           0        0.985531   -0.807076   -1.196799
      7          7           0        1.394205    0.774130    0.387401
      8          1           0        1.978302    0.951740    1.194501
      9          6           0       -0.010701    1.177508    0.546101
     10          1           0       -0.107707    1.566806    1.565701
     11          6           0       -0.360919    2.295502   -0.446299
     12          1           0       -0.253114    1.941504   -1.477499
     13          1           0       -1.380825    2.664785   -0.291399
     14          1           0        0.325767    3.137213   -0.314199
     15          6           0       -0.937781   -0.068808    0.522301
     16          8           0       -0.715666   -1.000604    1.284301
     17          7           0       -2.068282    0.016474   -0.237099
     18          1           0       -2.051593    0.656174   -1.018199
     19          6           0       -2.942064   -1.142240   -0.357399
     20          1           0       -3.083856   -1.575442    0.633901
     21          1           0       -3.908269   -0.823556   -0.757699
     22          1           0       -2.512851   -1.913233   -1.009999
 ---------------------------------------------------------------------

 SCF Done:  E(RHF) =  -492.917959917     A.U. after   14 cycles
 E2 =    -0.1603776318D+01 EUMP2 =    -0.49452173623461D+03

 The electronic state is 1-A.
 Alpha  occ. eigenvalues --  -20.53266 -20.52185 -15.59592 -15.58718 -11.36217
 Alpha  occ. eigenvalues --  -11.35495 -11.29758 -11.25892 -11.24493 -11.24000
 Alpha  occ. eigenvalues --   -1.39093  -1.37319  -1.23633  -1.22461  -1.05422
 Alpha  occ. eigenvalues --   -0.99189  -0.94481  -0.88382  -0.80073  -0.76889
 Alpha  occ. eigenvalues --   -0.70940  -0.69660  -0.64469  -0.64094  -0.61720
 Alpha  occ. eigenvalues --   -0.60995  -0.59744  -0.57652  -0.56763  -0.55993
 Alpha  occ. eigenvalues --   -0.54517  -0.54135  -0.52808  -0.51777  -0.49086
 Alpha  occ. eigenvalues --   -0.42483  -0.42238  -0.39939  -0.38761
 Alpha virt. eigenvalues --    0.02938   0.03740   0.04342   0.04640   0.05780
 Alpha virt. eigenvalues --    0.06078   0.06412   0.06848   0.07543   0.07905
 Alpha virt. eigenvalues --    0.08897   0.09724   0.10496   0.11923   0.12694

 Mulliken atomic charges:
              1
     1  H   -0.014465
     2  C    0.324093
     3  H   -0.047363
     4  H    0.083548
     5  C    0.741614
     6  O   -0.860185
     7  N   -0.413733
     8  H   -0.058694
     9  C   -0.235042
    10  H   -0.104238
    11  C    0.795335
    12  H    0.002958
    13  H    0.031063
    14  H   -0.165369
    15  C    1.120704
    16  O   -0.934831
    17  N   -0.526045
    18  H   -0.120905
    19  C    0.720179
    20  H   -0.101468
    21  H   -0.196135
    22  H   -0.041023
 Sum of Mulliken atomic charges =   0.00000

 Dipole moment (field-independent basis, Debye):
    X=              0.7409    Y=              3.4968    Z=              0.2525  Tot=              3.5833
 Quadrupole moment (field-independent basis, Debye-Ang):
   XX=            -48.3560   YY=            -61.3042   ZZ=            -64.8772
   XY=             -0.7240   XZ=              7.6447   YZ=              2.1873

 Normal termination of Gaussian 09 at Mon Feb 13 15:48:47 2017.
