 Gaussian 09, Revision A.02,
 Gaussian 09:  EM64L-G09RevA.02 11-Jun-2009

 -------------------
 #SP MP2/aug-cc-pVDZ
 -------------------

 -------------------------------
 Single Point calculation at MP2
 -------------------------------
 Symbolic Z-matrix:
 Charge =  0 Multiplicity = 1

                         Standard orientation:
 ---------------------------------------------------------------------
 Center     Atomic      Atomic             Coordinates (Angstroms)
 Number     Number       Type             X           Y           Z
 ---------------------------------------------------------------------
      1          1           0        3.432808   -1.511983   -0.892197
      2          6           0        3.069905   -0.988585   -0.005397
      3          1           0        3.793100   -0.219780    0.286103
      4          1           0        2.992809   -1.717785    0.809903
      5          6           0        1.687601   -0.427893   -0.296397
      6          8           0        0.899405   -0.981298   -1.052997
      7          7           0        1.389194    0.757705    0.330603
      8          1           0        2.031892    1.050509    1.054403
      9          6           0        0.006791    1.237896    0.484103
     10          1           0       -0.048512    1.702296    1.473703
     11          6           0       -0.316315    2.293994   -0.582197
     12          1           0       -0.185013    1.883195   -1.589497
     13          1           0       -1.340918    2.665588   -0.475897
     14          1           0        0.369079    3.142298   -0.486597
     15          6           0       -0.981602    0.043790    0.580603
     16          8           0       -0.920997   -0.704010    1.547703
     17          7           0       -1.955701   -0.040916   -0.371097
     18          1           0       -1.746204    0.385185   -1.262997
     19          6           0       -2.810194   -1.219621   -0.407897
     20          1           0       -3.161092   -1.429523    0.603603
     21          1           0       -3.667595   -1.021327   -1.056697
     22          1           0       -2.269188   -2.101218   -0.774897
 ---------------------------------------------------------------------

 SCF Done:  E(RHF) =  -492.918633645     A.U. after   14 cycles
 E2 =    -0.1603399808D+01 EUMP2 =    -0.49452203345315D+03

 The electronic state is 1-A.
 Alpha  occ. eigenvalues --  -20.53521 -20.52337 -15.60050 -15.58268 -11.36627
 Alpha  occ. eigenvalues --  -11.35380 -11.29773 -11.25551 -11.24838 -11.24046
 Alpha  occ. eigenvalues --   -1.39232  -1.37453  -1.23982  -1.22190  -1.05579
 Alpha  occ. eigenvalues --   -0.99416  -0.94241  -0.88482  -0.80422  -0.76648
 Alpha  occ. eigenvalues --   -0.71172  -0.69641  -0.64539  -0.64168  -0.62034
 Alpha  occ. eigenvalues --   -0.61025  -0.59684  -0.57606  -0.56972  -0.56146
 Alpha  occ. eigenvalues --   -0.54340  -0.54092  -0.52573  -0.51895  -0.49622
 Alpha  occ. eigenvalues --   -0.42821  -0.42408  -0.40014  -0.38412
 Alpha virt. eigenvalues --    0.02867   0.03834   0.04230   0.04703   0.05721
 Alpha virt. eigenvalues --    0.06162   0.06421   0.06734   0.07433   0.08056
 Alpha virt. eigenvalues --    0.08735   0.09861   0.10569   0.11963   0.12855

 Mulliken atomic charges:
              1
     1  H   -0.010042
     2  C    0.366229
     3  H   -0.071058
     4  H    0.079671
     5  C    0.658876
     6  O   -0.851186
     7  N   -0.394757
     8  H   -0.084337
     9  C   -0.237829
    10  H   -0.118805
    11  C    0.829829
    12  H   -0.016415
    13  H    0.010937
    14  H   -0.151871
    15  C    1.181678
    16  O   -0.960990
    17  N   -0.554786
    18  H   -0.076922
    19  C    0.736093
    20  H   -0.107195
    21  H   -0.194217
    22  H   -0.032904
 Sum of Mulliken atomic charges =   0.00000

 Dipole moment (field-independent basis, Debye):
    X=              1.7193    Y=              3.2612    Z=             -0.6772  Tot=              3.7484
 Quadrupole moment (field-independent basis, Debye-Ang):
   XX=            -49.7651   YY=            -60.3223   ZZ=            -65.7752
   XY=              0.2790   XZ=              7.9162   YZ=              2.0909

 Normal termination of Gaussian 09 at Mon Feb 13 15:57:12 2017.
