 Gaussian 09, Revision A.02,
 Gaussian 09:  EM64L-G09RevA.02 11-Jun-2009

 -------------------
 #SP MP2/aug-cc-pVDZ
 -------------------

 -------------------------------
 Single Point calculation at MP2
 -------------------------------
 Symbolic Z-matrix:
 Charge =  0 Multiplicity = 1

                         Standard orientation:
 ---------------------------------------------------------------------
 Center     Atomic      Atomic             Coordinates (Angstroms)
 Number     Number       Type             X           Y           Z
 ---------------------------------------------------------------------
      1          1           0       -3.503395   -1.607194   -0.608387
      2          6           0       -3.318294   -0.617994   -0.179587
      3          1           0       -3.846694   -0.575194    0.777913
      4          1           0       -3.732693    0.143706   -0.846987
      5          6           0       -1.825094   -0.477396    0.088113
      6          8           0       -1.243195   -1.304096    0.792613
      7          7           0       -1.235993    0.598504   -0.500287
      8          1           0       -1.860992    1.176704   -1.045187
      9          6           0        0.123508    1.178002   -0.415087
     10          1           0        0.326208    1.562902   -1.422487
     11          6           0        0.107809    2.366202    0.562113
     12          1           0       -0.130092    2.020603    1.573813
     13          1           0        1.089609    2.842002    0.574913
     14          1           0       -0.647291    3.102003    0.263013
     15          6           0        1.373607    0.299101   -0.132887
     16          8           0        2.433507    0.895300    0.039813
     17          7           0        1.287705   -1.047499   -0.259587
     18          1           0        0.389805   -1.455998   -0.000387
     19          6           0        2.481505   -1.850800   -0.032487
     20          1           0        3.303505   -1.460100   -0.636087
     21          1           0        2.798705   -1.837700    1.018513
     22          1           0        2.270604   -2.881100   -0.329987
 ---------------------------------------------------------------------

 SCF Done:  E(RHF) =  -492.914009780     A.U. after   14 cycles
 E2 =    -0.1604086731D+01 EUMP2 =    -0.49451809651137D+03

 The electronic state is 1-A.
 Alpha  occ. eigenvalues --  -20.54565 -20.52387 -15.61801 -15.57293 -11.38409
 Alpha  occ. eigenvalues --  -11.35589 -11.30533 -11.26062 -11.25366 -11.23274
 Alpha  occ. eigenvalues --   -1.40094  -1.37773  -1.25536  -1.21640  -1.06152
 Alpha  occ. eigenvalues --   -1.00053  -0.94714  -0.88042  -0.81940  -0.76428
 Alpha  occ. eigenvalues --   -0.71586  -0.70809  -0.65155  -0.64074  -0.62539
 Alpha  occ. eigenvalues --   -0.60967  -0.60456  -0.59148  -0.58190  -0.56117
 Alpha  occ. eigenvalues --   -0.54127  -0.53726  -0.52317  -0.51632  -0.49970
 Alpha  occ. eigenvalues --   -0.44090  -0.42210  -0.40798  -0.38126
 Alpha virt. eigenvalues --    0.02295   0.03926   0.04252   0.04597   0.05732
 Alpha virt. eigenvalues --    0.06119   0.06513   0.06588   0.07517   0.08057
 Alpha virt. eigenvalues --    0.09003   0.09675   0.11356   0.11933   0.12653

 Mulliken atomic charges:
              1
     1  H    0.044105
     2  C    0.418983
     3  H    0.048865
     4  H   -0.152588
     5  C    0.592099
     6  O   -0.902253
     7  N   -0.301880
     8  H   -0.086331
     9  C   -0.163991
    10  H   -0.027223
    11  C    0.689150
    12  H   -0.057121
    13  H   -0.015602
    14  H   -0.065593
    15  C    0.847643
    16  O   -0.845653
    17  N   -0.400701
    18  H   -0.005053
    19  C    0.747832
    20  H   -0.117202
    21  H   -0.051964
    22  H   -0.195522
 Sum of Mulliken atomic charges =   0.00000

 Dipole moment (field-independent basis, Debye):
    X=             -4.7376    Y=              0.7717    Z=             -2.1911  Tot=              5.2765
 Quadrupole moment (field-independent basis, Debye-Ang):
   XX=            -60.7874   YY=            -60.1631   ZZ=            -61.8311
   XY=             -8.8440   XZ=              3.2297   YZ=              0.2266

 Normal termination of Gaussian 09 at Mon Feb 13 14:38:45 2017.
