 Gaussian 09, Revision A.02,
 Gaussian 09:  EM64L-G09RevA.02 11-Jun-2009

 ----------------------------------------------------------------------
 # b3lyp/6-31G* Opt=(ModRedundant, maxcycles=1000, calcfc) geom=nocrowd
 ----------------------------------------------------------------------

 ------------------
 Phi Psi fixed scan
 ------------------
 Symbolic Z-matrix:
 Charge =  0 Multiplicity = 1

 SCF Done:  E(RB3LYP) =  -495.829639768     A.U. after   15 cycles

  Exact polarizability:   0.000   0.000   0.000   0.000   0.000   0.000
 Approx polarizability: 120.563   8.778 103.008  16.178  10.841 114.931

 SCF Done:  E(RB3LYP) =  -495.834699667     A.U. after   12 cycles
 SCF Done:  E(RB3LYP) =  -495.840500650     A.U. after   13 cycles
 SCF Done:  E(RB3LYP) =  -495.841807322     A.U. after   14 cycles
 SCF Done:  E(RB3LYP) =  -495.841568776     A.U. after   15 cycles
 SCF Done:  E(RB3LYP) =  -495.842045110     A.U. after   12 cycles
 SCF Done:  E(RB3LYP) =  -495.842238120     A.U. after   12 cycles
 SCF Done:  E(RB3LYP) =  -495.783828029     A.U. after   14 cycles
 SCF Done:  E(RB3LYP) =  -495.842317511     A.U. after   14 cycles
 SCF Done:  E(RB3LYP) =  -495.842407367     A.U. after   12 cycles
 SCF Done:  E(RB3LYP) =  -495.842468210     A.U. after   10 cycles
 SCF Done:  E(RB3LYP) =  -495.842478003     A.U. after   11 cycles
 SCF Done:  E(RB3LYP) =  -495.842487116     A.U. after   10 cycles
 SCF Done:  E(RB3LYP) =  -495.842492454     A.U. after   10 cycles
 SCF Done:  E(RB3LYP) =  -495.842494626     A.U. after   10 cycles
 SCF Done:  E(RB3LYP) =  -495.842496285     A.U. after   10 cycles
 SCF Done:  E(RB3LYP) =  -495.842496607     A.U. after    9 cycles
 SCF Done:  E(RB3LYP) =  -495.842496740     A.U. after    9 cycles
 SCF Done:  E(RB3LYP) =  -495.842496811     A.U. after    7 cycles
 SCF Done:  E(RB3LYP) =  -495.842496872     A.U. after    9 cycles
 Optimization completed on the basis of negligible forces.
    -- Stationary point found.

                         Standard orientation:
 ---------------------------------------------------------------------
 Center     Atomic      Atomic             Coordinates (Angstroms)
 Number     Number       Type             X           Y           Z
 ---------------------------------------------------------------------
      1          1           0        4.146731   -0.609546   -0.893785
      2          6           0        3.141156   -1.037149   -0.880388
      3          1           0        3.211842   -2.035946   -0.435590
      4          1           0        2.777230   -1.137705   -1.908107
      5          6           0        2.251924   -0.171906   -0.000301
      6          8           0        2.627366    0.262681    1.079276
      7          7           0        1.002802    0.090742   -0.510519
      8          1           0        0.720176   -0.383738   -1.357108
      9          6           0       -0.035769    0.727690    0.295306
     10          1           0        0.377181    0.772934    1.306440
     11          6           0       -0.326099    2.154409   -0.189334
     12          1           0       -0.629414    2.180022   -1.244188
     13          1           0       -1.107584    2.630086    0.414965
     14          1           0        0.583282    2.755502   -0.100225
     15          6           0       -1.241673   -0.234790    0.382700
     16          8           0       -1.175458   -1.258187    1.050236
     17          7           0       -2.329431    0.087297   -0.382403
     18          1           0       -2.356277    0.989856   -0.832447
     19          6           0       -3.541925   -0.714119   -0.377982
     20          1           0       -3.305621   -1.660285    0.110253
     21          1           0       -4.351447   -0.222259    0.176078
     22          1           0       -3.880641   -0.905963   -1.401928
 ---------------------------------------------------------------------

 The electronic state is 1-A.
 Alpha  occ. eigenvalues --  -19.11083 -19.10557 -14.36853 -14.36064 -10.28706
 Alpha  occ. eigenvalues --  -10.28471 -10.23337 -10.22243 -10.19441 -10.19012
 Alpha  occ. eigenvalues --   -1.03394  -1.02454  -0.92564  -0.91897  -0.78172
 Alpha  occ. eigenvalues --   -0.72940  -0.70951  -0.65155  -0.58844  -0.58577
 Alpha  occ. eigenvalues --   -0.53701  -0.48308  -0.47346  -0.46176  -0.44947
 Alpha  occ. eigenvalues --   -0.44054  -0.42478  -0.41990  -0.40410  -0.39681
 Alpha  occ. eigenvalues --   -0.39153  -0.38621  -0.37444  -0.36198  -0.34632
 Alpha  occ. eigenvalues --   -0.26586  -0.25582  -0.24518  -0.24021
 Alpha virt. eigenvalues --    0.01401   0.04002   0.06657   0.08339   0.11343
 Alpha virt. eigenvalues --    0.12930   0.13930   0.14438   0.15474   0.16013
 Alpha virt. eigenvalues --    0.16363   0.16574   0.18032   0.18596   0.19374

 Mulliken atomic charges:
              1
     1  H    0.185952
     2  C   -0.538368
     3  H    0.190776
     4  H    0.142490
     5  C    0.602523
     6  O   -0.501586
     7  N   -0.589501
     8  H    0.322339
     9  C   -0.028383
    10  H    0.209440
    11  C   -0.473255
    12  H    0.135462
    13  H    0.154267
    14  H    0.180360
    15  C    0.563312
    16  O   -0.503833
    17  N   -0.592823
    18  H    0.330187
    19  C   -0.311615
    20  H    0.206550
    21  H    0.160596
    22  H    0.155109
 Sum of Mulliken atomic charges =   0.00000

 Dipole moment (field-independent basis, Debye):
    X=             -2.8467    Y=              1.4787    Z=             -4.6952  Tot=              5.6864
 Quadrupole moment (field-independent basis, Debye-Ang):
   XX=            -56.1229   YY=            -59.7097   ZZ=            -62.0653
   XY=             -6.1522   XZ=             -3.3986   YZ=              2.9050

 Normal termination of Gaussian 09 at Fri Feb 10 22:44:26 2017.
