 Gaussian 09, Revision A.02,
 Gaussian 09:  EM64L-G09RevA.02 11-Jun-2009

 ----------------------------------------------------------------------
 # b3lyp/6-31G* Opt=(ModRedundant, maxcycles=1000, calcfc) geom=nocrowd
 ----------------------------------------------------------------------

 ------------------
 Phi Psi fixed scan
 ------------------
 Symbolic Z-matrix:
 Charge =  0 Multiplicity = 1

 SCF Done:  E(RB3LYP) =  -495.842712924     A.U. after   14 cycles

  Exact polarizability:   0.000   0.000   0.000   0.000   0.000   0.000
 Approx polarizability: 114.103  -6.598  97.604  -2.990  14.971 122.154

 SCF Done:  E(RB3LYP) =  -495.845645855     A.U. after   12 cycles
 SCF Done:  E(RB3LYP) =  -495.849011464     A.U. after   13 cycles
 SCF Done:  E(RB3LYP) =  -495.850400812     A.U. after   15 cycles
 SCF Done:  E(RB3LYP) =  -495.843367176     A.U. after   14 cycles
 SCF Done:  E(RB3LYP) =  -495.850446434     A.U. after   14 cycles
 SCF Done:  E(RB3LYP) =  -495.850951085     A.U. after   13 cycles
 SCF Done:  E(RB3LYP) =  -495.850432423     A.U. after   13 cycles
 SCF Done:  E(RB3LYP) =  -495.851149878     A.U. after   12 cycles
 SCF Done:  E(RB3LYP) =  -495.851229535     A.U. after   11 cycles
 SCF Done:  E(RB3LYP) =  -495.851254418     A.U. after    7 cycles
 SCF Done:  E(RB3LYP) =  -495.851258168     A.U. after   10 cycles
 SCF Done:  E(RB3LYP) =  -495.851261345     A.U. after   10 cycles
 SCF Done:  E(RB3LYP) =  -495.851261907     A.U. after    9 cycles
 SCF Done:  E(RB3LYP) =  -495.851262155     A.U. after    9 cycles
 SCF Done:  E(RB3LYP) =  -495.851262460     A.U. after    9 cycles
 SCF Done:  E(RB3LYP) =  -495.851262902     A.U. after   10 cycles
 SCF Done:  E(RB3LYP) =  -495.851263194     A.U. after   10 cycles
 SCF Done:  E(RB3LYP) =  -495.851263430     A.U. after   10 cycles
 SCF Done:  E(RB3LYP) =  -495.851263445     A.U. after    7 cycles
 Optimization completed on the basis of negligible forces.
    -- Stationary point found.

                         Standard orientation:
 ---------------------------------------------------------------------
 Center     Atomic      Atomic             Coordinates (Angstroms)
 Number     Number       Type             X           Y           Z
 ---------------------------------------------------------------------
      1          1           0        4.259977   -0.604091   -0.199604
      2          6           0        3.280232   -1.087211   -0.251854
      3          1           0        3.318437   -1.974082    0.389795
      4          1           0        3.088707   -1.402307   -1.281926
      5          6           0        2.232084   -0.130210    0.294556
      6          8           0        2.368392    0.435183    1.373250
      7          7           0        1.145732    0.073848   -0.521770
      8          1           0        0.949657   -0.620929   -1.235377
      9          6           0       -0.047893    0.731034   -0.018687
     10          1           0        0.136942    0.948924    1.038976
     11          6           0       -0.328090    2.046583   -0.769193
     12          1           0       -0.490152    1.854694   -1.835438
     13          1           0       -1.215830    2.553270   -0.374522
     14          1           0        0.530300    2.716311   -0.664287
     15          6           0       -1.228542   -0.248614   -0.162894
     16          8           0       -1.166919   -1.217703   -0.915339
     17          7           0       -2.343130    0.082358    0.544584
     18          1           0       -2.283181    0.848850    1.200085
     19          6           0       -3.561082   -0.710558    0.515700
     20          1           0       -3.450056   -1.452117   -0.276117
     21          1           0       -3.725214   -1.229525    1.467898
     22          1           0       -4.429832   -0.078425    0.301764
 ---------------------------------------------------------------------

 The electronic state is 1-A.
 Alpha  occ. eigenvalues --  -19.12235 -19.10324 -14.37270 -14.34893 -10.29311
 Alpha  occ. eigenvalues --  -10.28100 -10.23329 -10.22551 -10.18879 -10.18548
 Alpha  occ. eigenvalues --   -1.04212  -1.02173  -0.93002  -0.91505  -0.77911
 Alpha  occ. eigenvalues --   -0.72711  -0.71206  -0.64335  -0.59496  -0.57370
 Alpha  occ. eigenvalues --   -0.53694  -0.47969  -0.46607  -0.46189  -0.45772
 Alpha  occ. eigenvalues --   -0.44185  -0.42788  -0.41860  -0.40546  -0.39912
 Alpha  occ. eigenvalues --   -0.39103  -0.37952  -0.37152  -0.36255  -0.34166
 Alpha  occ. eigenvalues --   -0.26473  -0.26334  -0.25036  -0.23979
 Alpha virt. eigenvalues --    0.02012   0.03304   0.06515   0.09751   0.11681
 Alpha virt. eigenvalues --    0.13142   0.13631   0.15400   0.15551   0.15812
 Alpha virt. eigenvalues --    0.16413   0.17297   0.17676   0.19053   0.19261

 Mulliken atomic charges:
              1
     1  H    0.183833
     2  C   -0.534166
     3  H    0.182921
     4  H    0.150741
     5  C    0.581219
     6  O   -0.509246
     7  N   -0.581362
     8  H    0.340261
     9  C   -0.070145
    10  H    0.181727
    11  C   -0.433305
    12  H    0.158435
    13  H    0.137817
    14  H    0.172489
    15  C    0.606611
    16  O   -0.528299
    17  N   -0.587130
    18  H    0.330620
    19  C   -0.311877
    20  H    0.205786
    21  H    0.163346
    22  H    0.159726
 Sum of Mulliken atomic charges =   0.00000

 Dipole moment (field-independent basis, Debye):
    X=             -2.7587    Y=              0.7113    Z=             -0.3302  Tot=              2.8680
 Quadrupole moment (field-independent basis, Debye-Ang):
   XX=            -53.4777   YY=            -60.0158   ZZ=            -62.9483
   XY=             -6.5772   XZ=            -10.7743   YZ=             -1.9200

 Normal termination of Gaussian 09 at Fri Feb 10 22:38:51 2017.
