 Gaussian 09, Revision A.02,
 Gaussian 09:  EM64L-G09RevA.02 11-Jun-2009

 ----------------------------------------------------------------------
 # b3lyp/6-31G* Opt=(ModRedundant, maxcycles=1000, calcfc) geom=nocrowd
 ----------------------------------------------------------------------

 ------------------
 Phi Psi fixed scan
 ------------------
 Symbolic Z-matrix:
 Charge =  0 Multiplicity = 1

 SCF Done:  E(RB3LYP) =  -495.833676293     A.U. after   16 cycles

  Exact polarizability:   0.000   0.000   0.000   0.000   0.000   0.000
 Approx polarizability: 111.696   3.445 106.483   5.392  23.807 118.229

 SCF Done:  E(RB3LYP) =  -495.837290114     A.U. after   16 cycles
 SCF Done:  E(RB3LYP) =  -495.841499445     A.U. after   13 cycles
 SCF Done:  E(RB3LYP) =  -495.841941293     A.U. after   15 cycles
 SCF Done:  E(RB3LYP) =  -495.842107642     A.U. after   13 cycles
 SCF Done:  E(RB3LYP) =  -495.742953925     A.U. after   17 cycles
 SCF Done:  E(RB3LYP) =  -495.842180487     A.U. after   16 cycles
 SCF Done:  E(RB3LYP) =  -495.842426568     A.U. after   12 cycles
 SCF Done:  E(RB3LYP) =  -495.841749577     A.U. after   13 cycles
 SCF Done:  E(RB3LYP) =  -495.842454683     A.U. after   13 cycles
 SCF Done:  E(RB3LYP) =  -495.842709452     A.U. after   10 cycles
 SCF Done:  E(RB3LYP) =  -495.842740701     A.U. after   11 cycles
 SCF Done:  E(RB3LYP) =  -495.842741154     A.U. after   10 cycles
 SCF Done:  E(RB3LYP) =  -495.842748369     A.U. after   10 cycles
 SCF Done:  E(RB3LYP) =  -495.842755051     A.U. after   10 cycles
 SCF Done:  E(RB3LYP) =  -495.842761038     A.U. after   11 cycles
 SCF Done:  E(RB3LYP) =  -495.842761945     A.U. after    9 cycles
 SCF Done:  E(RB3LYP) =  -495.842762099     A.U. after    9 cycles
 SCF Done:  E(RB3LYP) =  -495.842762124     A.U. after    7 cycles
 SCF Done:  E(RB3LYP) =  -495.842762129     A.U. after    7 cycles
 Optimization completed.
    -- Stationary point found.

                         Standard orientation:
 ---------------------------------------------------------------------
 Center     Atomic      Atomic             Coordinates (Angstroms)
 Number     Number       Type             X           Y           Z
 ---------------------------------------------------------------------
      1          1           0        3.635874   -1.820364    0.367121
      2          6           0        3.216125   -1.158112   -0.394477
      3          1           0        2.824185   -1.762845   -1.218584
      4          1           0        4.033798   -0.534093   -0.771769
      5          6           0        2.172209   -0.264607    0.260463
      6          8           0        2.380488    0.308952    1.317222
      7          7           0        0.972829   -0.170248   -0.422823
      8          1           0        1.000793   -0.461436   -1.393009
      9          6           0       -0.022323    0.847327   -0.074321
     10          1           0        0.367260    1.351592    0.811909
     11          6           0       -0.222053    1.861631   -1.209100
     12          1           0       -0.574799    1.371361   -2.124983
     13          1           0       -0.970507    2.604577   -0.917322
     14          1           0        0.717540    2.380263   -1.426471
     15          6           0       -1.379553    0.257777    0.357183
     16          8           0       -2.032505    0.779360    1.250161
     17          7           0       -1.862085   -0.758435   -0.427287
     18          1           0       -1.175070   -1.299040   -0.935770
     19          6           0       -3.113374   -1.424524   -0.096847
     20          1           0       -3.789784   -0.680378    0.325437
     21          1           0       -3.555257   -1.846338   -1.004358
     22          1           0       -2.979279   -2.225956    0.642092
 ---------------------------------------------------------------------

 The electronic state is 1-A.
 Alpha  occ. eigenvalues --  -19.11656 -19.11086 -14.36948 -14.36198 -10.29485
 Alpha  occ. eigenvalues --  -10.28205 -10.23262 -10.21856 -10.19944 -10.19417
 Alpha  occ. eigenvalues --   -1.03760  -1.02926  -0.93297  -0.91501  -0.78328
 Alpha  occ. eigenvalues --   -0.73456  -0.70882  -0.64744  -0.59276  -0.58005
 Alpha  occ. eigenvalues --   -0.53347  -0.48820  -0.48060  -0.45636  -0.45258
 Alpha  occ. eigenvalues --   -0.43941  -0.42645  -0.41993  -0.41153  -0.40242
 Alpha  occ. eigenvalues --   -0.39408  -0.38219  -0.37282  -0.35941  -0.35172
 Alpha  occ. eigenvalues --   -0.27971  -0.25561  -0.25425  -0.23736
 Alpha virt. eigenvalues --    0.01880   0.02354   0.04894   0.09823   0.11500
 Alpha virt. eigenvalues --    0.12174   0.13171   0.14724   0.15102   0.15696
 Alpha virt. eigenvalues --    0.16391   0.17170   0.17490   0.18658   0.19543

 Mulliken atomic charges:
              1
     1  H    0.193034
     2  C   -0.539324
     3  H    0.142831
     4  H    0.186290
     5  C    0.587757
     6  O   -0.484172
     7  N   -0.609951
     8  H    0.314630
     9  C   -0.060251
    10  H    0.209733
    11  C   -0.458682
    12  H    0.141278
    13  H    0.181921
    14  H    0.162128
    15  C    0.602574
    16  O   -0.506658
    17  N   -0.584634
    18  H    0.317335
    19  C   -0.306978
    20  H    0.198850
    21  H    0.151358
    22  H    0.160931
 Sum of Mulliken atomic charges =   0.00000

 Dipole moment (field-independent basis, Debye):
    X=              0.4360    Y=             -2.8589    Z=             -5.4352  Tot=              6.1567
 Quadrupole moment (field-independent basis, Debye-Ang):
   XX=            -61.2438   YY=            -56.2906   ZZ=            -64.1573
   XY=              1.7750   XZ=             -2.3250   YZ=             -1.7748

 Normal termination of Gaussian 09 at Fri Feb 10 22:51:02 2017.
