 Gaussian 09, Revision A.02,
 Gaussian 09:  EM64L-G09RevA.02 11-Jun-2009

 ----------------------------------------------------------------------
 # b3lyp/6-31G* Opt=(ModRedundant, maxcycles=1000, calcfc) geom=nocrowd
 ----------------------------------------------------------------------

 ------------------
 Phi Psi fixed scan
 ------------------
 Symbolic Z-matrix:
 Charge =  0 Multiplicity = 1

 SCF Done:  E(RB3LYP) =  -495.836219078     A.U. after   16 cycles

  Exact polarizability:   0.000   0.000   0.000   0.000   0.000   0.000
 Approx polarizability: 114.090  -3.831 112.465   2.927  20.877 110.478

 SCF Done:  E(RB3LYP) =  -495.840433349     A.U. after   12 cycles
 SCF Done:  E(RB3LYP) =  -495.845601296     A.U. after   12 cycles
 SCF Done:  E(RB3LYP) =  -495.847112652     A.U. after   13 cycles
 SCF Done:  E(RB3LYP) =  -495.831557753     A.U. after   13 cycles
 SCF Done:  E(RB3LYP) =  -495.847186532     A.U. after   13 cycles
 SCF Done:  E(RB3LYP) =  -495.847490631     A.U. after   12 cycles
 SCF Done:  E(RB3LYP) =  -495.844100886     A.U. after   14 cycles
 SCF Done:  E(RB3LYP) =  -495.847716679     A.U. after   13 cycles
 SCF Done:  E(RB3LYP) =  -495.847851901     A.U. after   11 cycles
 SCF Done:  E(RB3LYP) =  -495.847895293     A.U. after   11 cycles
 SCF Done:  E(RB3LYP) =  -495.847900127     A.U. after   10 cycles
 SCF Done:  E(RB3LYP) =  -495.847901382     A.U. after    8 cycles
 SCF Done:  E(RB3LYP) =  -495.847902281     A.U. after    9 cycles
 SCF Done:  E(RB3LYP) =  -495.847903673     A.U. after    9 cycles
 SCF Done:  E(RB3LYP) =  -495.847906116     A.U. after   10 cycles
 SCF Done:  E(RB3LYP) =  -495.847907407     A.U. after   10 cycles
 SCF Done:  E(RB3LYP) =  -495.847907612     A.U. after    9 cycles
 SCF Done:  E(RB3LYP) =  -495.847907666     A.U. after    8 cycles
 SCF Done:  E(RB3LYP) =  -495.847907668     A.U. after    6 cycles
 Optimization completed on the basis of negligible forces.
    -- Stationary point found.

                         Standard orientation:
 ---------------------------------------------------------------------
 Center     Atomic      Atomic             Coordinates (Angstroms)
 Number     Number       Type             X           Y           Z
 ---------------------------------------------------------------------
      1          1           0        3.581623   -1.845736    0.123316
      2          6           0        3.195703   -1.042547   -0.509613
      3          1           0        2.849833   -1.466172   -1.457959
      4          1           0        4.026856   -0.358016   -0.712311
      5          6           0        2.114743   -0.294250    0.256835
      6          8           0        2.256689    0.037474    1.422922
      7          7           0        0.959900   -0.035849   -0.459859
      8          1           0        1.026265   -0.134867   -1.466153
      9          6           0       -0.051567    0.900989    0.033018
     10          1           0        0.293697    1.211551    1.022928
     11          6           0       -0.181149    2.133219   -0.872540
     12          1           0       -0.468722    1.846154   -1.892342
     13          1           0       -0.955264    2.795042   -0.476883
     14          1           0        0.767245    2.678181   -0.916868
     15          6           0       -1.440651    0.270183    0.251382
     16          8           0       -2.316581    0.905010    0.826246
     17          7           0       -1.639983   -0.950847   -0.324809
     18          1           0       -0.806662   -1.464455   -0.578993
     19          6           0       -2.880071   -1.685142   -0.137942
     20          1           0       -3.667216   -0.960214    0.074152
     21          1           0       -3.129115   -2.239381   -1.048470
     22          1           0       -2.820881   -2.389797    0.702078
 ---------------------------------------------------------------------

 The electronic state is 1-A.
 Alpha  occ. eigenvalues --  -19.11969 -19.10685 -14.37157 -14.35973 -10.29780
 Alpha  occ. eigenvalues --  -10.28078 -10.23345 -10.21714 -10.20174 -10.18977
 Alpha  occ. eigenvalues --   -1.04029  -1.02670  -0.93512  -0.91346  -0.78256
 Alpha  occ. eigenvalues --   -0.73516  -0.71031  -0.64455  -0.59462  -0.57771
 Alpha  occ. eigenvalues --   -0.53526  -0.48951  -0.48257  -0.45821  -0.45256
 Alpha  occ. eigenvalues --   -0.43843  -0.42535  -0.41920  -0.40992  -0.40389
 Alpha  occ. eigenvalues --   -0.39104  -0.38339  -0.37339  -0.36124  -0.34605
 Alpha  occ. eigenvalues --   -0.28114  -0.25821  -0.25273  -0.23727
 Alpha virt. eigenvalues --    0.01622   0.02891   0.05768   0.10205   0.11563
 Alpha virt. eigenvalues --    0.12263   0.13343   0.14632   0.15088   0.15845
 Alpha virt. eigenvalues --    0.16506   0.17445   0.17814   0.18109   0.19571

 Mulliken atomic charges:
              1
     1  H    0.192283
     2  C   -0.539976
     3  H    0.144364
     4  H    0.188341
     5  C    0.584569
     6  O   -0.484683
     7  N   -0.622478
     8  H    0.322066
     9  C   -0.047569
    10  H    0.210431
    11  C   -0.459201
    12  H    0.140377
    13  H    0.191610
    14  H    0.157298
    15  C    0.599253
    16  O   -0.521345
    17  N   -0.589299
    18  H    0.329304
    19  C   -0.308743
    20  H    0.200541
    21  H    0.152002
    22  H    0.160853
 Sum of Mulliken atomic charges =   0.00000

 Dipole moment (field-independent basis, Debye):
    X=              1.3966    Y=             -2.5321    Z=             -4.7135  Tot=              5.5298
 Quadrupole moment (field-independent basis, Debye-Ang):
   XX=            -63.5139   YY=            -55.8996   ZZ=            -63.2417
   XY=              4.1855   XZ=             -3.7130   YZ=             -1.1164

 Normal termination of Gaussian 09 at Fri Feb 10 22:35:56 2017.
