 Gaussian 09, Revision A.02,
 Gaussian 09:  EM64L-G09RevA.02 11-Jun-2009

 ----------------------------------------------------------------------
 # b3lyp/6-31G* Opt=(ModRedundant, maxcycles=1000, calcfc) geom=nocrowd
 ----------------------------------------------------------------------

 ------------------
 Phi Psi fixed scan
 ------------------
 Symbolic Z-matrix:
 Charge =  0 Multiplicity = 1

 SCF Done:  E(RB3LYP) =  -495.830779491     A.U. after   15 cycles

  Exact polarizability:   0.000   0.000   0.000   0.000   0.000   0.000
 Approx polarizability: 123.270 -12.098 106.897  11.037  -0.536 107.513

 SCF Done:  E(RB3LYP) =  -495.835915308     A.U. after   12 cycles
 SCF Done:  E(RB3LYP) =  -495.841802591     A.U. after   12 cycles
 SCF Done:  E(RB3LYP) =  -495.843292017     A.U. after   14 cycles
 SCF Done:  E(RB3LYP) =  -495.843956226     A.U. after   12 cycles
 SCF Done:  E(RB3LYP) =  -495.813714169     A.U. after   13 cycles
 SCF Done:  E(RB3LYP) =  -495.843964485     A.U. after   14 cycles
 SCF Done:  E(RB3LYP) =  -495.844403925     A.U. after   12 cycles
 SCF Done:  E(RB3LYP) =  -495.844041393     A.U. after   13 cycles
 SCF Done:  E(RB3LYP) =  -495.844669695     A.U. after   12 cycles
 SCF Done:  E(RB3LYP) =  -495.844753344     A.U. after   12 cycles
 SCF Done:  E(RB3LYP) =  -495.844785725     A.U. after   12 cycles
 SCF Done:  E(RB3LYP) =  -495.844787696     A.U. after    8 cycles
 SCF Done:  E(RB3LYP) =  -495.844789224     A.U. after    8 cycles
 SCF Done:  E(RB3LYP) =  -495.844791292     A.U. after    8 cycles
 SCF Done:  E(RB3LYP) =  -495.844796491     A.U. after   10 cycles
 SCF Done:  E(RB3LYP) =  -495.844799568     A.U. after   10 cycles
 SCF Done:  E(RB3LYP) =  -495.844800312     A.U. after    9 cycles
 SCF Done:  E(RB3LYP) =  -495.844800501     A.U. after    9 cycles
 SCF Done:  E(RB3LYP) =  -495.844800508     A.U. after    7 cycles
 Optimization completed.
    -- Stationary point found.

                         Standard orientation:
 ---------------------------------------------------------------------
 Center     Atomic      Atomic             Coordinates (Angstroms)
 Number     Number       Type             X           Y           Z
 ---------------------------------------------------------------------
      1          1           0        4.249197   -0.765423   -0.404432
      2          6           0        3.220496   -1.056051   -0.625577
      3          1           0        3.060787   -2.068842   -0.236458
      4          1           0        3.070150   -1.077353   -1.709946
      5          6           0        2.274070   -0.097785    0.079207
      6          8           0        2.565428    0.469317    1.122979
      7          7           0        1.064420    0.094807   -0.554258
      8          1           0        0.812121   -0.600706   -1.245178
      9          6           0       -0.048261    0.699447    0.174489
     10          1           0        0.295225    0.790303    1.212294
     11          6           0       -0.356935    2.107301   -0.353682
     12          1           0       -0.708289    2.087281   -1.392072
     13          1           0       -1.103014    2.619574    0.267160
     14          1           0        0.557612    2.705420   -0.319871
     15          6           0       -1.214207   -0.313348    0.189793
     16          8           0       -0.998720   -1.501076    0.406778
     17          7           0       -2.455364    0.177501   -0.090513
     18          1           0       -2.566117    1.168064   -0.242795
     19          6           0       -3.646980   -0.653216   -0.052067
     20          1           0       -3.320777   -1.685320    0.080776
     21          1           0       -4.303725   -0.375502    0.781483
     22          1           0       -4.209323   -0.567665   -0.988611
 ---------------------------------------------------------------------

 The electronic state is 1-A.
 Alpha  occ. eigenvalues --  -19.11314 -19.10732 -14.36966 -14.35381 -10.28957
 Alpha  occ. eigenvalues --  -10.28254 -10.23339 -10.22306 -10.19246 -10.18709
 Alpha  occ. eigenvalues --   -1.03628  -1.02463  -0.92582  -0.91693  -0.78040
 Alpha  occ. eigenvalues --   -0.72815  -0.70912  -0.64947  -0.58939  -0.57794
 Alpha  occ. eigenvalues --   -0.53728  -0.47942  -0.47371  -0.45840  -0.45169
 Alpha  occ. eigenvalues --   -0.44175  -0.42546  -0.41913  -0.39965  -0.39447
 Alpha  occ. eigenvalues --   -0.39276  -0.38561  -0.37788  -0.36438  -0.34116
 Alpha  occ. eigenvalues --   -0.26036  -0.25477  -0.25094  -0.24449
 Alpha virt. eigenvalues --    0.01804   0.03530   0.07141   0.09099   0.11444
 Alpha virt. eigenvalues --    0.13219   0.14124   0.14318   0.15370   0.15780
 Alpha virt. eigenvalues --    0.16211   0.16328   0.18032   0.18842   0.19355

 Mulliken atomic charges:
              1
     1  H    0.185186
     2  C   -0.544948
     3  H    0.188657
     4  H    0.153177
     5  C    0.591689
     6  O   -0.500634
     7  N   -0.576398
     8  H    0.328222
     9  C   -0.031403
    10  H    0.206892
    11  C   -0.473645
    12  H    0.148577
    13  H    0.141290
    14  H    0.182357
    15  C    0.566102
    16  O   -0.516955
    17  N   -0.593852
    18  H    0.332894
    19  C   -0.312646
    20  H    0.206877
    21  H    0.161007
    22  H    0.157555
 Sum of Mulliken atomic charges =   0.00000

 Dipole moment (field-independent basis, Debye):
    X=             -3.1963    Y=              1.3238    Z=             -3.0455  Tot=              4.6091
 Quadrupole moment (field-independent basis, Debye-Ang):
   XX=            -53.6737   YY=            -60.9717   ZZ=            -61.5976
   XY=             -7.6823   XZ=             -5.4080   YZ=              1.3587

 Normal termination of Gaussian 09 at Fri Feb 10 22:43:06 2017.
