 Gaussian 09, Revision A.02,
 Gaussian 09:  EM64L-G09RevA.02 11-Jun-2009

 ----------------------------------------------------------------------
 # b3lyp/6-31G* Opt=(ModRedundant, maxcycles=1000, calcfc) geom=nocrowd
 ----------------------------------------------------------------------

 ------------------
 Phi Psi fixed scan
 ------------------
 Symbolic Z-matrix:
 Charge =  0 Multiplicity = 1

 SCF Done:  E(RB3LYP) =  -495.845110224     A.U. after   14 cycles

  Exact polarizability:   0.000   0.000   0.000   0.000   0.000   0.000
 Approx polarizability: 109.823   0.413  92.033  -1.786  13.694 132.906

 SCF Done:  E(RB3LYP) =  -495.847711106     A.U. after   12 cycles
 SCF Done:  E(RB3LYP) =  -495.850448927     A.U. after   12 cycles
 SCF Done:  E(RB3LYP) =  -495.851049767     A.U. after   13 cycles
 SCF Done:  E(RB3LYP) =  -495.841841072     A.U. after   13 cycles
 SCF Done:  E(RB3LYP) =  -495.845803752     A.U. after   11 cycles
 SCF Done:  E(RB3LYP) =  -495.848132762     A.U. after   11 cycles
 SCF Done:  E(RB3LYP) =  -495.849363678     A.U. after   12 cycles
 SCF Done:  E(RB3LYP) =  -495.849512417     A.U. after   12 cycles
 SCF Done:  E(RB3LYP) =  -495.849783749     A.U. after   11 cycles
 SCF Done:  E(RB3LYP) =  -495.851437449     A.U. after   11 cycles
 SCF Done:  E(RB3LYP) =  -495.851442213     A.U. after    9 cycles
 SCF Done:  E(RB3LYP) =  -495.851443880     A.U. after   10 cycles
 SCF Done:  E(RB3LYP) =  -495.851443664     A.U. after    6 cycles
 SCF Done:  E(RB3LYP) =  -495.851431756     A.U. after   11 cycles
 SCF Done:  E(RB3LYP) =  -495.851446410     A.U. after   10 cycles
 SCF Done:  E(RB3LYP) =  -495.851446670     A.U. after   10 cycles
 SCF Done:  E(RB3LYP) =  -495.851446829     A.U. after    9 cycles
 SCF Done:  E(RB3LYP) =  -495.851446866     A.U. after    9 cycles
 SCF Done:  E(RB3LYP) =  -495.851446898     A.U. after    7 cycles
 Optimization completed.
    -- Stationary point found.

                         Standard orientation:
 ---------------------------------------------------------------------
 Center     Atomic      Atomic             Coordinates (Angstroms)
 Number     Number       Type             X           Y           Z
 ---------------------------------------------------------------------
      1          1           0       -4.184266   -0.494032    0.462506
      2          6           0       -3.222084   -0.971084    0.673254
      3          1           0       -3.321174   -2.030674    0.417992
      4          1           0       -3.006427   -0.878469    1.742057
      5          6           0       -2.161095   -0.348842   -0.222015
      6          8           0       -2.250813   -0.371166   -1.444777
      7          7           0       -1.124875    0.258088    0.436458
      8          1           0       -0.995095    0.099267    1.428099
      9          6           0        0.044251    0.768787   -0.263572
     10          1           0       -0.119383    0.545391   -1.321759
     11          6           0        0.208825    2.283854   -0.066373
     12          1           0        0.350940    2.514865    0.994319
     13          1           0        1.079721    2.656842   -0.617846
     14          1           0       -0.683177    2.804863   -0.426520
     15          6           0        1.275735    0.030813    0.284582
     16          8           0        1.425826   -0.115296    1.495378
     17          7           0        2.161568   -0.411931   -0.647876
     18          1           0        1.925509   -0.299757   -1.623515
     19          6           0        3.387948   -1.110944   -0.302157
     20          1           0        3.446908   -1.144808    0.786415
     21          1           0        3.382685   -2.135136   -0.692967
     22          1           0        4.265319   -0.585263   -0.695983
 ---------------------------------------------------------------------

 The electronic state is 1-A.
 Alpha  occ. eigenvalues --  -19.11751 -19.10330 -14.37227 -14.35466 -10.29007
 Alpha  occ. eigenvalues --  -10.28332 -10.23329 -10.22404 -10.18805 -10.18545
 Alpha  occ. eigenvalues --   -1.03826  -1.02249  -0.92813  -0.91766  -0.77907
 Alpha  occ. eigenvalues --   -0.72733  -0.71392  -0.64177  -0.59408  -0.57980
 Alpha  occ. eigenvalues --   -0.53663  -0.48079  -0.46785  -0.46169  -0.45633
 Alpha  occ. eigenvalues --   -0.44351  -0.42462  -0.41796  -0.40662  -0.39679
 Alpha  occ. eigenvalues --   -0.39233  -0.37803  -0.36696  -0.36277  -0.34564
 Alpha  occ. eigenvalues --   -0.26556  -0.26104  -0.24739  -0.23955
 Alpha virt. eigenvalues --    0.01914   0.03720   0.06969   0.09060   0.11891
 Alpha virt. eigenvalues --    0.12711   0.13372   0.15454   0.15895   0.16321
 Alpha virt. eigenvalues --    0.16700   0.17368   0.17815   0.18385   0.19775

 Mulliken atomic charges:
              1
     1  H    0.184880
     2  C   -0.532917
     3  H    0.183217
     4  H    0.147638
     5  C    0.588863
     6  O   -0.513942
     7  N   -0.585528
     8  H    0.337336
     9  C   -0.053993
    10  H    0.170903
    11  C   -0.439612
    12  H    0.164706
    13  H    0.146012
    14  H    0.166307
    15  C    0.610698
    16  O   -0.535614
    17  N   -0.588408
    18  H    0.333280
    19  C   -0.313644
    20  H    0.206258
    21  H    0.162947
    22  H    0.160615
 Sum of Mulliken atomic charges =   0.00000

 Dipole moment (field-independent basis, Debye):
    X=              1.8487    Y=              0.0120    Z=             -0.2352  Tot=              1.8636
 Quadrupole moment (field-independent basis, Debye-Ang):
   XX=            -55.2521   YY=            -57.6203   ZZ=            -64.3898
   XY=             -1.4278   XZ=            -13.6324   YZ=             -0.8037

 Normal termination of Gaussian 09 at Fri Feb 10 22:30:24 2017.
