 Gaussian 09, Revision A.02,
 Gaussian 09:  EM64L-G09RevA.02 11-Jun-2009

 ----------------------------------------------------------------------
 # b3lyp/6-31G* Opt=(ModRedundant, maxcycles=1000, calcfc) geom=nocrowd
 ----------------------------------------------------------------------

 ------------------
 Phi Psi fixed scan
 ------------------
 Symbolic Z-matrix:
 Charge =  0 Multiplicity = 1

 SCF Done:  E(RB3LYP) =  -495.844080730     A.U. after   15 cycles

  Exact polarizability:   0.000   0.000   0.000   0.000   0.000   0.000
 Approx polarizability: 109.457  -7.991 110.527   9.291 -21.043 116.876

 SCF Done:  E(RB3LYP) =  -495.846853783     A.U. after   11 cycles
 SCF Done:  E(RB3LYP) =  -495.849720476     A.U. after   16 cycles
 SCF Done:  E(RB3LYP) =  -495.850093551     A.U. after   12 cycles
 SCF Done:  E(RB3LYP) =  -495.743224950     A.U. after   16 cycles
 SCF Done:  E(RB3LYP) =  -495.768459073     A.U. after   12 cycles
 SCF Done:  E(RB3LYP) =  -495.789483712     A.U. after   12 cycles
 SCF Done:  E(RB3LYP) =  -495.806707743     A.U. after   12 cycles
 SCF Done:  E(RB3LYP) =  -495.820544135     A.U. after   12 cycles
 SCF Done:  E(RB3LYP) =  -495.831430664     A.U. after   12 cycles
 SCF Done:  E(RB3LYP) =  -495.850154737     A.U. after   11 cycles
 SCF Done:  E(RB3LYP) =  -495.846116606     A.U. after   13 cycles
 SCF Done:  E(RB3LYP) =  -495.850189908     A.U. after   12 cycles
 SCF Done:  E(RB3LYP) =  -495.850237233     A.U. after   11 cycles
 SCF Done:  E(RB3LYP) =  -495.850317704     A.U. after   11 cycles
 SCF Done:  E(RB3LYP) =  -495.850342686     A.U. after   10 cycles
 SCF Done:  E(RB3LYP) =  -495.850348460     A.U. after    9 cycles
 SCF Done:  E(RB3LYP) =  -495.850348989     A.U. after    9 cycles
 SCF Done:  E(RB3LYP) =  -495.850349213     A.U. after    7 cycles
 SCF Done:  E(RB3LYP) =  -495.850349251     A.U. after    7 cycles
 Optimization completed.
    -- Stationary point found.

                         Standard orientation:
 ---------------------------------------------------------------------
 Center     Atomic      Atomic             Coordinates (Angstroms)
 Number     Number       Type             X           Y           Z
 ---------------------------------------------------------------------
      1          1           0       -3.301946   -1.850871    0.936632
      2          6           0       -3.143309   -0.768862    0.923378
      3          1           0       -2.939843   -0.423272    1.941752
      4          1           0       -4.072420   -0.307237    0.573061
      5          6           0       -2.034436   -0.448066   -0.066691
      6          8           0       -2.050967   -0.869765   -1.218769
      7          7           0       -1.019466    0.331669    0.418206
      8          1           0       -1.053704    0.663226    1.372668
      9          6           0        0.054579    0.841580   -0.432637
     10          1           0       -0.150348    0.429818   -1.423902
     11          6           0        0.065482    2.369357   -0.481758
     12          1           0        0.297554    2.782432    0.504390
     13          1           0        0.835521    2.723174   -1.175617
     14          1           0       -0.906360    2.744540   -0.816667
     15          6           0        1.390121    0.297270    0.112535
     16          8           0        2.025420    0.887479    0.979651
     17          7           0        1.764150   -0.898235   -0.425451
     18          1           0        1.123816   -1.347614   -1.066442
     19          6           0        2.917996   -1.643963    0.045370
     20          1           0        3.489549   -0.983474    0.698861
     21          1           0        2.620083   -2.534615    0.613168
     22          1           0        3.547087   -1.955751   -0.795423
 ---------------------------------------------------------------------

 The electronic state is 1-A.
 Alpha  occ. eigenvalues --  -19.11226 -19.11158 -14.36602 -14.36314 -10.29172
 Alpha  occ. eigenvalues --  -10.28403 -10.23295 -10.21830 -10.19605 -10.18105
 Alpha  occ. eigenvalues --   -1.03477  -1.02809  -0.92753  -0.91816  -0.78005
 Alpha  occ. eigenvalues --   -0.73043  -0.71241  -0.64011  -0.59283  -0.58221
 Alpha  occ. eigenvalues --   -0.53391  -0.48248  -0.47805  -0.46345  -0.44884
 Alpha  occ. eigenvalues --   -0.44595  -0.42118  -0.41680  -0.40423  -0.39932
 Alpha  occ. eigenvalues --   -0.39097  -0.37613  -0.36697  -0.35923  -0.35662
 Alpha  occ. eigenvalues --   -0.27044  -0.25325  -0.25207  -0.24055
 Alpha virt. eigenvalues --    0.01575   0.03688   0.07564   0.08430   0.12097
 Alpha virt. eigenvalues --    0.12357   0.12838   0.15225   0.16067   0.16516
 Alpha virt. eigenvalues --    0.16627   0.17607   0.17856   0.18425   0.20152

 Mulliken atomic charges:
              1
     1  H    0.186663
     2  C   -0.534243
     3  H    0.146393
     4  H    0.187391
     5  C    0.592244
     6  O   -0.517499
     7  N   -0.589489
     8  H    0.331402
     9  C   -0.060531
    10  H    0.180270
    11  C   -0.445416
    12  H    0.167730
    13  H    0.158146
    14  H    0.151491
    15  C    0.610608
    16  O   -0.524720
    17  N   -0.588662
    18  H    0.340231
    19  C   -0.311871
    20  H    0.202339
    21  H    0.158682
    22  H    0.158841
 Sum of Mulliken atomic charges =   0.00000

 Dipole moment (field-independent basis, Debye):
    X=             -0.5780    Y=             -0.8553    Z=              0.8618  Tot=              1.3447
 Quadrupole moment (field-independent basis, Debye-Ang):
   XX=            -60.4631   YY=            -57.8516   ZZ=            -61.7797
   XY=             -8.1244   XZ=            -10.9238   YZ=             -3.0296

 Normal termination of Gaussian 09 at Fri Feb 10 22:45:33 2017.
