 Gaussian 09, Revision A.02,
 Gaussian 09:  EM64L-G09RevA.02 11-Jun-2009

 ----------------------------------------------------------------------
 # b3lyp/6-31G* Opt=(ModRedundant, maxcycles=1000, calcfc) geom=nocrowd
 ----------------------------------------------------------------------

 ------------------
 Phi Psi fixed scan
 ------------------
 Symbolic Z-matrix:
 Charge =  0 Multiplicity = 1

 SCF Done:  E(RB3LYP) =  -495.842866712     A.U. after   15 cycles

  Exact polarizability:   0.000   0.000   0.000   0.000   0.000   0.000
 Approx polarizability: 116.507 -14.262 112.162  10.926  -3.608 108.013

 SCF Done:  E(RB3LYP) =  -495.845846804     A.U. after   11 cycles
 SCF Done:  E(RB3LYP) =  -495.848983307     A.U. after   12 cycles
 SCF Done:  E(RB3LYP) =  -495.849475100     A.U. after   12 cycles
 SCF Done:  E(RB3LYP) =  -495.826824403     A.U. after   13 cycles
 SCF Done:  E(RB3LYP) =  -495.849482065     A.U. after   14 cycles
 SCF Done:  E(RB3LYP) =  -495.849605451     A.U. after   12 cycles
 SCF Done:  E(RB3LYP) =  -495.848148272     A.U. after   13 cycles
 SCF Done:  E(RB3LYP) =  -495.849663971     A.U. after   13 cycles
 SCF Done:  E(RB3LYP) =  -495.849702982     A.U. after   12 cycles
 SCF Done:  E(RB3LYP) =  -495.849713364     A.U. after    9 cycles
 SCF Done:  E(RB3LYP) =  -495.849719593     A.U. after   10 cycles
 SCF Done:  E(RB3LYP) =  -495.849724330     A.U. after   10 cycles
 SCF Done:  E(RB3LYP) =  -495.849737143     A.U. after   10 cycles
 SCF Done:  E(RB3LYP) =  -495.849742715     A.U. after   11 cycles
 SCF Done:  E(RB3LYP) =  -495.849742851     A.U. after    8 cycles
 SCF Done:  E(RB3LYP) =  -495.849742863     A.U. after    6 cycles
 Optimization completed.
    -- Stationary point found.

                         Standard orientation:
 ---------------------------------------------------------------------
 Center     Atomic      Atomic             Coordinates (Angstroms)
 Number     Number       Type             X           Y           Z
 ---------------------------------------------------------------------
      1          1           0        3.494759   -1.794286   -0.511202
      2          6           0        3.163753   -0.791914   -0.794123
      3          1           0        2.882723   -0.788324   -1.852122
      4          1           0        4.014097   -0.114671   -0.656735
      5          6           0        2.039715   -0.363956    0.137286
      6          8           0        2.087215   -0.556222    1.346424
      7          7           0        0.969231    0.242031   -0.472071
      8          1           0        1.021871    0.427724   -1.465025
      9          6           0       -0.089267    0.920243    0.275500
     10          1           0        0.157340    0.744449    1.328870
     11          6           0       -0.113973    2.421847   -0.010634
     12          1           0       -0.298327    2.618492   -1.072973
     13          1           0       -0.920878    2.898074    0.550302
     14          1           0        0.841113    2.874125    0.273652
     15          6           0       -1.472389    0.279187    0.011186
     16          8           0       -2.475198    0.956824   -0.181913
     17          7           0       -1.474635   -1.082949    0.048196
     18          1           0       -0.600953   -1.551140    0.243728
     19          6           0       -2.684558   -1.872047   -0.087941
     20          1           0       -3.504004   -1.181117   -0.291188
     21          1           0       -2.600976   -2.585446   -0.916476
     22          1           0       -2.904761   -2.426422    0.832554
 ---------------------------------------------------------------------

 The electronic state is 1-A.
 Alpha  occ. eigenvalues --  -19.11711 -19.10983 -14.37011 -14.35902 -10.29630
 Alpha  occ. eigenvalues --  -10.28243 -10.23435 -10.21678 -10.20067 -10.18084
 Alpha  occ. eigenvalues --   -1.03827  -1.02790  -0.93314  -0.91381  -0.78095
 Alpha  occ. eigenvalues --   -0.73271  -0.71187  -0.64009  -0.59588  -0.57931
 Alpha  occ. eigenvalues --   -0.53529  -0.48723  -0.48223  -0.45977  -0.45181
 Alpha  occ. eigenvalues --   -0.44353  -0.42110  -0.42040  -0.40419  -0.39583
 Alpha  occ. eigenvalues --   -0.38792  -0.38119  -0.37138  -0.36132  -0.35392
 Alpha  occ. eigenvalues --   -0.27640  -0.25682  -0.25059  -0.23813
 Alpha virt. eigenvalues --    0.01855   0.02780   0.06921   0.09454   0.11611
 Alpha virt. eigenvalues --    0.12540   0.12847   0.14755   0.15854   0.16006
 Alpha virt. eigenvalues --    0.16810   0.17366   0.17498   0.18573   0.19468

 Mulliken atomic charges:
              1
     1  H    0.188133
     2  C   -0.538197
     3  H    0.147348
     4  H    0.188963
     5  C    0.583949
     6  O   -0.506671
     7  N   -0.597539
     8  H    0.325032
     9  C   -0.073328
    10  H    0.204358
    11  C   -0.439441
    12  H    0.146426
    13  H    0.180115
    14  H    0.148171
    15  C    0.601818
    16  O   -0.521702
    17  N   -0.583552
    18  H    0.340129
    19  C   -0.310305
    20  H    0.202309
    21  H    0.154167
    22  H    0.159815
 Sum of Mulliken atomic charges =   0.00000

 Dipole moment (field-independent basis, Debye):
    X=              1.6947    Y=             -1.5233    Z=             -2.6716  Tot=              3.5114
 Quadrupole moment (field-independent basis, Debye-Ang):
   XX=            -64.7895   YY=            -56.6429   ZZ=            -61.2074
   XY=              7.4685   XZ=             -8.1585   YZ=              1.7512

 Normal termination of Gaussian 09 at Fri Feb 10 22:35:52 2017.
