 Gaussian 09, Revision A.02,
 Gaussian 09:  EM64L-G09RevA.02 11-Jun-2009

 ----------------------------------------------------------------------
 # b3lyp/6-31G* Opt=(ModRedundant, maxcycles=1000, calcfc) geom=nocrowd
 ----------------------------------------------------------------------

 ------------------
 Phi Psi fixed scan
 ------------------
 Symbolic Z-matrix:
 Charge =  0 Multiplicity = 1

 SCF Done:  E(RB3LYP) =  -495.843395274     A.U. after   15 cycles

  Exact polarizability:   0.000   0.000   0.000   0.000   0.000   0.000
 Approx polarizability: 111.675 -11.619 111.797  11.508 -16.562 113.279

 SCF Done:  E(RB3LYP) =  -495.846373567     A.U. after   11 cycles
 SCF Done:  E(RB3LYP) =  -495.849512540     A.U. after   12 cycles
 SCF Done:  E(RB3LYP) =  -495.849998079     A.U. after   12 cycles
 SCF Done:  E(RB3LYP) =  -495.762496106     A.U. after   15 cycles
 SCF Done:  E(RB3LYP) =  -495.786194368     A.U. after   12 cycles
 SCF Done:  E(RB3LYP) =  -495.805307730     A.U. after   12 cycles
 SCF Done:  E(RB3LYP) =  -495.820333582     A.U. after   12 cycles
 SCF Done:  E(RB3LYP) =  -495.831825914     A.U. after   12 cycles
 SCF Done:  E(RB3LYP) =  -495.840405668     A.U. after   12 cycles
 SCF Done:  E(RB3LYP) =  -495.850080392     A.U. after   11 cycles
 SCF Done:  E(RB3LYP) =  -495.847365069     A.U. after   13 cycles
 SCF Done:  E(RB3LYP) =  -495.850131844     A.U. after   12 cycles
 SCF Done:  E(RB3LYP) =  -495.850182523     A.U. after   11 cycles
 SCF Done:  E(RB3LYP) =  -495.850252827     A.U. after   11 cycles
 SCF Done:  E(RB3LYP) =  -495.850261892     A.U. after    9 cycles
 SCF Done:  E(RB3LYP) =  -495.850262856     A.U. after    9 cycles
 SCF Done:  E(RB3LYP) =  -495.850263196     A.U. after    7 cycles
 SCF Done:  E(RB3LYP) =  -495.850263351     A.U. after    7 cycles
 SCF Done:  E(RB3LYP) =  -495.850263363     A.U. after    7 cycles
 Optimization completed.
    -- Stationary point found.

                         Standard orientation:
 ---------------------------------------------------------------------
 Center     Atomic      Atomic             Coordinates (Angstroms)
 Number     Number       Type             X           Y           Z
 ---------------------------------------------------------------------
      1          1           0        3.404295   -1.784851   -0.836072
      2          6           0        3.159450   -0.720842   -0.890519
      3          1           0        2.939966   -0.453713   -1.929021
      4          1           0        4.044721   -0.163976   -0.564528
      5          6           0        2.016629   -0.430215    0.069268
      6          8           0        2.012074   -0.851130    1.222069
      7          7           0        0.988144    0.314548   -0.443572
      8          1           0        1.066187    0.675995   -1.384931
      9          6           0       -0.067753    0.875464    0.401604
     10          1           0        0.155670    0.514025    1.409246
     11          6           0       -0.069320    2.402459    0.369736
     12          1           0       -0.305814    2.769781   -0.633591
     13          1           0       -0.834527    2.795721    1.045984
     14          1           0        0.906694    2.788524    0.679735
     15          6           0       -1.427710    0.305722   -0.058218
     16          8           0       -2.228769    0.958639   -0.716931
     17          7           0       -1.626511   -0.988865    0.321591
     18          1           0       -0.874919   -1.456249    0.812222
     19          6           0       -2.783922   -1.761924   -0.089845
     20          1           0       -3.483926   -1.074014   -0.566268
     21          1           0       -2.512445   -2.546685   -0.807505
     22          1           0       -3.268008   -2.228411    0.775329
 ---------------------------------------------------------------------

 The electronic state is 1-A.
 Alpha  occ. eigenvalues --  -19.11517 -19.11124 -14.36816 -14.35944 -10.29438
 Alpha  occ. eigenvalues --  -10.28237 -10.23314 -10.21653 -10.19858 -10.18141
 Alpha  occ. eigenvalues --   -1.03641  -1.02804  -0.92985  -0.91532  -0.78070
 Alpha  occ. eigenvalues --   -0.73191  -0.71165  -0.63966  -0.59415  -0.57937
 Alpha  occ. eigenvalues --   -0.53288  -0.48453  -0.48092  -0.46257  -0.44954
 Alpha  occ. eigenvalues --   -0.44448  -0.42115  -0.41838  -0.40331  -0.39876
 Alpha  occ. eigenvalues --   -0.38892  -0.37561  -0.37051  -0.36000  -0.35773
 Alpha  occ. eigenvalues --   -0.27313  -0.25537  -0.24990  -0.24017
 Alpha virt. eigenvalues --    0.01573   0.03285   0.07268   0.09132   0.11788
 Alpha virt. eigenvalues --    0.12459   0.12734   0.15051   0.15939   0.16252
 Alpha virt. eigenvalues --    0.16780   0.17449   0.17783   0.18753   0.19880

 Mulliken atomic charges:
              1
     1  H    0.187896
     2  C   -0.535558
     3  H    0.147857
     4  H    0.187759
     5  C    0.590937
     6  O   -0.517988
     7  N   -0.585812
     8  H    0.328592
     9  C   -0.072007
    10  H    0.187994
    11  C   -0.442913
    12  H    0.162895
    13  H    0.164426
    14  H    0.148065
    15  C    0.608788
    16  O   -0.520828
    17  N   -0.587201
    18  H    0.341734
    19  C   -0.310815
    20  H    0.201173
    21  H    0.156479
    22  H    0.158528
 Sum of Mulliken atomic charges =   0.00000

 Dipole moment (field-independent basis, Debye):
    X=              1.2868    Y=             -0.8862    Z=             -1.4157  Tot=              2.1085
 Quadrupole moment (field-independent basis, Debye-Ang):
   XX=            -62.0149   YY=            -57.6543   ZZ=            -61.2450
   XY=              8.4895   XZ=             -9.8820   YZ=              2.8257

 Normal termination of Gaussian 09 at Fri Feb 10 22:53:11 2017.
