 Gaussian 09, Revision A.02,
 Gaussian 09:  EM64L-G09RevA.02 11-Jun-2009

 ----------------------------------------------------------------------
 # b3lyp/6-31G* Opt=(ModRedundant, maxcycles=1000, calcfc) geom=nocrowd
 ----------------------------------------------------------------------

 ------------------
 Phi Psi fixed scan
 ------------------
 Symbolic Z-matrix:
 Charge =  0 Multiplicity = 1

 SCF Done:  E(RB3LYP) =  -495.844813128     A.U. after   14 cycles

  Exact polarizability:   0.000   0.000   0.000   0.000   0.000   0.000
 Approx polarizability: 108.386   4.068 107.174   5.917  23.163 121.007

 SCF Done:  E(RB3LYP) =  -495.847390487     A.U. after   11 cycles
 SCF Done:  E(RB3LYP) =  -495.849999081     A.U. after   12 cycles
 SCF Done:  E(RB3LYP) =  -495.850286710     A.U. after   12 cycles
 SCF Done:  E(RB3LYP) =  -495.642012129     A.U. after   14 cycles
 SCF Done:  E(RB3LYP) =  -495.684540439     A.U. after   12 cycles
 SCF Done:  E(RB3LYP) =  -495.720812611     A.U. after   12 cycles
 SCF Done:  E(RB3LYP) =  -495.751376094     A.U. after   12 cycles
 SCF Done:  E(RB3LYP) =  -495.776744260     A.U. after   12 cycles
 SCF Done:  E(RB3LYP) =  -495.797411196     A.U. after   12 cycles
 SCF Done:  E(RB3LYP) =  -495.850286713     A.U. after   13 cycles
 SCF Done:  E(RB3LYP) =  -495.850262724     A.U. after   11 cycles
 SCF Done:  E(RB3LYP) =  -495.850368560     A.U. after   11 cycles
 SCF Done:  E(RB3LYP) =  -495.850484837     A.U. after   11 cycles
 SCF Done:  E(RB3LYP) =  -495.850517622     A.U. after   11 cycles
 SCF Done:  E(RB3LYP) =  -495.850537772     A.U. after   10 cycles
 SCF Done:  E(RB3LYP) =  -495.850549513     A.U. after   10 cycles
 SCF Done:  E(RB3LYP) =  -495.850551467     A.U. after   10 cycles
 SCF Done:  E(RB3LYP) =  -495.850553489     A.U. after   10 cycles
 SCF Done:  E(RB3LYP) =  -495.850554350     A.U. after   10 cycles
 Optimization completed.
    -- Stationary point found.

                         Standard orientation:
 ---------------------------------------------------------------------
 Center     Atomic      Atomic             Coordinates (Angstroms)
 Number     Number       Type             X           Y           Z
 ---------------------------------------------------------------------
      1          1           0       -3.231454   -1.921189    0.940218
      2          6           0       -3.142405   -0.830889    0.919216
      3          1           0       -2.945095   -0.468499    1.932906
      4          1           0       -4.103998   -0.432017    0.581059
      5          6           0       -2.071806   -0.446337   -0.090714
      6          8           0       -2.123185   -0.811821   -1.260386
      7          7           0       -1.059602    0.334412    0.397288
      8          1           0       -1.026252    0.568114    1.380383
      9          6           0        0.045510    0.803501   -0.432884
     10          1           0       -0.140193    0.377359   -1.421868
     11          6           0        0.090168    2.331650   -0.512681
     12          1           0        0.291944    2.756794    0.475077
     13          1           0        0.889593    2.657777   -1.187642
     14          1           0       -0.862551    2.717813   -0.887253
     15          6           0        1.347268    0.254536    0.177296
     16          8           0        1.799806    0.717125    1.220514
     17          7           0        1.910413   -0.783839   -0.500199
     18          1           0        1.424084   -1.145191   -1.308849
     19          6           0        3.090165   -1.485617   -0.024393
     20          1           0        3.466798   -0.939926    0.841769
     21          1           0        2.850370   -2.512597    0.277226
     22          1           0        3.864719   -1.515953   -0.798706
 ---------------------------------------------------------------------

 The electronic state is 1-A.
 Alpha  occ. eigenvalues --  -19.11344 -19.10763 -14.36751 -14.36247 -10.28837
 Alpha  occ. eigenvalues --  -10.28623 -10.23305 -10.22071 -10.19293 -10.18145
 Alpha  occ. eigenvalues --   -1.03484  -1.02630  -0.92551  -0.92055  -0.77933
 Alpha  occ. eigenvalues --   -0.72880  -0.71349  -0.64066  -0.59136  -0.58483
 Alpha  occ. eigenvalues --   -0.53534  -0.48129  -0.47377  -0.46326  -0.45123
 Alpha  occ. eigenvalues --   -0.44561  -0.42133  -0.41612  -0.40664  -0.39659
 Alpha  occ. eigenvalues --   -0.39340  -0.37653  -0.36523  -0.36091  -0.35221
 Alpha  occ. eigenvalues --   -0.26781  -0.25650  -0.24893  -0.24050
 Alpha virt. eigenvalues --    0.01647   0.03973   0.07684   0.08061   0.12128
 Alpha virt. eigenvalues --    0.12462   0.13078   0.15338   0.16140   0.16439
 Alpha virt. eigenvalues --    0.16827   0.17523   0.17838   0.18167   0.20309

 Mulliken atomic charges:
              1
     1  H    0.185110
     2  C   -0.533609
     3  H    0.145961
     4  H    0.186672
     5  C    0.591816
     6  O   -0.515830
     7  N   -0.589573
     8  H    0.333788
     9  C   -0.050248
    10  H    0.173317
    11  C   -0.445516
    12  H    0.168974
    13  H    0.152872
    14  H    0.156514
    15  C    0.610913
    16  O   -0.531720
    17  N   -0.588996
    18  H    0.337669
    19  C   -0.313054
    20  H    0.204354
    21  H    0.160918
    22  H    0.159668
 Sum of Mulliken atomic charges =   0.00000

 Dipole moment (field-independent basis, Debye):
    X=              0.3644    Y=             -0.7650    Z=              0.3308  Tot=              0.9097
 Quadrupole moment (field-independent basis, Debye-Ang):
   XX=            -58.6686   YY=            -57.9162   ZZ=            -62.5042
   XY=             -7.0499   XZ=            -12.0891   YZ=             -2.9254

 Normal termination of Gaussian 09 at Fri Feb 10 22:21:49 2017.
