 Gaussian 09, Revision A.02,
 Gaussian 09:  EM64L-G09RevA.02 11-Jun-2009

 ----------------------------------------------------------------------
 # b3lyp/6-31G* Opt=(ModRedundant, maxcycles=1000, calcfc) geom=nocrowd
 ----------------------------------------------------------------------

 ------------------
 Phi Psi fixed scan
 ------------------
 Symbolic Z-matrix:
 Charge =  0 Multiplicity = 1

 SCF Done:  E(RB3LYP) =  -495.845235161     A.U. after   14 cycles

  Exact polarizability:   0.000   0.000   0.000   0.000   0.000   0.000
 Approx polarizability: 108.600   1.122 100.965   1.998  21.828 126.207

 SCF Done:  E(RB3LYP) =  -495.847748310     A.U. after   11 cycles
 SCF Done:  E(RB3LYP) =  -495.850291956     A.U. after   12 cycles
 SCF Done:  E(RB3LYP) =  -495.850665942     A.U. after   12 cycles
 SCF Done:  E(RB3LYP) =  -495.701556534     A.U. after   14 cycles
 SCF Done:  E(RB3LYP) =  -495.733249551     A.U. after   12 cycles
 SCF Done:  E(RB3LYP) =  -495.759984814     A.U. after   12 cycles
 SCF Done:  E(RB3LYP) =  -495.782244902     A.U. after   12 cycles
 SCF Done:  E(RB3LYP) =  -495.800493093     A.U. after   12 cycles
 SCF Done:  E(RB3LYP) =  -495.815186725     A.U. after   11 cycles
 SCF Done:  E(RB3LYP) =  -495.850647548     A.U. after   11 cycles
 SCF Done:  E(RB3LYP) =  -495.850787601     A.U. after   12 cycles
 SCF Done:  E(RB3LYP) =  -495.850911934     A.U. after   12 cycles
 SCF Done:  E(RB3LYP) =  -495.850956150     A.U. after   11 cycles
 SCF Done:  E(RB3LYP) =  -495.850977581     A.U. after   11 cycles
 SCF Done:  E(RB3LYP) =  -495.850987922     A.U. after   10 cycles
 SCF Done:  E(RB3LYP) =  -495.850989896     A.U. after    9 cycles
 SCF Done:  E(RB3LYP) =  -495.850989654     A.U. after   10 cycles
 SCF Done:  E(RB3LYP) =  -495.850990482     A.U. after   10 cycles
 SCF Done:  E(RB3LYP) =  -495.850990504     A.U. after    5 cycles
 Optimization completed.
    -- Stationary point found.

                         Standard orientation:
 ---------------------------------------------------------------------
 Center     Atomic      Atomic             Coordinates (Angstroms)
 Number     Number       Type             X           Y           Z
 ---------------------------------------------------------------------
      1          1           0       -3.242179   -1.973231    0.810216
      2          6           0       -3.174630   -0.881669    0.850708
      3          1           0       -2.978772   -0.573612    1.882400
      4          1           0       -4.145348   -0.483735    0.539263
      5          6           0       -2.116694   -0.419108   -0.139922
      6          8           0       -2.190261   -0.681054   -1.335722
      7          7           0       -1.096773    0.318811    0.396946
      8          1           0       -1.009318    0.412137    1.400474
      9          6           0        0.042966    0.772443   -0.390173
     10          1           0       -0.127268    0.386481   -1.398713
     11          6           0        0.141751    2.302745   -0.418845
     12          1           0        0.305985    2.689545    0.591696
     13          1           0        0.980745    2.624886   -1.046559
     14          1           0       -0.780937    2.730582   -0.822044
     15          6           0        1.308299    0.170286    0.241449
     16          8           0        1.595800    0.414554    1.410568
     17          7           0        2.044959   -0.637840   -0.568142
     18          1           0        1.697793   -0.829896   -1.497005
     19          6           0        3.253654   -1.309887   -0.121834
     20          1           0        3.457439   -0.971726    0.894962
     21          1           0        3.124445   -2.398737   -0.118111
     22          1           0        4.103725   -1.056342   -0.765258
 ---------------------------------------------------------------------

 The electronic state is 1-A.
 Alpha  occ. eigenvalues --  -19.11517 -19.10487 -14.37064 -14.35848 -10.28823
 Alpha  occ. eigenvalues --  -10.28549 -10.23320 -10.22272 -10.19020 -10.18319
 Alpha  occ. eigenvalues --   -1.03631  -1.02408  -0.92641  -0.91964  -0.77902
 Alpha  occ. eigenvalues --   -0.72780  -0.71407  -0.64121  -0.59248  -0.58313
 Alpha  occ. eigenvalues --   -0.53620  -0.48092  -0.47032  -0.46242  -0.45419
 Alpha  occ. eigenvalues --   -0.44449  -0.42250  -0.41700  -0.40703  -0.39542
 Alpha  occ. eigenvalues --   -0.39406  -0.37720  -0.36485  -0.36280  -0.34848
 Alpha  occ. eigenvalues --   -0.26625  -0.25916  -0.24732  -0.24008
 Alpha virt. eigenvalues --    0.01775   0.03935   0.07239   0.08592   0.11988
 Alpha virt. eigenvalues --    0.12626   0.13260   0.15403   0.16059   0.16369
 Alpha virt. eigenvalues --    0.16873   0.17291   0.17914   0.18179   0.20122

 Mulliken atomic charges:
              1
     1  H    0.183928
     2  C   -0.533360
     3  H    0.146677
     4  H    0.185785
     5  C    0.590691
     6  O   -0.514850
     7  N   -0.587275
     8  H    0.335542
     9  C   -0.048668
    10  H    0.170232
    11  C   -0.443386
    12  H    0.167537
    13  H    0.149117
    14  H    0.161660
    15  C    0.611428
    16  O   -0.536241
    17  N   -0.588755
    18  H    0.335273
    19  C   -0.313643
    20  H    0.205611
    21  H    0.162435
    22  H    0.160261
 Sum of Mulliken atomic charges =   0.00000

 Dipole moment (field-independent basis, Debye):
    X=              1.1986    Y=             -0.4552    Z=             -0.0624  Tot=              1.2837
 Quadrupole moment (field-independent basis, Debye-Ang):
   XX=            -56.7986   YY=            -57.7934   ZZ=            -63.4678
   XY=             -5.0935   XZ=            -13.0456   YZ=             -2.3720

 Normal termination of Gaussian 09 at Fri Feb 10 22:26:30 2017.
