 Gaussian 09, Revision A.02,
 Gaussian 09:  EM64L-G09RevA.02 11-Jun-2009

 ----------------------------------------------------------------------
 # b3lyp/6-31G* Opt=(ModRedundant, maxcycles=1000, calcfc) geom=nocrowd
 ----------------------------------------------------------------------

 ------------------
 Phi Psi fixed scan
 ------------------
 Symbolic Z-matrix:
 Charge =  0 Multiplicity = 1

 SCF Done:  E(RB3LYP) =  -495.840262095     A.U. after   15 cycles

  Exact polarizability:   0.000   0.000   0.000   0.000   0.000   0.000
 Approx polarizability: 116.959  -9.212 103.654  -0.596  14.309 113.860

 SCF Done:  E(RB3LYP) =  -495.843486969     A.U. after   12 cycles
 SCF Done:  E(RB3LYP) =  -495.847181894     A.U. after   13 cycles
 SCF Done:  E(RB3LYP) =  -495.848701826     A.U. after   14 cycles
 SCF Done:  E(RB3LYP) =  -495.849599222     A.U. after   13 cycles
 SCF Done:  E(RB3LYP) =  -495.849459698     A.U. after   13 cycles
 SCF Done:  E(RB3LYP) =  -495.849903466     A.U. after   12 cycles
 SCF Done:  E(RB3LYP) =  -495.850061731     A.U. after   12 cycles
 SCF Done:  E(RB3LYP) =  -495.849794458     A.U. after   12 cycles
 SCF Done:  E(RB3LYP) =  -495.850082212     A.U. after   12 cycles
 SCF Done:  E(RB3LYP) =  -495.850102073     A.U. after   11 cycles
 SCF Done:  E(RB3LYP) =  -495.850103406     A.U. after    8 cycles
 SCF Done:  E(RB3LYP) =  -495.850103782     A.U. after    7 cycles
 SCF Done:  E(RB3LYP) =  -495.850104400     A.U. after    9 cycles
 SCF Done:  E(RB3LYP) =  -495.850105708     A.U. after   10 cycles
 SCF Done:  E(RB3LYP) =  -495.850106064     A.U. after    9 cycles
 SCF Done:  E(RB3LYP) =  -495.850106067     A.U. after    7 cycles
 Optimization completed.
    -- Stationary point found.

                         Standard orientation:
 ---------------------------------------------------------------------
 Center     Atomic      Atomic             Coordinates (Angstroms)
 Number     Number       Type             X           Y           Z
 ---------------------------------------------------------------------
      1          1           0        4.278948   -0.704362   -0.065527
      2          6           0        3.275819   -1.087776   -0.265779
      3          1           0        3.163693   -2.030915    0.281877
      4          1           0        3.168747   -1.292394   -1.335416
      5          6           0        2.253663   -0.088868    0.253234
      6          8           0        2.421772    0.539844    1.290761
      7          7           0        1.138654    0.066753   -0.540291
      8          1           0        0.921643   -0.698637   -1.171722
      9          6           0       -0.048579    0.713425   -0.006096
     10          1           0        0.164655    0.943343    1.044882
     11          6           0       -0.352859    2.024651   -0.754359
     12          1           0       -0.563631    1.830250   -1.811502
     13          1           0       -1.211857    2.554490   -0.327469
     14          1           0        0.517661    2.683661   -0.691631
     15          6           0       -1.215813   -0.294292   -0.081520
     16          8           0       -1.073671   -1.405079   -0.586200
     17          7           0       -2.410649    0.162624    0.385238
     18          1           0       -2.430605    1.053854    0.860007
     19          6           0       -3.606635   -0.663235    0.421355
     20          1           0       -3.417759   -1.541776   -0.196230
     21          1           0       -3.841857   -0.991413    1.441486
     22          1           0       -4.464051   -0.113292    0.019120
 ---------------------------------------------------------------------

 The electronic state is 1-A.
 Alpha  occ. eigenvalues --  -19.12278 -19.10485 -14.37217 -14.34746 -10.29373
 Alpha  occ. eigenvalues --  -10.28077 -10.23339 -10.22542 -10.18994 -10.18498
 Alpha  occ. eigenvalues --   -1.04268  -1.02257  -0.92982  -0.91449  -0.77901
 Alpha  occ. eigenvalues --   -0.72709  -0.71082  -0.64469  -0.59407  -0.57177
 Alpha  occ. eigenvalues --   -0.53704  -0.47840  -0.46795  -0.46116  -0.45718
 Alpha  occ. eigenvalues --   -0.44144  -0.42771  -0.41867  -0.40432  -0.39941
 Alpha  occ. eigenvalues --   -0.39132  -0.37987  -0.37405  -0.36291  -0.34068
 Alpha  occ. eigenvalues --   -0.26518  -0.26158  -0.25237  -0.24087
 Alpha virt. eigenvalues --    0.02034   0.03171   0.06318   0.09990   0.11568
 Alpha virt. eigenvalues --    0.13343   0.14073   0.15118   0.15403   0.15696
 Alpha virt. eigenvalues --    0.16307   0.16783   0.17913   0.19035   0.19582

 Mulliken atomic charges:
              1
     1  H    0.183544
     2  C   -0.538345
     3  H    0.183534
     4  H    0.154529
     5  C    0.577815
     6  O   -0.505085
     7  N   -0.577732
     8  H    0.339407
     9  C   -0.072800
    10  H    0.190729
    11  C   -0.434446
    12  H    0.157119
    13  H    0.131824
    14  H    0.174755
    15  C    0.602758
    16  O   -0.526607
    17  N   -0.587733
    18  H    0.330248
    19  C   -0.311177
    20  H    0.205515
    21  H    0.162856
    22  H    0.159292
 Sum of Mulliken atomic charges =   0.00000

 Dipole moment (field-independent basis, Debye):
    X=             -3.0394    Y=              0.8521    Z=             -0.7764  Tot=              3.2507
 Quadrupole moment (field-independent basis, Debye-Ang):
   XX=            -53.1597   YY=            -60.7198   ZZ=            -62.3724
   XY=             -7.6557   XZ=             -9.2611   YZ=             -1.4498

 Normal termination of Gaussian 09 at Fri Feb 10 22:24:50 2017.
