 Gaussian 09, Revision A.02,
 Gaussian 09:  EM64L-G09RevA.02 11-Jun-2009

 ----------------------------------------------------------------------
 # b3lyp/6-31G* Opt=(ModRedundant, maxcycles=1000, calcfc) geom=nocrowd
 ----------------------------------------------------------------------

 ------------------
 Phi Psi fixed scan
 ------------------
 Symbolic Z-matrix:
 Charge =  0 Multiplicity = 1

 SCF Done:  E(RB3LYP) =  -495.834031613     A.U. after   16 cycles

  Exact polarizability:   0.000   0.000   0.000   0.000   0.000   0.000
 Approx polarizability: 112.433   0.104 110.166   3.452 -23.578 113.903

 SCF Done:  E(RB3LYP) =  -495.838001347     A.U. after   12 cycles
 SCF Done:  E(RB3LYP) =  -495.843334957     A.U. after   13 cycles
 SCF Done:  E(RB3LYP) =  -495.843156504     A.U. after   13 cycles
 SCF Done:  E(RB3LYP) =  -495.844033717     A.U. after   12 cycles
 SCF Done:  E(RB3LYP) =  -495.844474644     A.U. after   12 cycles
 SCF Done:  E(RB3LYP) =  -495.844951667     A.U. after   16 cycles
 SCF Done:  E(RB3LYP) =  -495.845048754     A.U. after   13 cycles
 SCF Done:  E(RB3LYP) =  -495.845271287     A.U. after   12 cycles
 SCF Done:  E(RB3LYP) =  -495.845442259     A.U. after   12 cycles
 SCF Done:  E(RB3LYP) =  -495.845499167     A.U. after   10 cycles
 SCF Done:  E(RB3LYP) =  -495.845521346     A.U. after   11 cycles
 SCF Done:  E(RB3LYP) =  -495.845530782     A.U. after   11 cycles
 SCF Done:  E(RB3LYP) =  -495.845533556     A.U. after   10 cycles
 SCF Done:  E(RB3LYP) =  -495.845534031     A.U. after    8 cycles
 SCF Done:  E(RB3LYP) =  -495.845534440     A.U. after    8 cycles
 SCF Done:  E(RB3LYP) =  -495.845535153     A.U. after    8 cycles
 SCF Done:  E(RB3LYP) =  -495.845537286     A.U. after    9 cycles
 SCF Done:  E(RB3LYP) =  -495.845538541     A.U. after   10 cycles
 SCF Done:  E(RB3LYP) =  -495.845538630     A.U. after    8 cycles
 Optimization completed.
    -- Stationary point found.

                         Standard orientation:
 ---------------------------------------------------------------------
 Center     Atomic      Atomic             Coordinates (Angstroms)
 Number     Number       Type             X           Y           Z
 ---------------------------------------------------------------------
      1          1           0        3.654483   -1.794559    0.260469
      2          6           0        3.212425   -1.092496   -0.450751
      3          1           0        2.835213   -1.646135   -1.316585
      4          1           0        4.009397   -0.418475   -0.784710
      5          6           0        2.143724   -0.280448    0.266570
      6          8           0        2.314446    0.173396    1.386310
      7          7           0        0.965318   -0.110985   -0.440217
      8          1           0        1.021838   -0.294910   -1.435457
      9          6           0       -0.035060    0.874598   -0.022306
     10          1           0        0.335904    1.296544    0.914434
     11          6           0       -0.206147    1.991904   -1.061105
     12          1           0       -0.537988    1.587671   -2.025926
     13          1           0       -0.961722    2.702311   -0.714787
     14          1           0        0.738354    2.525622   -1.209178
     15          6           0       -1.410288    0.266258    0.311089
     16          8           0       -2.189314    0.866539    1.039704
     17          7           0       -1.740610   -0.869227   -0.377649
     18          1           0       -0.964051   -1.416640   -0.725032
     19          6           0       -2.994053   -1.561875   -0.122227
     20          1           0       -3.739598   -0.815641    0.155600
     21          1           0       -3.319047   -2.083863   -1.027315
     22          1           0       -2.910398   -2.287566    0.697822
 ---------------------------------------------------------------------

 The electronic state is 1-A.
 Alpha  occ. eigenvalues --  -19.11894 -19.10881 -14.37063 -14.36036 -10.29676
 Alpha  occ. eigenvalues --  -10.28105 -10.23294 -10.21761 -10.20087 -10.19244
 Alpha  occ. eigenvalues --   -1.03948  -1.02796  -0.93425  -0.91391  -0.78309
 Alpha  occ. eigenvalues --   -0.73521  -0.70936  -0.64590  -0.59347  -0.57798
 Alpha  occ. eigenvalues --   -0.53401  -0.48906  -0.48182  -0.45782  -0.45222
 Alpha  occ. eigenvalues --   -0.43816  -0.42626  -0.41965  -0.41123  -0.40350
 Alpha  occ. eigenvalues --   -0.39241  -0.38244  -0.37445  -0.36058  -0.34781
 Alpha  occ. eigenvalues --   -0.28109  -0.25735  -0.25384  -0.23742
 Alpha virt. eigenvalues --    0.01664   0.02544   0.05500   0.10129   0.11530
 Alpha virt. eigenvalues --    0.12176   0.13289   0.14647   0.15006   0.15764
 Alpha virt. eigenvalues --    0.16376   0.17361   0.17753   0.18215   0.19644

 Mulliken atomic charges:
              1
     1  H    0.192964
     2  C   -0.540592
     3  H    0.144792
     4  H    0.186792
     5  C    0.585167
     6  O   -0.482940
     7  N   -0.616839
     8  H    0.319244
     9  C   -0.051229
    10  H    0.208849
    11  C   -0.460135
    12  H    0.142123
    13  H    0.187431
    14  H    0.159711
    15  C    0.598279
    16  O   -0.514171
    17  N   -0.587569
    18  H    0.324591
    19  C   -0.307809
    20  H    0.198876
    21  H    0.151498
    22  H    0.160968
 Sum of Mulliken atomic charges =   0.00000

 Dipole moment (field-independent basis, Debye):
    X=              1.0036    Y=             -2.7111    Z=             -5.0750  Tot=              5.8406
 Quadrupole moment (field-independent basis, Debye-Ang):
   XX=            -62.3593   YY=            -56.0626   ZZ=            -63.7933
   XY=              3.1105   XZ=             -3.0264   YZ=             -1.6511

 Normal termination of Gaussian 09 at Fri Feb 10 22:51:18 2017.
