 Gaussian 09, Revision A.02,
 Gaussian 09:  EM64L-G09RevA.02 11-Jun-2009

 ----------------------------------------------------------------------
 # b3lyp/6-31G* Opt=(ModRedundant, maxcycles=1000, calcfc) geom=nocrowd
 ----------------------------------------------------------------------

 ------------------
 Phi Psi fixed scan
 ------------------
 Symbolic Z-matrix:
 Charge =  0 Multiplicity = 1

 SCF Done:  E(RB3LYP) =  -495.844252127     A.U. after   14 cycles

  Exact polarizability:   0.000   0.000   0.000   0.000   0.000   0.000
 Approx polarizability: 111.704  -2.977  89.096  -3.875   4.859 133.191

 SCF Done:  E(RB3LYP) =  -495.846993233     A.U. after   12 cycles
 SCF Done:  E(RB3LYP) =  -495.850058623     A.U. after   12 cycles
 SCF Done:  E(RB3LYP) =  -495.851059500     A.U. after   13 cycles
 SCF Done:  E(RB3LYP) =  -495.849351732     A.U. after   12 cycles
 SCF Done:  E(RB3LYP) =  -495.851080357     A.U. after   12 cycles
 SCF Done:  E(RB3LYP) =  -495.851396589     A.U. after   12 cycles
 SCF Done:  E(RB3LYP) =  -495.851197105     A.U. after   12 cycles
 SCF Done:  E(RB3LYP) =  -495.851454824     A.U. after   12 cycles
 SCF Done:  E(RB3LYP) =  -495.851507722     A.U. after   11 cycles
 SCF Done:  E(RB3LYP) =  -495.851525936     A.U. after   10 cycles
 SCF Done:  E(RB3LYP) =  -495.851542140     A.U. after   11 cycles
 SCF Done:  E(RB3LYP) =  -495.851555352     A.U. after   10 cycles
 SCF Done:  E(RB3LYP) =  -495.851572886     A.U. after    9 cycles
 SCF Done:  E(RB3LYP) =  -495.851602512     A.U. after   11 cycles
 SCF Done:  E(RB3LYP) =  -495.851606377     A.U. after   10 cycles
 SCF Done:  E(RB3LYP) =  -495.851610501     A.U. after   10 cycles
 SCF Done:  E(RB3LYP) =  -495.851610809     A.U. after    7 cycles
 SCF Done:  E(RB3LYP) =  -495.851610836     A.U. after    7 cycles
 Optimization completed.
    -- Stationary point found.

                         Standard orientation:
 ---------------------------------------------------------------------
 Center     Atomic      Atomic             Coordinates (Angstroms)
 Number     Number       Type             X           Y           Z
 ---------------------------------------------------------------------
      1          1           0        4.238997   -0.630488   -0.218699
      2          6           0        3.255623   -1.079795   -0.383171
      3          1           0        3.264033   -2.067264    0.090669
      4          1           0        3.091835   -1.203675   -1.457919
      5          6           0        2.203555   -0.216698    0.296601
      6          8           0        2.315434    0.145789    1.462341
      7          7           0        1.142637    0.141134   -0.495683
      8          1           0        0.976768   -0.367783   -1.356866
      9          6           0       -0.046175    0.763066    0.062556
     10          1           0        0.122371    0.834638    1.141723
     11          6           0       -0.280436    2.168439   -0.519322
     12          1           0       -0.423050    2.113579   -1.603800
     13          1           0       -1.169773    2.634156   -0.079473
     14          1           0        0.586233    2.802770   -0.311679
     15          6           0       -1.247312   -0.146121   -0.248610
     16          8           0       -1.282753   -0.813195   -1.279804
     17          7           0       -2.257447   -0.108084    0.661767
     18          1           0       -2.114173    0.416246    1.513281
     19          6           0       -3.489826   -0.862971    0.507377
     20          1           0       -3.460078   -1.338807   -0.473516
     21          1           0       -3.580898   -1.638238    1.277347
     22          1           0       -4.362610   -0.202753    0.563458
 ---------------------------------------------------------------------

 The electronic state is 1-A.
 Alpha  occ. eigenvalues --  -19.12018 -19.10292 -14.37285 -14.35128 -10.29175
 Alpha  occ. eigenvalues --  -10.28185 -10.23329 -10.22504 -10.18736 -10.18646
 Alpha  occ. eigenvalues --   -1.04038  -1.02178  -0.92943  -0.91607  -0.77920
 Alpha  occ. eigenvalues --   -0.72718  -0.71320  -0.64239  -0.59497  -0.57640
 Alpha  occ. eigenvalues --   -0.53683  -0.48046  -0.46630  -0.46168  -0.45731
 Alpha  occ. eigenvalues --   -0.44292  -0.42683  -0.41829  -0.40611  -0.39810
 Alpha  occ. eigenvalues --   -0.39133  -0.37888  -0.36935  -0.36269  -0.34330
 Alpha  occ. eigenvalues --   -0.26507  -0.26265  -0.24865  -0.23934
 Alpha virt. eigenvalues --    0.01998   0.03493   0.06735   0.09486   0.11791
 Alpha virt. eigenvalues --    0.12871   0.13499   0.15435   0.15687   0.16081
 Alpha virt. eigenvalues --    0.16603   0.17326   0.17447   0.18971   0.19406

 Mulliken atomic charges:
              1
     1  H    0.184340
     2  C   -0.534174
     3  H    0.182573
     4  H    0.149846
     5  C    0.585377
     6  O   -0.511797
     7  N   -0.583513
     8  H    0.339194
     9  C   -0.062088
    10  H    0.174584
    11  C   -0.435585
    12  H    0.161353
    13  H    0.142377
    14  H    0.170094
    15  C    0.608699
    16  O   -0.531932
    17  N   -0.587885
    18  H    0.331722
    19  C   -0.312912
    20  H    0.206138
    21  H    0.163432
    22  H    0.160156
 Sum of Mulliken atomic charges =   0.00000

 Dipole moment (field-independent basis, Debye):
    X=             -2.3868    Y=              0.4357    Z=              0.0605  Tot=              2.4270
 Quadrupole moment (field-independent basis, Debye-Ang):
   XX=            -54.2583   YY=            -58.5836   ZZ=            -63.9699
   XY=             -3.8395   XZ=            -12.6394   YZ=             -1.4167

 Normal termination of Gaussian 09 at Fri Feb 10 22:23:31 2017.
