 Gaussian 09, Revision A.02,
 Gaussian 09:  EM64L-G09RevA.02 11-Jun-2009

 ----------------------------------------------------------------------
 # b3lyp/6-31G* Opt=(ModRedundant, maxcycles=1000, calcfc) geom=nocrowd
 ----------------------------------------------------------------------

 ------------------
 Phi Psi fixed scan
 ------------------
 Symbolic Z-matrix:
 Charge =  0 Multiplicity = 1

 SCF Done:  E(RB3LYP) =  -495.842959541     A.U. after   15 cycles

  Exact polarizability:   0.000   0.000   0.000   0.000   0.000   0.000
 Approx polarizability: 114.347 -13.872 111.994  12.080 -10.486 110.239

 SCF Done:  E(RB3LYP) =  -495.845986031     A.U. after   12 cycles
 SCF Done:  E(RB3LYP) =  -495.849159973     A.U. after   12 cycles
 SCF Done:  E(RB3LYP) =  -495.849668968     A.U. after   12 cycles
 SCF Done:  E(RB3LYP) =  -495.782939944     A.U. after   14 cycles
 SCF Done:  E(RB3LYP) =  -495.802736940     A.U. after   12 cycles
 SCF Done:  E(RB3LYP) =  -495.818223809     A.U. after   12 cycles
 SCF Done:  E(RB3LYP) =  -495.829968402     A.U. after   12 cycles
 SCF Done:  E(RB3LYP) =  -495.838589680     A.U. after   12 cycles
 SCF Done:  E(RB3LYP) =  -495.844773528     A.U. after   12 cycles
 SCF Done:  E(RB3LYP) =  -495.840818788     A.U. after   13 cycles
 SCF Done:  E(RB3LYP) =  -495.849863662     A.U. after   14 cycles
 SCF Done:  E(RB3LYP) =  -495.849917638     A.U. after   11 cycles
 SCF Done:  E(RB3LYP) =  -495.849942743     A.U. after   10 cycles
 SCF Done:  E(RB3LYP) =  -495.849960055     A.U. after   10 cycles
 SCF Done:  E(RB3LYP) =  -495.849969264     A.U. after   10 cycles
 SCF Done:  E(RB3LYP) =  -495.849969849     A.U. after    9 cycles
 SCF Done:  E(RB3LYP) =  -495.849969952     A.U. after    7 cycles
 SCF Done:  E(RB3LYP) =  -495.849970010     A.U. after    7 cycles
 SCF Done:  E(RB3LYP) =  -495.849970017     A.U. after    7 cycles
 Optimization completed.
    -- Stationary point found.

                         Standard orientation:
 ---------------------------------------------------------------------
 Center     Atomic      Atomic             Coordinates (Angstroms)
 Number     Number       Type             X           Y           Z
 ---------------------------------------------------------------------
      1          1           0        3.459890   -1.769748   -0.702581
      2          6           0        3.167629   -0.726903   -0.849841
      3          1           0        2.925884   -0.564606   -1.904988
      4          1           0        4.030679   -0.104396   -0.588979
      5          6           0        2.022806   -0.398968    0.095691
      6          8           0        2.032866   -0.741161    1.273796
      7          7           0        0.973816    0.285365   -0.460181
      8          1           0        1.048517    0.587349   -1.422692
      9          6           0       -0.080311    0.901062    0.348099
     10          1           0        0.157112    0.619554    1.379266
     11          6           0       -0.091046    2.421617    0.203381
     12          1           0       -0.302176    2.716865   -0.829725
     13          1           0       -0.876310    2.855795    0.827700
     14          1           0        0.875747    2.835421    0.506515
     15          6           0       -1.454280    0.293908   -0.019785
     16          8           0       -2.378963    0.970274   -0.454622
     17          7           0       -1.525649   -1.051875    0.185967
     18          1           0       -0.708327   -1.517600    0.557878
     19          6           0       -2.714366   -1.833279   -0.099012
     20          1           0       -3.477223   -1.144827   -0.465523
     21          1           0       -2.518850   -2.593145   -0.865654
     22          1           0       -3.085925   -2.332609    0.803683
 ---------------------------------------------------------------------

 The electronic state is 1-A.
 Alpha  occ. eigenvalues --  -19.11654 -19.11060 -14.36908 -14.35834 -10.29551
 Alpha  occ. eigenvalues --  -10.28206 -10.23370 -10.21626 -10.19981 -10.18129
 Alpha  occ. eigenvalues --   -1.03750  -1.02781  -0.93150  -0.91398  -0.78087
 Alpha  occ. eigenvalues --   -0.73245  -0.71161  -0.63962  -0.59499  -0.57875
 Alpha  occ. eigenvalues --   -0.53351  -0.48610  -0.48178  -0.46140  -0.45053
 Alpha  occ. eigenvalues --   -0.44374  -0.42115  -0.41951  -0.40373  -0.39628
 Alpha  occ. eigenvalues --   -0.38799  -0.37664  -0.37333  -0.36075  -0.35631
 Alpha  occ. eigenvalues --   -0.27487  -0.25651  -0.24956  -0.23882
 Alpha virt. eigenvalues --    0.01685   0.02991   0.07118   0.09399   0.11618
 Alpha virt. eigenvalues --    0.12460   0.12797   0.14901   0.15931   0.16107
 Alpha virt. eigenvalues --    0.16835   0.17361   0.17624   0.18695   0.19687

 Mulliken atomic charges:
              1
     1  H    0.188071
     2  C   -0.536702
     3  H    0.148084
     4  H    0.188246
     5  C    0.588458
     6  O   -0.515635
     7  N   -0.586036
     8  H    0.326385
     9  C   -0.077251
    10  H    0.195623
    11  C   -0.439367
    12  H    0.154815
    13  H    0.171630
    14  H    0.147122
    15  C    0.604594
    16  O   -0.520259
    17  N   -0.584868
    18  H    0.341976
    19  C   -0.310315
    20  H    0.201404
    21  H    0.155082
    22  H    0.158942
 Sum of Mulliken atomic charges =   0.00000

 Dipole moment (field-independent basis, Debye):
    X=              1.5854    Y=             -1.1047    Z=             -1.9902  Tot=              2.7739
 Quadrupole moment (field-independent basis, Debye-Ang):
   XX=            -63.4919   YY=            -57.2413   ZZ=            -61.0102
   XY=              8.2446   XZ=             -9.0716   YZ=              2.3398

 Normal termination of Gaussian 09 at Fri Feb 10 22:44:43 2017.
