 Gaussian 09, Revision A.02,
 Gaussian 09:  EM64L-G09RevA.02 11-Jun-2009

 ----------------------------------------------------------------------
 # b3lyp/6-31G* Opt=(ModRedundant, maxcycles=1000, calcfc) geom=nocrowd
 ----------------------------------------------------------------------

 ------------------
 Phi Psi fixed scan
 ------------------
 Symbolic Z-matrix:
 Charge =  0 Multiplicity = 1

 SCF Done:  E(RB3LYP) =  -495.842313814     A.U. after   15 cycles

  Exact polarizability:   0.000   0.000   0.000   0.000   0.000   0.000
 Approx polarizability: 117.207 -10.448 113.540   5.884  10.237 106.672

 SCF Done:  E(RB3LYP) =  -495.845863357     A.U. after   12 cycles
 SCF Done:  E(RB3LYP) =  -495.849184176     A.U. after   12 cycles
 SCF Done:  E(RB3LYP) =  -495.849695262     A.U. after   12 cycles
 SCF Done:  E(RB3LYP) =  -495.844030402     A.U. after   15 cycles
 SCF Done:  E(RB3LYP) =  -495.849811068     A.U. after   13 cycles
 SCF Done:  E(RB3LYP) =  -495.850091160     A.U. after   12 cycles
 SCF Done:  E(RB3LYP) =  -495.850113828     A.U. after   10 cycles
 SCF Done:  E(RB3LYP) =  -495.850108202     A.U. after   11 cycles
 SCF Done:  E(RB3LYP) =  -495.850118463     A.U. after   11 cycles
 SCF Done:  E(RB3LYP) =  -495.850123059     A.U. after   10 cycles
 SCF Done:  E(RB3LYP) =  -495.850126974     A.U. after   10 cycles
 SCF Done:  E(RB3LYP) =  -495.850127923     A.U. after   10 cycles
 SCF Done:  E(RB3LYP) =  -495.850128259     A.U. after   10 cycles
 SCF Done:  E(RB3LYP) =  -495.850128272     A.U. after    9 cycles
 Optimization completed.
    -- Stationary point found.

                         Standard orientation:
 ---------------------------------------------------------------------
 Center     Atomic      Atomic             Coordinates (Angstroms)
 Number     Number       Type             X           Y           Z
 ---------------------------------------------------------------------
      1          1           0        3.459927   -1.894336   -0.180464
      2          6           0        3.163890   -0.945406   -0.635836
      3          1           0        2.872021   -1.121355   -1.676185
      4          1           0        4.041635   -0.290387   -0.622665
      5          6           0        2.069127   -0.315194    0.212726
      6          8           0        2.167860   -0.211716    1.426518
      7          7           0        0.959115    0.115119   -0.483692
      8          1           0        1.017572    0.137552   -1.493970
      9          6           0       -0.082658    0.932109    0.136878
     10          1           0        0.204663    1.000811    1.192098
     11          6           0       -0.142765    2.338115   -0.468252
     12          1           0       -0.334145    2.295674   -1.548127
     13          1           0       -0.958895    2.898354   -0.008255
     14          1           0        0.801612    2.865418   -0.302029
     15          6           0       -1.479510    0.272093    0.116481
     16          8           0       -2.483181    0.933170    0.359901
     17          7           0       -1.497873   -1.058781   -0.166329
     18          1           0       -0.605593   -1.516567   -0.286317
     19          6           0       -2.712707   -1.850389   -0.114342
     20          1           0       -3.549031   -1.159068   -0.000265
     21          1           0       -2.842355   -2.426894   -1.037373
     22          1           0       -2.705794   -2.543174    0.736416
 ---------------------------------------------------------------------

 The electronic state is 1-A.
 Alpha  occ. eigenvalues --  -19.11894 -19.10643 -14.37222 -14.35950 -10.29803
 Alpha  occ. eigenvalues --  -10.28157 -10.23442 -10.21695 -10.20217 -10.18356
 Alpha  occ. eigenvalues --   -1.04005  -1.02632  -0.93546  -0.91342  -0.78152
 Alpha  occ. eigenvalues --   -0.73412  -0.71184  -0.64198  -0.59655  -0.57891
 Alpha  occ. eigenvalues --   -0.53687  -0.48928  -0.48318  -0.45771  -0.45319
 Alpha  occ. eigenvalues --   -0.44182  -0.42284  -0.41944  -0.40624  -0.40106
 Alpha  occ. eigenvalues --   -0.38934  -0.38432  -0.36991  -0.36174  -0.34809
 Alpha  occ. eigenvalues --   -0.27935  -0.25806  -0.25111  -0.23750
 Alpha virt. eigenvalues --    0.01774   0.03115   0.06234   0.09890   0.11602
 Alpha virt. eigenvalues --    0.12617   0.13178   0.14633   0.15287   0.16113
 Alpha virt. eigenvalues --    0.16663   0.17268   0.17483   0.18461   0.19471

 Mulliken atomic charges:
              1
     1  H    0.189994
     2  C   -0.538818
     3  H    0.144269
     4  H    0.190399
     5  C    0.583711
     6  O   -0.491034
     7  N   -0.623832
     8  H    0.323892
     9  C   -0.052691
    10  H    0.213555
    11  C   -0.452258
    12  H    0.138692
    13  H    0.192842
    14  H    0.152625
    15  C    0.603505
    16  O   -0.526786
    17  N   -0.588735
    18  H    0.333755
    19  C   -0.309922
    20  H    0.203227
    21  H    0.153102
    22  H    0.160507
 Sum of Mulliken atomic charges =   0.00000

 Dipole moment (field-independent basis, Debye):
    X=              1.7736    Y=             -2.1820    Z=             -3.8878  Tot=              4.7981
 Quadrupole moment (field-independent basis, Debye-Ang):
   XX=            -65.2210   YY=            -55.9504   ZZ=            -62.0140
   XY=              5.7503   XZ=             -5.6512   YZ=              0.3726

 Normal termination of Gaussian 09 at Fri Feb 10 22:29:16 2017.
