 Gaussian 09, Revision A.02,
 Gaussian 09:  EM64L-G09RevA.02 11-Jun-2009

 ----------------------------------------------------------------------
 # b3lyp/6-31G* Opt=(ModRedundant, maxcycles=1000, calcfc) geom=nocrowd
 ----------------------------------------------------------------------

 ------------------
 Phi Psi fixed scan
 ------------------
 Symbolic Z-matrix:
 Charge =  0 Multiplicity = 1

 SCF Done:  E(RB3LYP) =  -495.836551886     A.U. after   14 cycles

  Exact polarizability:   0.000   0.000   0.000   0.000   0.000   0.000
 Approx polarizability: 119.977 -10.881 106.399   2.730  10.252 109.169

 SCF Done:  E(RB3LYP) =  -495.840446243     A.U. after   12 cycles
 SCF Done:  E(RB3LYP) =  -495.844893883     A.U. after   12 cycles
 SCF Done:  E(RB3LYP) =  -495.846499832     A.U. after   15 cycles
 SCF Done:  E(RB3LYP) =  -495.847750718     A.U. after   13 cycles
 SCF Done:  E(RB3LYP) =  -495.847409768     A.U. after   14 cycles
 SCF Done:  E(RB3LYP) =  -495.848158414     A.U. after   13 cycles
 SCF Done:  E(RB3LYP) =  -495.848050138     A.U. after   13 cycles
 SCF Done:  E(RB3LYP) =  -495.848230155     A.U. after   12 cycles
 SCF Done:  E(RB3LYP) =  -495.848326687     A.U. after   12 cycles
 SCF Done:  E(RB3LYP) =  -495.848333181     A.U. after   10 cycles
 SCF Done:  E(RB3LYP) =  -495.848334752     A.U. after   10 cycles
 SCF Done:  E(RB3LYP) =  -495.848335408     A.U. after    8 cycles
 SCF Done:  E(RB3LYP) =  -495.848336191     A.U. after    9 cycles
 SCF Done:  E(RB3LYP) =  -495.848337275     A.U. after   10 cycles
 SCF Done:  E(RB3LYP) =  -495.848338612     A.U. after   10 cycles
 SCF Done:  E(RB3LYP) =  -495.848339443     A.U. after   10 cycles
 SCF Done:  E(RB3LYP) =  -495.848339722     A.U. after   10 cycles
 SCF Done:  E(RB3LYP) =  -495.848339827     A.U. after    7 cycles
 SCF Done:  E(RB3LYP) =  -495.848339905     A.U. after    7 cycles
 Optimization completed on the basis of negligible forces.
    -- Stationary point found.

                         Standard orientation:
 ---------------------------------------------------------------------
 Center     Atomic      Atomic             Coordinates (Angstroms)
 Number     Number       Type             X           Y           Z
 ---------------------------------------------------------------------
      1          1           0        4.267462   -0.801191   -0.033902
      2          6           0        3.262326   -1.084316   -0.351743
      3          1           0        3.039290   -2.075599    0.061465
      4          1           0        3.226150   -1.153622   -1.443644
      5          6           0        2.266576   -0.076407    0.199223
      6          8           0        2.471723    0.561091    1.223748
      7          7           0        1.120749    0.075090   -0.554611
      8          1           0        0.890392   -0.709027   -1.156696
      9          6           0       -0.049699    0.704552    0.041015
     10          1           0        0.202439    0.895236    1.092371
     11          6           0       -0.359326    2.049374   -0.639671
     12          1           0       -0.655187    1.908502   -1.684701
     13          1           0       -1.153589    2.606108   -0.127742
     14          1           0        0.539888    2.671025   -0.616648
     15          6           0       -1.209686   -0.315577   -0.000103
     16          8           0       -1.008439   -1.498560   -0.261620
     17          7           0       -2.455130    0.190844    0.218012
     18          1           0       -2.542215    1.158549    0.490507
     19          6           0       -3.638754   -0.650706    0.284129
     20          1           0       -3.378901   -1.619372   -0.143736
     21          1           0       -3.974825   -0.799514    1.318060
     22          1           0       -4.455130   -0.204408   -0.293269
 ---------------------------------------------------------------------

 The electronic state is 1-A.
 Alpha  occ. eigenvalues --  -19.12056 -19.10670 -14.37129 -14.34766 -10.29311
 Alpha  occ. eigenvalues --  -10.28102 -10.23359 -10.22475 -10.19125 -10.18501
 Alpha  occ. eigenvalues --   -1.04139  -1.02372  -0.92873  -0.91453  -0.77918
 Alpha  occ. eigenvalues --   -0.72716  -0.70996  -0.64648  -0.59256  -0.57158
 Alpha  occ. eigenvalues --   -0.53709  -0.47707  -0.47123  -0.45966  -0.45562
 Alpha  occ. eigenvalues --   -0.44142  -0.42713  -0.41883  -0.40231  -0.39850
 Alpha  occ. eigenvalues --   -0.39219  -0.37984  -0.37710  -0.36367  -0.34032
 Alpha  occ. eigenvalues --   -0.26366  -0.25899  -0.25398  -0.24238
 Alpha virt. eigenvalues --    0.02093   0.03111   0.06320   0.09993   0.11497
 Alpha virt. eigenvalues --    0.13356   0.14221   0.14532   0.15421   0.15959
 Alpha virt. eigenvalues --    0.16372   0.16501   0.17917   0.18981   0.20088

 Mulliken atomic charges:
              1
     1  H    0.183702
     2  C   -0.543125
     3  H    0.184594
     4  H    0.158201
     5  C    0.577747
     6  O   -0.501362
     7  N   -0.574560
     8  H    0.336122
     9  C   -0.063848
    10  H    0.199070
    11  C   -0.444757
    12  H    0.156875
    13  H    0.129556
    14  H    0.178100
    15  C    0.594082
    16  O   -0.525736
    17  N   -0.590360
    18  H    0.330214
    19  C   -0.310801
    20  H    0.205286
    21  H    0.162496
    22  H    0.158504
 Sum of Mulliken atomic charges =   0.00000

 Dipole moment (field-independent basis, Debye):
    X=             -3.2001    Y=              1.0237    Z=             -1.3927  Tot=              3.6371
 Quadrupole moment (field-independent basis, Debye-Ang):
   XX=            -52.9574   YY=            -61.0130   ZZ=            -62.0542
   XY=             -8.0556   XZ=             -7.9129   YZ=             -0.6397

 Normal termination of Gaussian 09 at Fri Feb 10 22:25:30 2017.
