 Gaussian 09, Revision A.02,
 Gaussian 09:  EM64L-G09RevA.02 11-Jun-2009

 ----------------------------------------------------------------------
 # b3lyp/6-31G* Opt=(ModRedundant, maxcycles=1000, calcfc) geom=nocrowd
 ----------------------------------------------------------------------

 ------------------
 Phi Psi fixed scan
 ------------------
 Symbolic Z-matrix:
 Charge =  0 Multiplicity = 1

 SCF Done:  E(RB3LYP) =  -495.832194641     A.U. after   15 cycles

  Exact polarizability:   0.000   0.000   0.000   0.000   0.000   0.000
 Approx polarizability: 114.401   3.022  91.082  14.085   4.524 132.115

 SCF Done:  E(RB3LYP) =  -495.836188664     A.U. after   12 cycles
 SCF Done:  E(RB3LYP) =  -495.840606080     A.U. after   12 cycles
 SCF Done:  E(RB3LYP) =  -495.841517017     A.U. after   12 cycles
 SCF Done:  E(RB3LYP) =  -495.840622360     A.U. after   12 cycles
 SCF Done:  E(RB3LYP) =  -495.841533403     A.U. after   12 cycles
 SCF Done:  E(RB3LYP) =  -495.841689794     A.U. after   12 cycles
 SCF Done:  E(RB3LYP) =  -495.826776908     A.U. after   13 cycles
 SCF Done:  E(RB3LYP) =  -495.841755194     A.U. after   13 cycles
 SCF Done:  E(RB3LYP) =  -495.841837184     A.U. after   11 cycles
 SCF Done:  E(RB3LYP) =  -495.841872040     A.U. after   11 cycles
 SCF Done:  E(RB3LYP) =  -495.841896735     A.U. after   11 cycles
 SCF Done:  E(RB3LYP) =  -495.841928185     A.U. after   11 cycles
 SCF Done:  E(RB3LYP) =  -495.841930809     A.U. after   11 cycles
 SCF Done:  E(RB3LYP) =  -495.841931603     A.U. after    8 cycles
 SCF Done:  E(RB3LYP) =  -495.841931402     A.U. after    8 cycles
 SCF Done:  E(RB3LYP) =  -495.841931371     A.U. after    7 cycles
 SCF Done:  E(RB3LYP) =  -495.841931264     A.U. after    6 cycles
 SCF Done:  E(RB3LYP) =  -495.841931070     A.U. after    7 cycles
 Optimization completed.
    -- Stationary point found.

                         Standard orientation:
 ---------------------------------------------------------------------
 Center     Atomic      Atomic             Coordinates (Angstroms)
 Number     Number       Type             X           Y           Z
 ---------------------------------------------------------------------
      1          1           0        4.025065   -0.953408   -0.846441
      2          6           0        3.019818   -1.335493   -0.650118
      3          1           0        3.119325   -2.186081    0.032824
      4          1           0        2.579635   -1.687865   -1.588575
      5          6           0        2.208931   -0.246923    0.038172
      6          8           0        2.647355    0.390206    0.984948
      7          7           0        0.958508   -0.028082   -0.490584
      8          1           0        0.619266   -0.660635   -1.202323
      9          6           0       -0.018115    0.844931    0.161512
     10          1           0        0.424303    1.117434    1.121046
     11          6           0       -0.281077    2.117167   -0.657148
     12          1           0       -0.608498    1.896292   -1.681555
     13          1           0       -1.043628    2.742013   -0.178612
     14          1           0        0.643413    2.697339   -0.732635
     15          6           0       -1.279588    0.025964    0.502381
     16          8           0       -1.496665   -0.390219    1.630519
     17          7           0       -2.089015   -0.270284   -0.567388
     18          1           0       -1.979066    0.272629   -1.412426
     19          6           0       -3.336321   -0.999731   -0.394955
     20          1           0       -3.224690   -1.654916    0.469749
     21          1           0       -4.186331   -0.329040   -0.212269
     22          1           0       -3.542663   -1.600593   -1.285770
 ---------------------------------------------------------------------

 The electronic state is 1-A.
 Alpha  occ. eigenvalues --  -19.11579 -19.10688 -14.36942 -14.36318 -10.28846
 Alpha  occ. eigenvalues --  -10.28687 -10.23337 -10.22400 -10.19480 -10.19243
 Alpha  occ. eigenvalues --   -1.03659  -1.02663  -0.93006  -0.91789  -0.78264
 Alpha  occ. eigenvalues --   -0.73028  -0.71171  -0.65101  -0.58909  -0.58723
 Alpha  occ. eigenvalues --   -0.53801  -0.48567  -0.47385  -0.46337  -0.44809
 Alpha  occ. eigenvalues --   -0.44139  -0.42697  -0.42028  -0.41077  -0.39902
 Alpha  occ. eigenvalues --   -0.39500  -0.38392  -0.36893  -0.36424  -0.35043
 Alpha  occ. eigenvalues --   -0.27263  -0.26108  -0.24639  -0.23761
 Alpha virt. eigenvalues --    0.01164   0.03915   0.05453   0.08217   0.11211
 Alpha virt. eigenvalues --    0.12668   0.13681   0.14664   0.15330   0.15809
 Alpha virt. eigenvalues --    0.16471   0.17051   0.18241   0.18523   0.19289

 Mulliken atomic charges:
              1
     1  H    0.187280
     2  C   -0.537191
     3  H    0.189209
     4  H    0.141118
     5  C    0.597602
     6  O   -0.498370
     7  N   -0.597471
     8  H    0.319366
     9  C   -0.044360
    10  H    0.211088
    11  C   -0.457915
    12  H    0.127813
    13  H    0.161780
    14  H    0.178136
    15  C    0.578780
    16  O   -0.497955
    17  N   -0.593964
    18  H    0.324505
    19  C   -0.306832
    20  H    0.202337
    21  H    0.161955
    22  H    0.153088
 Sum of Mulliken atomic charges =   0.00000

 Dipole moment (field-independent basis, Debye):
    X=             -2.3134    Y=             -0.6079    Z=             -5.5978  Tot=              6.0875
 Quadrupole moment (field-independent basis, Debye-Ang):
   XX=            -59.6179   YY=            -56.6157   ZZ=            -64.2764
   XY=             -4.5823   XZ=              0.2381   YZ=              1.2145

 Normal termination of Gaussian 09 at Fri Feb 10 22:31:37 2017.
