 Gaussian 09, Revision A.02,
 Gaussian 09:  EM64L-G09RevA.02 11-Jun-2009

 ----------------------------------------------------------------------
 # b3lyp/6-31G* Opt=(ModRedundant, maxcycles=1000, calcfc) geom=nocrowd
 ----------------------------------------------------------------------

 ------------------
 Phi Psi fixed scan
 ------------------
 Symbolic Z-matrix:
 Charge =  0 Multiplicity = 1

 SCF Done:  E(RB3LYP) =  -495.833459533     A.U. after   16 cycles

  Exact polarizability:   0.000   0.000   0.000   0.000   0.000   0.000
 Approx polarizability: 112.326   5.719  99.911   8.845  20.066 124.606

 SCF Done:  E(RB3LYP) =  -495.836882424     A.U. after   12 cycles
 SCF Done:  E(RB3LYP) =  -495.840597212     A.U. after   12 cycles
 SCF Done:  E(RB3LYP) =  -495.841265548     A.U. after   13 cycles
 SCF Done:  E(RB3LYP) =  -495.718952008     A.U. after   14 cycles
 SCF Done:  E(RB3LYP) =  -495.747975117     A.U. after   12 cycles
 SCF Done:  E(RB3LYP) =  -495.772065775     A.U. after   12 cycles
 SCF Done:  E(RB3LYP) =  -495.791784383     A.U. after   12 cycles
 SCF Done:  E(RB3LYP) =  -495.807645970     A.U. after   12 cycles
 SCF Done:  E(RB3LYP) =  -495.820113348     A.U. after   12 cycles
 SCF Done:  E(RB3LYP) =  -495.841440250     A.U. after   11 cycles
 SCF Done:  E(RB3LYP) =  -495.841466531     A.U. after   10 cycles
 SCF Done:  E(RB3LYP) =  -495.841493750     A.U. after   11 cycles
 SCF Done:  E(RB3LYP) =  -495.841526165     A.U. after   11 cycles
 SCF Done:  E(RB3LYP) =  -495.841550493     A.U. after   12 cycles
 SCF Done:  E(RB3LYP) =  -495.841557978     A.U. after   10 cycles
 SCF Done:  E(RB3LYP) =  -495.841562545     A.U. after   10 cycles
 SCF Done:  E(RB3LYP) =  -495.841563668     A.U. after    9 cycles
 SCF Done:  E(RB3LYP) =  -495.841563807     A.U. after    7 cycles
 SCF Done:  E(RB3LYP) =  -495.841563947     A.U. after    7 cycles
 Optimization completed.
    -- Stationary point found.

                         Standard orientation:
 ---------------------------------------------------------------------
 Center     Atomic      Atomic             Coordinates (Angstroms)
 Number     Number       Type             X           Y           Z
 ---------------------------------------------------------------------
      1          1           0        4.010460   -1.151155   -0.591173
      2          6           0        2.986937   -1.464033   -0.369322
      3          1           0        3.035706   -2.191840    0.448065
      4          1           0        2.561865   -1.954182   -1.251273
      5          6           0        2.196130   -0.250887    0.099161
      6          8           0        2.640149    0.535916    0.922660
      7          7           0        0.957506   -0.101037   -0.482215
      8          1           0        0.601040   -0.870888   -1.031930
      9          6           0       -0.011188    0.876330    0.019504
     10          1           0        0.428786    1.300185    0.923316
     11          6           0       -0.267109    2.000171   -0.997188
     12          1           0       -0.640259    1.615420   -1.955049
     13          1           0       -0.999610    2.715951   -0.607605
     14          1           0        0.667563    2.532668   -1.196319
     15          6           0       -1.304970    0.172573    0.469986
     16          8           0       -1.694940    0.198942    1.627023
     17          7           0       -1.955469   -0.535844   -0.515013
     18          1           0       -1.754578   -0.295699   -1.476906
     19          6           0       -3.234930   -1.179002   -0.249207
     20          1           0       -3.211852   -1.577151    0.765955
     21          1           0       -4.076900   -0.477941   -0.322694
     22          1           0       -3.387371   -1.996973   -0.958854
 ---------------------------------------------------------------------

 The electronic state is 1-A.
 Alpha  occ. eigenvalues --  -19.11888 -19.10820 -14.37066 -14.36332 -10.29005
 Alpha  occ. eigenvalues --  -10.28777 -10.23341 -10.22518 -10.19342 -10.19340
 Alpha  occ. eigenvalues --   -1.03878  -1.02803  -0.93251  -0.91733  -0.78275
 Alpha  occ. eigenvalues --   -0.73056  -0.71293  -0.64934  -0.58942  -0.58686
 Alpha  occ. eigenvalues --   -0.53983  -0.48637  -0.47414  -0.46290  -0.44774
 Alpha  occ. eigenvalues --   -0.44232  -0.42912  -0.42051  -0.41192  -0.40020
 Alpha  occ. eigenvalues --   -0.39677  -0.38323  -0.36745  -0.36614  -0.34946
 Alpha  occ. eigenvalues --   -0.27509  -0.26469  -0.24729  -0.23812
 Alpha virt. eigenvalues --    0.01124   0.03501   0.05004   0.08421   0.11172
 Alpha virt. eigenvalues --    0.12612   0.13822   0.14755   0.15265   0.15502
 Alpha virt. eigenvalues --    0.16534   0.16746   0.18022   0.18831   0.19268

 Mulliken atomic charges:
              1
     1  H    0.188285
     2  C   -0.537912
     3  H    0.187789
     4  H    0.141978
     5  C    0.593939
     6  O   -0.496741
     7  N   -0.598771
     8  H    0.318320
     9  C   -0.055999
    10  H    0.211702
    11  C   -0.450233
    12  H    0.127080
    13  H    0.164746
    14  H    0.176971
    15  C    0.587468
    16  O   -0.496988
    17  N   -0.594671
    18  H    0.321822
    19  C   -0.304127
    20  H    0.199833
    21  H    0.162893
    22  H    0.152617
 Sum of Mulliken atomic charges =   0.00000

 Dipole moment (field-independent basis, Debye):
    X=             -1.9677    Y=             -2.1993    Z=             -5.3072  Tot=              6.0725
 Quadrupole moment (field-independent basis, Debye-Ang):
   XX=            -61.3812   YY=            -56.2887   ZZ=            -64.1232
   XY=             -3.1411   XZ=              1.5996   YZ=             -0.8096

 Normal termination of Gaussian 09 at Fri Feb 10 22:35:46 2017.
