 Gaussian 09, Revision A.02,
 Gaussian 09:  EM64L-G09RevA.02 11-Jun-2009

 ----------------------------------------------------------------------
 # b3lyp/6-31G* Opt=(ModRedundant, maxcycles=1000, calcfc) geom=nocrowd
 ----------------------------------------------------------------------

 ------------------
 Phi Psi fixed scan
 ------------------
 Symbolic Z-matrix:
 Charge =  0 Multiplicity = 1

 SCF Done:  E(RB3LYP) =  -495.843000238     A.U. after   15 cycles

  Exact polarizability:   0.000   0.000   0.000   0.000   0.000   0.000
 Approx polarizability: 117.490 -12.947 112.803   8.551   3.448 106.763

 SCF Done:  E(RB3LYP) =  -495.845996356     A.U. after   11 cycles
 SCF Done:  E(RB3LYP) =  -495.849161107     A.U. after   12 cycles
 SCF Done:  E(RB3LYP) =  -495.849688357     A.U. after   12 cycles
 SCF Done:  E(RB3LYP) =  -495.697354779     A.U. after   14 cycles
 SCF Done:  E(RB3LYP) =  -495.728544559     A.U. after   12 cycles
 SCF Done:  E(RB3LYP) =  -495.755251245     A.U. after   12 cycles
 SCF Done:  E(RB3LYP) =  -495.777900628     A.U. after   12 cycles
 SCF Done:  E(RB3LYP) =  -495.796869756     A.U. after   12 cycles
 SCF Done:  E(RB3LYP) =  -495.812498451     A.U. after   12 cycles
 SCF Done:  E(RB3LYP) =  -495.847031226     A.U. after   13 cycles
 SCF Done:  E(RB3LYP) =  -495.849905347     A.U. after   13 cycles
 SCF Done:  E(RB3LYP) =  -495.849951269     A.U. after   11 cycles
 SCF Done:  E(RB3LYP) =  -495.849977352     A.U. after   10 cycles
 SCF Done:  E(RB3LYP) =  -495.849994585     A.U. after   10 cycles
 SCF Done:  E(RB3LYP) =  -495.849999326     A.U. after   10 cycles
 SCF Done:  E(RB3LYP) =  -495.850000003     A.U. after    8 cycles
 SCF Done:  E(RB3LYP) =  -495.850000337     A.U. after    9 cycles
 SCF Done:  E(RB3LYP) =  -495.850000394     A.U. after    8 cycles
 SCF Done:  E(RB3LYP) =  -495.850000440     A.U. after    6 cycles
 Optimization completed.
    -- Stationary point found.

                         Standard orientation:
 ---------------------------------------------------------------------
 Center     Atomic      Atomic             Coordinates (Angstroms)
 Number     Number       Type             X           Y           Z
 ---------------------------------------------------------------------
      1          1           0        3.481469   -1.847691   -0.324808
      2          6           0        3.158787   -0.878503   -0.713850
      3          1           0        2.863936   -0.989912   -1.762234
      4          1           0        4.019660   -0.202833   -0.662481
      5          6           0        2.053778   -0.334165    0.179455
      6          8           0        2.132224   -0.361549    1.400021
      7          7           0        0.963614    0.182812   -0.483001
      8          1           0        1.012610    0.269002   -1.489899
      9          6           0       -0.090457    0.931991    0.198706
     10          1           0        0.172111    0.877730    1.261725
     11          6           0       -0.129085    2.395141   -0.247910
     12          1           0       -0.299460    2.474200   -1.328731
     13          1           0       -0.950219    2.912796    0.251252
     14          1           0        0.816465    2.889608   -0.005371
     15          6           0       -1.482080    0.272921    0.055850
     16          8           0       -2.508657    0.941874    0.099272
     17          7           0       -1.467889   -1.082936   -0.065041
     18          1           0       -0.568650   -1.542141   -0.072042
     19          6           0       -2.679442   -1.880462   -0.093098
     20          1           0       -3.524454   -1.190370   -0.092616
     21          1           0       -2.722196   -2.502526   -0.994958
     22          1           0       -2.748898   -2.531143    0.787185
 ---------------------------------------------------------------------

 The electronic state is 1-A.
 Alpha  occ. eigenvalues --  -19.11806 -19.10803 -14.37156 -14.35942 -10.29736
 Alpha  occ. eigenvalues --  -10.28218 -10.23456 -10.21696 -10.20166 -10.18144
 Alpha  occ. eigenvalues --   -1.03930  -1.02717  -0.93468  -0.91360  -0.78117
 Alpha  occ. eigenvalues --   -0.73340  -0.71201  -0.64090  -0.59665  -0.57937
 Alpha  occ. eigenvalues --   -0.53661  -0.48845  -0.48290  -0.45805  -0.45293
 Alpha  occ. eigenvalues --   -0.44316  -0.42172  -0.42022  -0.40520  -0.39781
 Alpha  occ. eigenvalues --   -0.38866  -0.38357  -0.36975  -0.36173  -0.35088
 Alpha  occ. eigenvalues --   -0.27803  -0.25745  -0.25076  -0.23800
 Alpha virt. eigenvalues --    0.01871   0.02873   0.06571   0.09658   0.11626
 Alpha virt. eigenvalues --    0.12646   0.12997   0.14635   0.15573   0.16088
 Alpha virt. eigenvalues --    0.16730   0.17291   0.17471   0.18524   0.19436

 Mulliken atomic charges:
              1
     1  H    0.189004
     2  C   -0.538898
     3  H    0.145635
     4  H    0.189985
     5  C    0.582069
     6  O   -0.496174
     7  N   -0.613987
     8  H    0.324335
     9  C   -0.061867
    10  H    0.211258
    11  C   -0.445603
    12  H    0.140671
    13  H    0.188300
    14  H    0.150385
    15  C    0.602021
    16  O   -0.524806
    17  N   -0.585417
    18  H    0.336249
    19  C   -0.310147
    20  H    0.203173
    21  H    0.153464
    22  H    0.160348
 Sum of Mulliken atomic charges =   0.00000

 Dipole moment (field-independent basis, Debye):
    X=              1.7808    Y=             -1.9211    Z=             -3.3633  Tot=              4.2631
 Quadrupole moment (field-independent basis, Debye-Ang):
   XX=            -65.3953   YY=            -56.1810   ZZ=            -61.5600
   XY=              6.5241   XZ=             -6.9129   YZ=              1.1205

 Normal termination of Gaussian 09 at Fri Feb 10 22:40:44 2017.
