 Gaussian 09, Revision A.02,
 Gaussian 09:  EM64L-G09RevA.02 11-Jun-2009

 ----------------------------------------------------------------------
 # b3lyp/6-31G* Opt=(ModRedundant, maxcycles=1000, calcfc) geom=nocrowd
 ----------------------------------------------------------------------

 ------------------
 Phi Psi fixed scan
 ------------------
 Symbolic Z-matrix:
 Charge =  0 Multiplicity = 1

 SCF Done:  E(RB3LYP) =  -495.839751699     A.U. after   16 cycles

  Exact polarizability:   0.000   0.000   0.000   0.000   0.000   0.000
 Approx polarizability: 115.921  -7.320 113.582   3.818  16.248 107.953

 SCF Done:  E(RB3LYP) =  -495.843351974     A.U. after   12 cycles
 SCF Done:  E(RB3LYP) =  -495.847533159     A.U. after   12 cycles
 SCF Done:  E(RB3LYP) =  -495.848744869     A.U. after   13 cycles
 SCF Done:  E(RB3LYP) =  -495.845153899     A.U. after   13 cycles
 SCF Done:  E(RB3LYP) =  -495.848808013     A.U. after   13 cycles
 SCF Done:  E(RB3LYP) =  -495.849086225     A.U. after   12 cycles
 SCF Done:  E(RB3LYP) =  -495.848755341     A.U. after   13 cycles
 SCF Done:  E(RB3LYP) =  -495.849337769     A.U. after   13 cycles
 SCF Done:  E(RB3LYP) =  -495.849409380     A.U. after   11 cycles
 SCF Done:  E(RB3LYP) =  -495.849418628     A.U. after    9 cycles
 SCF Done:  E(RB3LYP) =  -495.849428990     A.U. after   10 cycles
 SCF Done:  E(RB3LYP) =  -495.849438147     A.U. after   10 cycles
 SCF Done:  E(RB3LYP) =  -495.849442557     A.U. after   10 cycles
 SCF Done:  E(RB3LYP) =  -495.849446448     A.U. after   10 cycles
 SCF Done:  E(RB3LYP) =  -495.849454596     A.U. after   10 cycles
 SCF Done:  E(RB3LYP) =  -495.849456818     A.U. after   10 cycles
 SCF Done:  E(RB3LYP) =  -495.849458047     A.U. after    9 cycles
 SCF Done:  E(RB3LYP) =  -495.849458537     A.U. after    9 cycles
 Optimization completed on the basis of negligible forces.
    -- Stationary point found.

                         Standard orientation:
 ---------------------------------------------------------------------
 Center     Atomic      Atomic             Coordinates (Angstroms)
 Number     Number       Type             X           Y           Z
 ---------------------------------------------------------------------
      1          1           0        3.557846   -1.844909   -0.000302
      2          6           0        3.179202   -0.993124   -0.570798
      3          1           0        2.844735   -1.337375   -1.554805
      4          1           0        4.012288   -0.294793   -0.708518
      5          6           0        2.088740   -0.307909    0.239891
      6          8           0        2.205839   -0.092806    1.436346
      7          7           0        0.958059    0.039545   -0.474238
      8          1           0        1.024857    0.005772   -1.484337
      9          6           0       -0.067845    0.920025    0.084910
     10          1           0        0.247117    1.109154    1.116141
     11          6           0       -0.155570    2.250996   -0.671605
     12          1           0       -0.388574    2.088888   -1.732076
     13          1           0       -0.953439    2.860068   -0.241616
     14          1           0        0.792190    2.793907   -0.602092
     15          6           0       -1.465092    0.272551    0.182848
     16          8           0       -2.415505    0.925297    0.599340
     17          7           0       -1.559577   -1.012934   -0.256736
     18          1           0       -0.689858   -1.492849   -0.443310
     19          6           0       -2.785456   -1.781033   -0.133721
     20          1           0       -3.602295   -1.075197    0.023965
     21          1           0       -2.970424   -2.354538   -1.048262
     22          1           0       -2.750364   -2.473375    0.717388
 ---------------------------------------------------------------------

 The electronic state is 1-A.
 Alpha  occ. eigenvalues --  -19.11977 -19.10593 -14.37203 -14.35950 -10.29820
 Alpha  occ. eigenvalues --  -10.28097 -10.23399 -10.21695 -10.20214 -10.18656
 Alpha  occ. eigenvalues --   -1.04048  -1.02607  -0.93550  -0.91332  -0.78202
 Alpha  occ. eigenvalues --   -0.73471  -0.71120  -0.64320  -0.59565  -0.57822
 Alpha  occ. eigenvalues --   -0.53631  -0.48954  -0.48296  -0.45799  -0.45309
 Alpha  occ. eigenvalues --   -0.43994  -0.42404  -0.41905  -0.40788  -0.40326
 Alpha  occ. eigenvalues --   -0.39002  -0.38415  -0.37154  -0.36170  -0.34621
 Alpha  occ. eigenvalues --   -0.28046  -0.25841  -0.25176  -0.23716
 Alpha virt. eigenvalues --    0.01679   0.03133   0.05980   0.10123   0.11597
 Alpha virt. eigenvalues --    0.12468   0.13302   0.14509   0.15097   0.15961
 Alpha virt. eigenvalues --    0.16621   0.17458   0.17577   0.18326   0.19506

 Mulliken atomic charges:
              1
     1  H    0.191578
     2  C   -0.540188
     3  H    0.144970
     4  H    0.188914
     5  C    0.584164
     6  O   -0.487185
     7  N   -0.625343
     8  H    0.323334
     9  C   -0.048038
    10  H    0.212574
    11  C   -0.456767
    12  H    0.138902
    13  H    0.193679
    14  H    0.154800
    15  C    0.602577
    16  O   -0.525846
    17  N   -0.590213
    18  H    0.332007
    19  C   -0.309283
    20  H    0.202075
    21  H    0.152476
    22  H    0.160810
 Sum of Mulliken atomic charges =   0.00000

 Dipole moment (field-independent basis, Debye):
    X=              1.6557    Y=             -2.3513    Z=             -4.3258  Tot=              5.1945
 Quadrupole moment (field-independent basis, Debye-Ang):
   XX=            -64.4950   YY=            -55.9015   ZZ=            -62.5957
   XY=              5.0910   XZ=             -4.6006   YZ=             -0.3818

 Normal termination of Gaussian 09 at Fri Feb 10 22:21:06 2017.
