 Gaussian 09, Revision A.02,
 Gaussian 09:  EM64L-G09RevA.02 11-Jun-2009

 ----------------------------------------------------------------------
 # b3lyp/6-31G* Opt=(ModRedundant, maxcycles=1000, calcfc) geom=nocrowd
 ----------------------------------------------------------------------

 ------------------
 Phi Psi fixed scan
 ------------------
 Symbolic Z-matrix:
 Charge =  0 Multiplicity = 1

 SCF Done:  E(RB3LYP) =  -495.830090505     A.U. after   15 cycles

  Exact polarizability:   0.000   0.000   0.000   0.000   0.000   0.000
 Approx polarizability: 122.558  11.255 105.594  14.249   6.261 110.064

 SCF Done:  E(RB3LYP) =  -495.835235460     A.U. after   12 cycles
 SCF Done:  E(RB3LYP) =  -495.841147296     A.U. after   13 cycles
 SCF Done:  E(RB3LYP) =  -495.842530155     A.U. after   14 cycles
 SCF Done:  E(RB3LYP) =  -495.842553555     A.U. after   13 cycles
 SCF Done:  E(RB3LYP) =  -495.843108186     A.U. after   12 cycles
 SCF Done:  E(RB3LYP) =  -495.843039249     A.U. after   13 cycles
 SCF Done:  E(RB3LYP) =  -495.843257410     A.U. after   12 cycles
 SCF Done:  E(RB3LYP) =  -495.843359921     A.U. after   12 cycles
 SCF Done:  E(RB3LYP) =  -495.843363860     A.U. after   11 cycles
 SCF Done:  E(RB3LYP) =  -495.843366093     A.U. after    8 cycles
 SCF Done:  E(RB3LYP) =  -495.843371328     A.U. after   10 cycles
 SCF Done:  E(RB3LYP) =  -495.843379600     A.U. after   10 cycles
 SCF Done:  E(RB3LYP) =  -495.843390118     A.U. after   11 cycles
 SCF Done:  E(RB3LYP) =  -495.843392012     A.U. after   10 cycles
 SCF Done:  E(RB3LYP) =  -495.843393332     A.U. after   10 cycles
 SCF Done:  E(RB3LYP) =  -495.843395001     A.U. after   10 cycles
 SCF Done:  E(RB3LYP) =  -495.843395109     A.U. after    9 cycles
 SCF Done:  E(RB3LYP) =  -495.843395159     A.U. after    7 cycles
 Optimization completed.
    -- Stationary point found.

                         Standard orientation:
 ---------------------------------------------------------------------
 Center     Atomic      Atomic             Coordinates (Angstroms)
 Number     Number       Type             X           Y           Z
 ---------------------------------------------------------------------
      1          1           0       -4.214456   -0.681285    0.663792
      2          6           0       -3.186819   -1.034166    0.773930
      3          1           0       -3.134294   -2.049780    0.364682
      4          1           0       -2.927833   -1.075508    1.837009
      5          6           0       -2.267246   -0.129881   -0.031572
      6          8           0       -2.602447    0.364056   -1.098989
      7          7           0       -1.033286    0.099141    0.533419
      8          1           0       -0.766254   -0.482520    1.316390
      9          6           0        0.043157    0.707285   -0.244981
     10          1           0       -0.339618    0.762276   -1.269416
     11          6           0        0.344651    2.131404    0.240406
     12          1           0        0.670713    2.148703    1.287907
     13          1           0        1.109733    2.614047   -0.380169
     14          1           0       -0.566497    2.731794    0.169450
     15          6           0        1.225942   -0.285944   -0.288904
     16          8           0        1.065320   -1.417581   -0.729547
     17          7           0        2.409099    0.146981    0.238641
     18          1           0        2.486817    1.105967    0.541019
     19          6           0        3.609876   -0.671203    0.224318
     20          1           0        3.317669   -1.673041   -0.092537
     21          1           0        4.356767   -0.279143   -0.477176
     22          1           0        4.056211   -0.721119    1.223731
 ---------------------------------------------------------------------

 The electronic state is 1-A.
 Alpha  occ. eigenvalues --  -19.11103 -19.10624 -14.36898 -14.35758 -10.28791
 Alpha  occ. eigenvalues --  -10.28353 -10.23332 -10.22260 -10.19318 -10.18860
 Alpha  occ. eigenvalues --   -1.03454  -1.02438  -0.92501  -0.91840  -0.78101
 Alpha  occ. eigenvalues --   -0.72875  -0.70909  -0.65059  -0.58844  -0.58270
 Alpha  occ. eigenvalues --   -0.53722  -0.48141  -0.47342  -0.45988  -0.45037
 Alpha  occ. eigenvalues --   -0.44118  -0.42472  -0.41943  -0.40112  -0.39556
 Alpha  occ. eigenvalues --   -0.39017  -0.38790  -0.37665  -0.36309  -0.34317
 Alpha  occ. eigenvalues --   -0.26251  -0.25493  -0.24545  -0.24418
 Alpha virt. eigenvalues --    0.01554   0.03810   0.07108   0.08643   0.11395
 Alpha virt. eigenvalues --    0.13086   0.14070   0.14797   0.14916   0.15817
 Alpha virt. eigenvalues --    0.16238   0.16410   0.18061   0.18780   0.19252

 Mulliken atomic charges:
              1
     1  H    0.185745
     2  C   -0.541996
     3  H    0.190054
     4  H    0.147316
     5  C    0.599313
     6  O   -0.501760
     7  N   -0.582210
     8  H    0.325109
     9  C   -0.026945
    10  H    0.208329
    11  C   -0.476177
    12  H    0.141799
    13  H    0.147967
    14  H    0.181702
    15  C    0.560201
    16  O   -0.509598
    17  N   -0.592882
    18  H    0.332508
    19  C   -0.312418
    20  H    0.206849
    21  H    0.160790
    22  H    0.156303
 Sum of Mulliken atomic charges =   0.00000

 Dipole moment (field-independent basis, Debye):
    X=              3.0649    Y=              1.4683    Z=              3.9122  Tot=              5.1822
 Quadrupole moment (field-independent basis, Debye-Ang):
   XX=            -54.7467   YY=            -60.5537   ZZ=            -61.6182
   XY=              6.9890   XZ=             -4.4763   YZ=             -2.3120

 Normal termination of Gaussian 09 at Fri Feb 10 22:30:18 2017.
