 Gaussian 09, Revision A.02,
 Gaussian 09:  EM64L-G09RevA.02 11-Jun-2009

 ----------------------------------------------------------------------
 # b3lyp/6-31G* Opt=(ModRedundant, maxcycles=1000, calcfc) geom=nocrowd
 ----------------------------------------------------------------------

 ------------------
 Phi Psi fixed scan
 ------------------
 Symbolic Z-matrix:
 Charge =  0 Multiplicity = 1

 SCF Done:  E(RB3LYP) =  -495.830307561     A.U. after   16 cycles

  Exact polarizability:   0.000   0.000   0.000   0.000   0.000   0.000
 Approx polarizability: 117.514  -4.341  97.190  16.625 -11.034 123.568

 SCF Done:  E(RB3LYP) =  -495.835002288     A.U. after   13 cycles
 SCF Done:  E(RB3LYP) =  -495.840389523     A.U. after   13 cycles
 SCF Done:  E(RB3LYP) =  -495.841599527     A.U. after   15 cycles
 SCF Done:  E(RB3LYP) =  -495.841012529     A.U. after   12 cycles
 SCF Done:  E(RB3LYP) =  -495.841643219     A.U. after   12 cycles
 SCF Done:  E(RB3LYP) =  -495.841867908     A.U. after   12 cycles
 SCF Done:  E(RB3LYP) =  -495.839538647     A.U. after   13 cycles
 SCF Done:  E(RB3LYP) =  -495.841999423     A.U. after   13 cycles
 SCF Done:  E(RB3LYP) =  -495.842088836     A.U. after   12 cycles
 SCF Done:  E(RB3LYP) =  -495.842099536     A.U. after   11 cycles
 SCF Done:  E(RB3LYP) =  -495.842104119     A.U. after   10 cycles
 SCF Done:  E(RB3LYP) =  -495.842108748     A.U. after   10 cycles
 SCF Done:  E(RB3LYP) =  -495.842112110     A.U. after   10 cycles
 SCF Done:  E(RB3LYP) =  -495.842116404     A.U. after   11 cycles
 SCF Done:  E(RB3LYP) =  -495.842118489     A.U. after   10 cycles
 SCF Done:  E(RB3LYP) =  -495.842118540     A.U. after   11 cycles
 SCF Done:  E(RB3LYP) =  -495.842120470     A.U. after   10 cycles
 SCF Done:  E(RB3LYP) =  -495.842121613     A.U. after    9 cycles
 SCF Done:  E(RB3LYP) =  -495.842121722     A.U. after    7 cycles
 Optimization completed.
    -- Stationary point found.

                         Standard orientation:
 ---------------------------------------------------------------------
 Center     Atomic      Atomic             Coordinates (Angstroms)
 Number     Number       Type             X           Y           Z
 ---------------------------------------------------------------------
      1          1           0        4.082990   -0.735532   -0.940951
      2          6           0        3.074921   -1.149348   -0.857107
      3          1           0        3.155936   -2.114542   -0.345209
      4          1           0        2.669718   -1.318458   -1.860095
      5          6           0        2.230426   -0.213111   -0.005261
      6          8           0        2.644804    0.269429    1.038812
      7          7           0        0.975182    0.052017   -0.499128
      8          1           0        0.664723   -0.443698   -1.323543
      9          6           0       -0.026729    0.778988    0.278507
     10          1           0        0.407838    0.892067    1.273786
     11          6           0       -0.305615    2.167572   -0.312688
     12          1           0       -0.612759    2.119783   -1.366005
     13          1           0       -1.084174    2.690731    0.254274
     14          1           0        0.608781    2.766750   -0.273051
     15          6           0       -1.257561   -0.133840    0.466287
     16          8           0       -1.316721   -0.938996    1.384591
     17          7           0       -2.219048   -0.040269   -0.506532
     18          1           0       -2.181629    0.738574   -1.147690
     19          6           0       -3.444152   -0.821695   -0.455436
     20          1           0       -3.277762   -1.646527    0.238276
     21          1           0       -4.293851   -0.226728   -0.096399
     22          1           0       -3.685146   -1.219509   -1.446825
 ---------------------------------------------------------------------

 The electronic state is 1-A.
 Alpha  occ. eigenvalues --  -19.11265 -19.10619 -14.36869 -14.36240 -10.28740
 Alpha  occ. eigenvalues --  -10.28595 -10.23338 -10.22284 -10.19505 -10.19141
 Alpha  occ. eigenvalues --   -1.03476  -1.02554  -0.92763  -0.91858  -0.78234
 Alpha  occ. eigenvalues --   -0.72997  -0.71045  -0.65172  -0.58909  -0.58661
 Alpha  occ. eigenvalues --   -0.53713  -0.48462  -0.47364  -0.46297  -0.44885
 Alpha  occ. eigenvalues --   -0.44079  -0.42555  -0.42004  -0.40761  -0.39795
 Alpha  occ. eigenvalues --   -0.39320  -0.38480  -0.37171  -0.36262  -0.34920
 Alpha  occ. eigenvalues --   -0.26948  -0.25785  -0.24581  -0.23822
 Alpha virt. eigenvalues --    0.01279   0.04065   0.06030   0.08220   0.11288
 Alpha virt. eigenvalues --    0.12772   0.13739   0.14454   0.15531   0.16090
 Alpha virt. eigenvalues --    0.16293   0.17088   0.18001   0.18460   0.19418

 Mulliken atomic charges:
              1
     1  H    0.186639
     2  C   -0.537703
     3  H    0.190163
     4  H    0.141532
     5  C    0.600584
     6  O   -0.499631
     7  N   -0.594463
     8  H    0.320475
     9  C   -0.033937
    10  H    0.210290
    11  C   -0.466246
    12  H    0.130556
    13  H    0.158945
    14  H    0.179100
    15  C    0.570091
    16  O   -0.500307
    17  N   -0.593434
    18  H    0.327113
    19  C   -0.310494
    20  H    0.205750
    21  H    0.160661
    22  H    0.154317
 Sum of Mulliken atomic charges =   0.00000

 Dipole moment (field-independent basis, Debye):
    X=             -2.6033    Y=              0.8243    Z=             -5.3110  Tot=              5.9718
 Quadrupole moment (field-independent basis, Debye-Ang):
   XX=            -57.8563   YY=            -58.2063   ZZ=            -63.1321
   XY=             -5.5012   XZ=             -1.7380   YZ=              2.7651

 Normal termination of Gaussian 09 at Fri Feb 10 22:33:33 2017.
