 Gaussian 09, Revision A.02,
 Gaussian 09:  EM64L-G09RevA.02 11-Jun-2009

 ----------------------------------------------------------------------
 # b3lyp/6-31G* Opt=(ModRedundant, maxcycles=1000, calcfc) geom=nocrowd
 ----------------------------------------------------------------------

 ------------------
 Phi Psi fixed scan
 ------------------
 Symbolic Z-matrix:
 Charge =  0 Multiplicity = 1

 SCF Done:  E(RB3LYP) =  -495.832730219     A.U. after   15 cycles

  Exact polarizability:   0.000   0.000   0.000   0.000   0.000   0.000
 Approx polarizability: 122.390 -11.811 107.258   6.852   5.101 107.103

 SCF Done:  E(RB3LYP) =  -495.837516242     A.U. after   12 cycles
 SCF Done:  E(RB3LYP) =  -495.842949254     A.U. after   12 cycles
 SCF Done:  E(RB3LYP) =  -495.844648087     A.U. after   12 cycles
 SCF Done:  E(RB3LYP) =  -495.845714516     A.U. after   15 cycles
 SCF Done:  E(RB3LYP) =  -495.781188768     A.U. after   15 cycles
 SCF Done:  E(RB3LYP) =  -495.845760328     A.U. after   15 cycles
 SCF Done:  E(RB3LYP) =  -495.846032353     A.U. after   12 cycles
 SCF Done:  E(RB3LYP) =  -495.816932230     A.U. after   13 cycles
 SCF Done:  E(RB3LYP) =  -495.846128854     A.U. after   13 cycles
 SCF Done:  E(RB3LYP) =  -495.846464463     A.U. after   10 cycles
 SCF Done:  E(RB3LYP) =  -495.846477548     A.U. after   11 cycles
 SCF Done:  E(RB3LYP) =  -495.846495264     A.U. after   12 cycles
 SCF Done:  E(RB3LYP) =  -495.846503972     A.U. after   11 cycles
 SCF Done:  E(RB3LYP) =  -495.846505756     A.U. after    9 cycles
 SCF Done:  E(RB3LYP) =  -495.846507551     A.U. after   10 cycles
 SCF Done:  E(RB3LYP) =  -495.846509721     A.U. after   10 cycles
 SCF Done:  E(RB3LYP) =  -495.846509563     A.U. after   10 cycles
 SCF Done:  E(RB3LYP) =  -495.846510615     A.U. after   10 cycles
 SCF Done:  E(RB3LYP) =  -495.846510709     A.U. after    7 cycles
 Optimization completed on the basis of negligible forces.
    -- Stationary point found.

                         Standard orientation:
 ---------------------------------------------------------------------
 Center     Atomic      Atomic             Coordinates (Angstroms)
 Number     Number       Type             X           Y           Z
 ---------------------------------------------------------------------
      1          1           0        4.261706   -0.807182   -0.178787
      2          6           0        3.246185   -1.071757   -0.478628
      3          1           0        3.026261   -2.076845   -0.098470
      4          1           0        3.179139   -1.097974   -1.571150
      5          6           0        2.273403   -0.080017    0.138143
      6          8           0        2.519198    0.534499    1.167089
      7          7           0        1.094967    0.085757   -0.561291
      8          1           0        0.855866   -0.675066   -1.186925
      9          6           0       -0.050471    0.698865    0.103077
     10          1           0        0.246818    0.836347    1.151157
     11          6           0       -0.361395    2.080812   -0.492634
     12          1           0       -0.714735    2.007501   -1.527107
     13          1           0       -1.107505    2.627625    0.098156
     14          1           0        0.552866    2.680206   -0.485027
     15          6           0       -1.208926   -0.322952    0.089570
     16          8           0       -0.980559   -1.528980    0.073043
     17          7           0       -2.470187    0.191537    0.057960
     18          1           0       -2.589463    1.191969    0.101800
     19          6           0       -3.655164   -0.647603    0.122602
     20          1           0       -3.336000   -1.678719   -0.032263
     21          1           0       -4.151687   -0.571832    1.098057
     22          1           0       -4.367634   -0.365332   -0.659963
 ---------------------------------------------------------------------

 The electronic state is 1-A.
 Alpha  occ. eigenvalues --  -19.11661 -19.10752 -14.37039 -14.35018 -10.29145
 Alpha  occ. eigenvalues --  -10.28166 -10.23357 -10.22380 -10.19214 -10.18580
 Alpha  occ. eigenvalues --   -1.03874  -1.02445  -0.92719  -0.91547  -0.77980
 Alpha  occ. eigenvalues --   -0.72757  -0.70943  -0.64823  -0.59085  -0.57388
 Alpha  occ. eigenvalues --   -0.53721  -0.47711  -0.47375  -0.45839  -0.45350
 Alpha  occ. eigenvalues --   -0.44168  -0.42649  -0.41898  -0.40010  -0.39641
 Alpha  occ. eigenvalues --   -0.39327  -0.38172  -0.37857  -0.36446  -0.34035
 Alpha  occ. eigenvalues --   -0.26052  -0.25626  -0.25453  -0.24373
 Alpha virt. eigenvalues --    0.02044   0.03242   0.06747   0.09631   0.11473
 Alpha virt. eigenvalues --    0.13292   0.14010   0.14354   0.15545   0.15917
 Alpha virt. eigenvalues --    0.16248   0.16394   0.17957   0.18870   0.19904

 Mulliken atomic charges:
              1
     1  H    0.184361
     2  C   -0.545205
     3  H    0.186737
     4  H    0.157158
     5  C    0.583384
     6  O   -0.500187
     7  N   -0.573839
     8  H    0.331811
     9  C   -0.045485
    10  H    0.204457
    11  C   -0.462473
    12  H    0.154359
    13  H    0.134545
    14  H    0.181259
    15  C    0.579934
    16  O   -0.522963
    17  N   -0.593291
    18  H    0.331256
    19  C   -0.311686
    20  H    0.206028
    21  H    0.161868
    22  H    0.157971
 Sum of Mulliken atomic charges =   0.00000

 Dipole moment (field-independent basis, Debye):
    X=             -3.2415    Y=              1.1971    Z=             -2.1856  Tot=              4.0887
 Quadrupole moment (field-independent basis, Debye-Ang):
   XX=            -53.0376   YY=            -61.0894   ZZ=            -61.8059
   XY=             -8.0496   XZ=             -6.5619   YZ=              0.3103

 Normal termination of Gaussian 09 at Fri Feb 10 22:39:38 2017.
