 Gaussian 09, Revision A.02,
 Gaussian 09:  EM64L-G09RevA.02 11-Jun-2009

 -------------------------------------------------------------------
 # HF/6-31G* Opt=(ModRedundant, maxcycles=1000, calcfc) geom=nocrowd
 -------------------------------------------------------------------

 ------------------
 Phi Psi fixed scan
 ------------------
 Symbolic Z-matrix:
 Charge =  0 Multiplicity = 1

 SCF Done:  E(RHF) =  -984.536044240     A.U. after   15 cycles

  Exact polarizability:   0.000   0.000   0.000   0.000   0.000   0.000
 Approx polarizability: 134.434   1.590 141.210  -1.437 -12.778 113.149

 SCF Done:  E(RHF) =  -984.546244938     A.U. after   16 cycles
 SCF Done:  E(RHF) =  -984.557288342     A.U. after   13 cycles
 SCF Done:  E(RHF) =  -984.559779386     A.U. after   13 cycles
 SCF Done:  E(RHF) =  -984.562090106     A.U. after   13 cycles
 SCF Done:  E(RHF) =  -984.562804431     A.U. after   15 cycles
 SCF Done:  E(RHF) =  -984.549117511     A.U. after   16 cycles
 SCF Done:  E(RHF) =  -984.563062048     A.U. after   16 cycles
 SCF Done:  E(RHF) =  -984.457001578     A.U. after   16 cycles
 SCF Done:  E(RHF) =  -984.563180118     A.U. after   15 cycles
 SCF Done:  E(RHF) =  -984.563469184     A.U. after   11 cycles
 SCF Done:  E(RHF) =  -984.563470437     A.U. after   10 cycles
 SCF Done:  E(RHF) =  -984.563472148     A.U. after   12 cycles
 SCF Done:  E(RHF) =  -984.563471913     A.U. after    9 cycles
 SCF Done:  E(RHF) =  -984.563472047     A.U. after   10 cycles
 SCF Done:  E(RHF) =  -984.563472144     A.U. after    9 cycles
 SCF Done:  E(RHF) =  -984.563472792     A.U. after    9 cycles
 SCF Done:  E(RHF) =  -984.563473164     A.U. after   10 cycles
 SCF Done:  E(RHF) =  -984.563473204     A.U. after    8 cycles
 SCF Done:  E(RHF) =  -984.563473208     A.U. after    7 cycles
 Optimization completed on the basis of negligible forces.
    -- Stationary point found.

                         Standard orientation:
 ---------------------------------------------------------------------
 Center     Atomic      Atomic             Coordinates (Angstroms)
 Number     Number       Type             X           Y           Z
 ---------------------------------------------------------------------
      1          1           0        6.839660   -2.215399    1.265809
      2          6           0        6.647470   -1.496118    0.480477
      3          1           0        6.455022   -2.017737   -0.449131
      4          1           0        7.537959   -0.888367    0.363445
      5          6           0        5.506816   -0.600268    0.913665
      6          8           0        5.472315   -0.113714    2.014316
      7          7           0        4.554421   -0.373021   -0.012132
      8          1           0        4.590421   -0.804900   -0.907858
      9          6           0        3.403844    0.456298    0.251345
     10          1           0        3.067788    0.262558    1.261719
     11          6           0        3.724463    1.950836    0.109427
     12          1           0        4.048379    2.172290   -0.901897
     13          1           0        2.860335    2.566248    0.337874
     14          1           0        4.518654    2.208896    0.797274
     15          6           0        2.312677    0.051561   -0.738697
     16          8           0        2.588224   -0.497926   -1.776318
     17          7           0        1.066105    0.389696   -0.368305
     18          1           0        0.940438    0.958083    0.440445
     19          6           0       -0.129524    0.205103   -1.171787
     20          1           0       -0.081429    0.840227   -2.053450
     21          6           0       -0.318665   -1.247786   -1.617194
     22          1           0       -0.485991   -1.896059   -0.763848
     23          1           0       -1.160070   -1.337604   -2.296147
     24          1           0        0.560469   -1.584395   -2.141807
     25          6           0       -1.279788    0.746281   -0.308220
     26          8           0       -1.076238    1.638859    0.480234
     27          7           0       -2.487835    0.193296   -0.467736
     28          1           0       -2.640241   -0.577135   -1.078044
     29          6           0       -3.640599    0.642217    0.279903
     30          1           0       -3.330625    0.836975    1.298817
     31          6           0       -4.252104    1.918999   -0.311536
     32          1           0       -4.583977    1.741218   -1.328500
     33          1           0       -5.101535    2.254265    0.274030
     34          1           0       -3.508153    2.704497   -0.315822
     35          6           0       -4.657651   -0.496064    0.256730
     36          8           0       -4.627609   -1.343680   -0.597853
     37          7           0       -5.597280   -0.457580    1.216107
     38          1           0       -5.511312    0.206823    1.949769
     39          6           0       -6.633998   -1.466204    1.307874
     40          1           0       -7.104290   -1.600960    0.344623
     41          1           0       -6.233848   -2.419746    1.631982
     42          1           0       -7.376708   -1.133958    2.020203
 ---------------------------------------------------------------------

 The electronic state is 1-A.
 Alpha  occ. eigenvalues --  -20.54497 -20.53952 -20.53326 -20.51001 -15.60551
 Alpha  occ. eigenvalues --  -15.59749 -15.58919 -15.57439 -11.36461 -11.36344
 Alpha  occ. eigenvalues --  -11.35373 -11.33914 -11.29418 -11.29199 -11.27532
 Alpha  occ. eigenvalues --  -11.27229 -11.23471 -11.22466 -11.22371 -11.21841
 Alpha  occ. eigenvalues --   -1.41687  -1.40902  -1.40032  -1.37888  -1.25495
 Alpha  occ. eigenvalues --   -1.25307  -1.24593  -1.23037  -1.07935  -1.05300
 Alpha  occ. eigenvalues --   -1.02459  -0.98269  -0.97308  -0.92167  -0.90344
 Alpha  occ. eigenvalues --   -0.87393  -0.82041  -0.80387  -0.78927  -0.77956
 Alpha  occ. eigenvalues --   -0.76014  -0.72071  -0.68645  -0.68191  -0.67072
 Alpha  occ. eigenvalues --   -0.66068  -0.65373  -0.64937  -0.64347  -0.62588
 Alpha  occ. eigenvalues --   -0.61862  -0.60841  -0.60595  -0.59952  -0.58979
 Alpha  occ. eigenvalues --   -0.57732  -0.57011  -0.56768  -0.56434  -0.56240
 Alpha  occ. eigenvalues --   -0.55388  -0.55086  -0.54082  -0.53750  -0.53287
 Alpha  occ. eigenvalues --   -0.52151  -0.52073  -0.50786  -0.48986  -0.44123
 Alpha  occ. eigenvalues --   -0.43448  -0.42250  -0.41378  -0.40833  -0.40131
 Alpha  occ. eigenvalues --   -0.39563  -0.37777
 Alpha virt. eigenvalues --    0.17262   0.18597   0.20008   0.20335   0.21630
 Alpha virt. eigenvalues --    0.23660   0.24484   0.24841   0.25691   0.27248
 Alpha virt. eigenvalues --    0.28370   0.28407   0.28954   0.30032   0.30148

 Mulliken atomic charges:
              1
     1  H    0.206060
     2  C   -0.574861
     3  H    0.171833
     4  H    0.202097
     5  C    0.756907
     6  O   -0.623612
     7  N   -0.824850
     8  H    0.418145
     9  C   -0.030967
    10  H    0.221564
    11  C   -0.491239
    12  H    0.174811
    13  H    0.166464
    14  H    0.211228
    15  C    0.801153
    16  O   -0.645317
    17  N   -0.857111
    18  H    0.429146
    19  C    0.008305
    20  H    0.216324
    21  C   -0.534609
    22  H    0.177699
    23  H    0.161955
    24  H    0.245908
    25  C    0.786602
    26  O   -0.649200
    27  N   -0.851196
    28  H    0.441677
    29  C   -0.031578
    30  H    0.216444
    31  C   -0.487249
    32  H    0.181804
    33  H    0.163295
    34  H    0.211379
    35  C    0.777496
    36  O   -0.629439
    37  N   -0.799748
    38  H    0.391255
    39  C   -0.274061
    40  H    0.204504
    41  H    0.186744
    42  H    0.174237
 Sum of Mulliken atomic charges =   0.00000

 Dipole moment (field-independent basis, Debye):
    X=             -5.4102    Y=              0.1139    Z=              0.1693  Tot=              5.4141
 Quadrupole moment (field-independent basis, Debye-Ang):
   XX=           -101.4310   YY=           -122.3551   ZZ=           -127.1297
   XY=             -8.9111   XZ=            -26.3532   YZ=             -5.2617

 Normal termination of Gaussian 09 at Mon Dec 26 21:00:03 2016.
