 Gaussian 09, Revision A.02,
 Gaussian 09:  EM64L-G09RevA.02 11-Jun-2009

 -------------------------------------------------------------------
 # HF/6-31G* Opt=(ModRedundant, maxcycles=1000, calcfc) geom=nocrowd
 -------------------------------------------------------------------

 ------------------
 Phi Psi fixed scan
 ------------------
 Symbolic Z-matrix:
 Charge =  0 Multiplicity = 1

 SCF Done:  E(RHF) =  -984.536898273     A.U. after   15 cycles

  Exact polarizability:   0.000   0.000   0.000   0.000   0.000   0.000
 Approx polarizability: 132.852  -0.624 123.966   9.387  -1.525 131.847

 SCF Done:  E(RHF) =  -984.545338224     A.U. after   13 cycles
 SCF Done:  E(RHF) =  -984.554205133     A.U. after   13 cycles
 SCF Done:  E(RHF) =  -984.556263938     A.U. after   13 cycles
 SCF Done:  E(RHF) =  -984.558989645     A.U. after   14 cycles
 SCF Done:  E(RHF) =  -984.559690122     A.U. after   14 cycles
 SCF Done:  E(RHF) =  -984.555088409     A.U. after   14 cycles
 SCF Done:  E(RHF) =  -984.560195656     A.U. after   15 cycles
 SCF Done:  E(RHF) =  -984.559897847     A.U. after   13 cycles
 SCF Done:  E(RHF) =  -984.560319974     A.U. after   13 cycles
 SCF Done:  E(RHF) =  -984.560388224     A.U. after   12 cycles
 SCF Done:  E(RHF) =  -984.560490385     A.U. after   12 cycles
 SCF Done:  E(RHF) =  -984.560531272     A.U. after   11 cycles
 SCF Done:  E(RHF) =  -984.560530152     A.U. after   11 cycles
 SCF Done:  E(RHF) =  -984.560551399     A.U. after   11 cycles
 SCF Done:  E(RHF) =  -984.560554155     A.U. after    9 cycles
 SCF Done:  E(RHF) =  -984.560554931     A.U. after    9 cycles
 SCF Done:  E(RHF) =  -984.560555135     A.U. after    8 cycles
 SCF Done:  E(RHF) =  -984.560555185     A.U. after    8 cycles
 SCF Done:  E(RHF) =  -984.560555196     A.U. after    7 cycles
 Optimization completed.
    -- Stationary point found.

                         Standard orientation:
 ---------------------------------------------------------------------
 Center     Atomic      Atomic             Coordinates (Angstroms)
 Number     Number       Type             X           Y           Z
 ---------------------------------------------------------------------
      1          1           0       -7.436780    0.236761    0.425144
      2          6           0       -6.798979   -0.130797   -0.367736
      3          1           0       -6.670639    0.640485   -1.117360
      4          1           0       -7.293108   -0.982051   -0.823284
      5          6           0       -5.494160   -0.599423    0.238695
      6          8           0       -5.467009   -1.266662    1.240030
      7          7           0       -4.375576   -0.240649   -0.423789
      8          1           0       -4.416989    0.337359   -1.232667
      9          6           0       -3.059854   -0.611443    0.035146
     10          1           0       -3.043902   -0.533792    1.115384
     11          6           0       -2.687632   -2.045980   -0.364587
     12          1           0       -2.681828   -2.146227   -1.444570
     13          1           0       -1.708020   -2.318991    0.012319
     14          1           0       -3.418879   -2.728147    0.048033
     15          6           0       -2.068006    0.382287   -0.564261
     16          8           0       -2.339398    1.033184   -1.537499
     17          7           0       -0.847844    0.408622    0.027749
     18          1           0       -0.808515    0.043617    0.955348
     19          6           0        0.125044    1.461637   -0.266185
     20          1           0        0.373844    1.388515   -1.316523
     21          6           0       -0.375366    2.869788    0.047171
     22          1           0       -0.617843    2.958170    1.097939
     23          1           0        0.398273    3.595901   -0.180893
     24          1           0       -1.246615    3.097892   -0.549637
     25          6           0        1.351414    1.134352    0.591390
     26          8           0        1.441115    1.520141    1.728435
     27          7           0        2.266492    0.341031    0.012496
     28          1           0        2.161090    0.035417   -0.929983
     29          6           0        3.462389   -0.092051    0.696296
     30          1           0        3.833326    0.736822    1.286204
     31          6           0        3.199231   -1.286943    1.622354
     32          1           0        2.833086   -2.132429    1.050420
     33          1           0        4.102973   -1.588110    2.141492
     34          1           0        2.457156   -1.011941    2.360402
     35          6           0        4.485001   -0.466081   -0.373611
     36          8           0        4.141782   -0.781637   -1.483246
     37          7           0        5.769666   -0.462735    0.021718
     38          1           0        5.998476   -0.095535    0.916046
     39          6           0        6.845924   -0.811815   -0.883654
     40          1           0        6.618914   -1.741215   -1.385466
     41          1           0        7.000302   -0.044778   -1.633614
     42          1           0        7.754553   -0.932985   -0.309822
 ---------------------------------------------------------------------

 The electronic state is 1-A.
 Alpha  occ. eigenvalues --  -20.54451 -20.54240 -20.53629 -20.51480 -15.60356
 Alpha  occ. eigenvalues --  -15.59989 -15.59358 -15.57947 -11.36222 -11.36116
 Alpha  occ. eigenvalues --  -11.35721 -11.34360 -11.29177 -11.28697 -11.28268
 Alpha  occ. eigenvalues --  -11.27081 -11.23358 -11.22796 -11.22321 -11.21423
 Alpha  occ. eigenvalues --   -1.41460  -1.41230  -1.40290  -1.38399  -1.25622
 Alpha  occ. eigenvalues --   -1.25130  -1.24591  -1.23568  -1.07542  -1.05486
 Alpha  occ. eigenvalues --   -1.02620  -0.98663  -0.97170  -0.92282  -0.90022
 Alpha  occ. eigenvalues --   -0.86855  -0.81421  -0.80129  -0.79731  -0.78671
 Alpha  occ. eigenvalues --   -0.75960  -0.71714  -0.68915  -0.67847  -0.67626
 Alpha  occ. eigenvalues --   -0.65539  -0.65221  -0.65095  -0.63841  -0.62765
 Alpha  occ. eigenvalues --   -0.61860  -0.61280  -0.60898  -0.60282  -0.59649
 Alpha  occ. eigenvalues --   -0.58472  -0.56942  -0.56826  -0.56652  -0.55891
 Alpha  occ. eigenvalues --   -0.54777  -0.54613  -0.54476  -0.53124  -0.52995
 Alpha  occ. eigenvalues --   -0.52500  -0.51578  -0.51131  -0.49404  -0.43901
 Alpha  occ. eigenvalues --   -0.43598  -0.42755  -0.41358  -0.41252  -0.40769
 Alpha  occ. eigenvalues --   -0.39369  -0.38246
 Alpha virt. eigenvalues --    0.17560   0.18072   0.19702   0.20395   0.21016
 Alpha virt. eigenvalues --    0.22225   0.23658   0.24256   0.25653   0.27270
 Alpha virt. eigenvalues --    0.27695   0.28285   0.29136   0.29395   0.30523

 Mulliken atomic charges:
              1
     1  H    0.208031
     2  C   -0.575475
     3  H    0.173025
     4  H    0.203115
     5  C    0.756264
     6  O   -0.621926
     7  N   -0.824298
     8  H    0.418516
     9  C   -0.029749
    10  H    0.216022
    11  C   -0.484190
    12  H    0.176389
    13  H    0.165091
    14  H    0.211490
    15  C    0.786480
    16  O   -0.624526
    17  N   -0.828664
    18  H    0.396461
    19  C   -0.012094
    20  H    0.210850
    21  C   -0.502291
    22  H    0.190346
    23  H    0.167877
    24  H    0.208136
    25  C    0.759686
    26  O   -0.622895
    27  N   -0.825274
    28  H    0.428079
    29  C   -0.034787
    30  H    0.214448
    31  C   -0.486390
    32  H    0.182244
    33  H    0.163920
    34  H    0.205707
    35  C    0.777355
    36  O   -0.627974
    37  N   -0.799686
    38  H    0.390527
    39  C   -0.273768
    40  H    0.204620
    41  H    0.185823
    42  H    0.173485
 Sum of Mulliken atomic charges =   0.00000

 Dipole moment (field-independent basis, Debye):
    X=              4.9169    Y=              0.0539    Z=             -0.1718  Tot=              4.9202
 Quadrupole moment (field-independent basis, Debye-Ang):
   XX=            -91.5062   YY=           -124.7447   ZZ=           -132.9349
   XY=             -7.8077   XZ=             19.0275   YZ=             -1.0396

 Normal termination of Gaussian 09 at Mon Dec 26 19:27:24 2016.
