 Gaussian 09, Revision A.02,
 Gaussian 09:  EM64L-G09RevA.02 11-Jun-2009

 -------------------------------------------------------------------
 # HF/6-31G* Opt=(ModRedundant, maxcycles=1000, calcfc) geom=nocrowd
 -------------------------------------------------------------------

 ------------------
 Phi Psi fixed scan
 ------------------
 Symbolic Z-matrix:
 Charge =  0 Multiplicity = 1

 SCF Done:  E(RHF) =  -984.544887409     A.U. after   15 cycles

  Exact polarizability:   0.000   0.000   0.000   0.000   0.000   0.000
 Approx polarizability: 134.465   0.617 142.851  -0.304 -13.881 110.842

 SCF Done:  E(RHF) =  -984.553403672     A.U. after   12 cycles
 SCF Done:  E(RHF) =  -984.562201138     A.U. after   13 cycles
 SCF Done:  E(RHF) =  -984.563912155     A.U. after   13 cycles
 SCF Done:  E(RHF) =  -984.565783277     A.U. after   16 cycles
 SCF Done:  E(RHF) =  -984.565847276     A.U. after   13 cycles
 SCF Done:  E(RHF) =  -984.566316070     A.U. after   14 cycles
 SCF Done:  E(RHF) =  -984.440127085     A.U. after   16 cycles
 SCF Done:  E(RHF) =  -984.566463976     A.U. after   16 cycles
 SCF Done:  E(RHF) =  -984.566568497     A.U. after   12 cycles
 SCF Done:  E(RHF) =  -984.566837542     A.U. after   11 cycles
 SCF Done:  E(RHF) =  -984.566835516     A.U. after   12 cycles
 SCF Done:  E(RHF) =  -984.566843130     A.U. after   10 cycles
 SCF Done:  E(RHF) =  -984.566845471     A.U. after    9 cycles
 SCF Done:  E(RHF) =  -984.566850249     A.U. after   10 cycles
 SCF Done:  E(RHF) =  -984.566850319     A.U. after   10 cycles
 SCF Done:  E(RHF) =  -984.566850597     A.U. after    9 cycles
 SCF Done:  E(RHF) =  -984.566850640     A.U. after    9 cycles
 SCF Done:  E(RHF) =  -984.566850689     A.U. after    8 cycles
 SCF Done:  E(RHF) =  -984.566850694     A.U. after    6 cycles
 Optimization completed.
    -- Stationary point found.

                         Standard orientation:
 ---------------------------------------------------------------------
 Center     Atomic      Atomic             Coordinates (Angstroms)
 Number     Number       Type             X           Y           Z
 ---------------------------------------------------------------------
      1          1           0        7.686243   -0.603577    0.127777
      2          6           0        6.856047   -1.091422    0.626538
      3          1           0        7.183085   -1.364295    1.621372
      4          1           0        6.592123   -1.985121    0.074327
      5          6           0        5.717463   -0.101137    0.746354
      6          8           0        5.780558    0.842371    1.491469
      7          7           0        4.649996   -0.335391   -0.041832
      8          1           0        4.607393   -1.136880   -0.630043
      9          6           0        3.484985    0.515484   -0.037450
     10          1           0        3.281380    0.810262    0.984146
     11          6           0        3.686451    1.776654   -0.888653
     12          1           0        3.873675    1.507297   -1.922688
     13          1           0        2.814905    2.421658   -0.851762
     14          1           0        4.536922    2.327418   -0.509425
     15          6           0        2.316661   -0.308632   -0.574887
     16          8           0        2.502926   -1.286569   -1.256955
     17          7           0        1.099542    0.168812   -0.273969
     18          1           0        1.004915    0.971620    0.309265
     19          6           0       -0.144601   -0.462355   -0.657554
     20          1           0       -0.224947   -0.486317   -1.739728
     21          6           0       -0.266028   -1.892765   -0.108346
     22          1           0       -0.260448   -1.879212    0.976571
     23          1           0       -1.182656   -2.367112   -0.439178
     24          1           0        0.565288   -2.486270   -0.455604
     25          6           0       -1.265144    0.424811   -0.104089
     26          8           0       -1.025650    1.420034    0.535049
     27          7           0       -2.514851    0.009679   -0.354232
     28          1           0       -2.695802   -0.814863   -0.882600
     29          6           0       -3.678499    0.719807    0.124623
     30          1           0       -3.479056    1.055392    1.134481
     31          6           0       -4.019004    1.933494   -0.750127
     32          1           0       -4.236632    1.617051   -1.764275
     33          1           0       -4.881520    2.465840   -0.363279
     34          1           0       -3.176506    2.612080   -0.766258
     35          6           0       -4.837072   -0.274534    0.127880
     36          8           0       -4.823425   -1.250843   -0.576566
     37          7           0       -5.872575    0.038691    0.924360
     38          1           0       -5.784094    0.802373    1.553654
     39          6           0       -7.047301   -0.805396    1.014089
     40          1           0       -6.832209   -1.732747    1.531924
     41          1           0       -7.816833   -0.269845    1.553006
     42          1           0       -7.409029   -1.041290    0.023781
 ---------------------------------------------------------------------

 The electronic state is 1-A.
 Alpha  occ. eigenvalues --  -20.54492 -20.54353 -20.53180 -20.50956 -15.60576
 Alpha  occ. eigenvalues --  -15.59671 -15.58725 -15.57386 -11.36470 -11.36438
 Alpha  occ. eigenvalues --  -11.35246 -11.33869 -11.29477 -11.29085 -11.27495
 Alpha  occ. eigenvalues --  -11.27252 -11.23466 -11.22496 -11.22431 -11.21758
 Alpha  occ. eigenvalues --   -1.41768  -1.41033  -1.39957  -1.37841  -1.25537
 Alpha  occ. eigenvalues --   -1.25326  -1.24543  -1.22992  -1.07962  -1.05285
 Alpha  occ. eigenvalues --   -1.02427  -0.98223  -0.97333  -0.92141  -0.90280
 Alpha  occ. eigenvalues --   -0.87218  -0.82096  -0.80371  -0.79059  -0.78043
 Alpha  occ. eigenvalues --   -0.76105  -0.71761  -0.68964  -0.67952  -0.66923
 Alpha  occ. eigenvalues --   -0.65936  -0.65460  -0.64786  -0.64332  -0.62410
 Alpha  occ. eigenvalues --   -0.61756  -0.61253  -0.60649  -0.59967  -0.59530
 Alpha  occ. eigenvalues --   -0.57839  -0.57056  -0.56975  -0.56298  -0.56019
 Alpha  occ. eigenvalues --   -0.55520  -0.54923  -0.54096  -0.53575  -0.53175
 Alpha  occ. eigenvalues --   -0.52091  -0.51961  -0.50823  -0.48912  -0.44095
 Alpha  occ. eigenvalues --   -0.43504  -0.42358  -0.41482  -0.40790  -0.40451
 Alpha  occ. eigenvalues --   -0.39276  -0.37661
 Alpha virt. eigenvalues --    0.17370   0.18685   0.20023   0.20293   0.21727
 Alpha virt. eigenvalues --    0.23310   0.24433   0.24619   0.25534   0.27174
 Alpha virt. eigenvalues --    0.28184   0.28340   0.29038   0.30061   0.30222

 Mulliken atomic charges:
              1
     1  H    0.202055
     2  C   -0.574770
     3  H    0.205897
     4  H    0.171722
     5  C    0.756812
     6  O   -0.623569
     7  N   -0.825403
     8  H    0.418316
     9  C   -0.028374
    10  H    0.219709
    11  C   -0.488034
    12  H    0.173732
    13  H    0.165953
    14  H    0.210527
    15  C    0.800903
    16  O   -0.647800
    17  N   -0.859455
    18  H    0.432320
    19  C   -0.010739
    20  H    0.216412
    21  C   -0.509319
    22  H    0.173262
    23  H    0.166040
    24  H    0.233338
    25  C    0.798278
    26  O   -0.647123
    27  N   -0.843710
    28  H    0.430665
    29  C   -0.033362
    30  H    0.214989
    31  C   -0.487001
    32  H    0.181982
    33  H    0.163280
    34  H    0.210833
    35  C    0.779223
    36  O   -0.630280
    37  N   -0.799850
    38  H    0.391160
    39  C   -0.274027
    40  H    0.186636
    41  H    0.174204
    42  H    0.204565
 Sum of Mulliken atomic charges =   0.00000

 Dipole moment (field-independent basis, Debye):
    X=             -5.8332    Y=             -0.0254    Z=              0.2854  Tot=              5.8402
 Quadrupole moment (field-independent basis, Debye-Ang):
   XX=           -101.9774   YY=           -125.6691   ZZ=           -123.4436
   XY=            -19.2009   XZ=            -21.8385   YZ=             -7.9059

 Normal termination of Gaussian 09 at Mon Dec 26 22:07:06 2016.
