 Gaussian 09, Revision A.02,
 Gaussian 09:  EM64L-G09RevA.02 11-Jun-2009

 -------------------------------------------------------------------
 # HF/6-31G* Opt=(ModRedundant, maxcycles=1000, calcfc) geom=nocrowd
 -------------------------------------------------------------------

 ------------------
 Phi Psi fixed scan
 ------------------
 Symbolic Z-matrix:
 Charge =  0 Multiplicity = 1

 SCF Done:  E(RHF) =  -984.536581582     A.U. after   15 cycles

  Exact polarizability:   0.000   0.000   0.000   0.000   0.000   0.000
 Approx polarizability: 134.247   1.769 133.570  11.207   0.975 120.799

 SCF Done:  E(RHF) =  -984.544949116     A.U. after   13 cycles
 SCF Done:  E(RHF) =  -984.553662488     A.U. after   13 cycles
 SCF Done:  E(RHF) =  -984.555505667     A.U. after   13 cycles
 SCF Done:  E(RHF) =  -984.557504938     A.U. after   13 cycles
 SCF Done:  E(RHF) =  -984.557594323     A.U. after   13 cycles
 SCF Done:  E(RHF) =  -984.558089896     A.U. after   14 cycles
 SCF Done:  E(RHF) =  -984.434673071     A.U. after   16 cycles
 SCF Done:  E(RHF) =  -984.558270561     A.U. after   15 cycles
 SCF Done:  E(RHF) =  -984.558381812     A.U. after   12 cycles
 SCF Done:  E(RHF) =  -984.558630495     A.U. after    9 cycles
 SCF Done:  E(RHF) =  -984.558630252     A.U. after    9 cycles
 SCF Done:  E(RHF) =  -984.558630901     A.U. after    9 cycles
 SCF Done:  E(RHF) =  -984.558628569     A.U. after   11 cycles
 SCF Done:  E(RHF) =  -984.558631359     A.U. after   10 cycles
 SCF Done:  E(RHF) =  -984.558631197     A.U. after    9 cycles
 SCF Done:  E(RHF) =  -984.558631103     A.U. after    8 cycles
 SCF Done:  E(RHF) =  -984.558631360     A.U. after    9 cycles
 SCF Done:  E(RHF) =  -984.558631340     A.U. after    6 cycles
 SCF Done:  E(RHF) =  -984.558631384     A.U. after    8 cycles
 Optimization completed on the basis of negligible forces.
    -- Stationary point found.

                         Standard orientation:
 ---------------------------------------------------------------------
 Center     Atomic      Atomic             Coordinates (Angstroms)
 Number     Number       Type             X           Y           Z
 ---------------------------------------------------------------------
      1          1           0       -6.798971    1.461056   -0.423560
      2          6           0       -5.958345    1.373260   -1.103181
      3          1           0       -5.992052    2.215612   -1.781397
      4          1           0       -6.057156    0.451893   -1.664043
      5          6           0       -4.678816    1.450815   -0.298908
      6          8           0       -4.304030    2.483644    0.192511
      7          7           0       -4.003811    0.292376   -0.154969
      8          1           0       -4.322019   -0.548701   -0.581053
      9          6           0       -2.770932    0.208693    0.588155
     10          1           0       -2.183478    1.092134    0.371495
     11          6           0       -3.011793    0.127500    2.102240
     12          1           0       -3.586748   -0.759485    2.344926
     13          1           0       -2.076733    0.092338    2.652017
     14          1           0       -3.562798    1.002525    2.419931
     15          6           0       -2.029872   -1.035750    0.104252
     16          8           0       -2.615807   -1.950643   -0.413769
     17          7           0       -0.704096   -1.043414    0.347809
     18          1           0       -0.306272   -0.240384    0.779165
     19          6           0        0.186397   -2.149866    0.003574
     20          1           0       -0.081394   -3.017049    0.589756
     21          6           0        0.159673   -2.517322   -1.484829
     22          1           0        0.369663   -1.656412   -2.110102
     23          1           0        0.909891   -3.276247   -1.682408
     24          1           0       -0.808876   -2.907861   -1.755327
     25          6           0        1.605499   -1.781442    0.437946
     26          8           0        2.216024   -2.458482    1.220666
     27          7           0        2.123423   -0.672926   -0.128494
     28          1           0        1.618843   -0.153541   -0.812938
     29          6           0        3.462001   -0.211161    0.156391
     30          1           0        3.644169   -0.337934    1.216101
     31          6           0        4.524229   -0.990204   -0.630687
     32          1           0        4.367790   -0.867883   -1.696880
     33          1           0        5.524057   -0.645577   -0.388391
     34          1           0        4.454397   -2.040960   -0.382575
     35          6           0        3.511468    1.271075   -0.205513
     36          8           0        2.732632    1.748136   -0.990221
     37          7           0        4.495414    1.981234    0.370820
     38          1           0        5.050472    1.554993    1.075937
     39          6           0        4.674606    3.393864    0.100284
     40          1           0        3.876883    3.985403    0.533678
     41          1           0        5.618403    3.709114    0.523647
     42          1           0        4.690187    3.568046   -0.965984
 ---------------------------------------------------------------------

 The electronic state is 1-A.
 Alpha  occ. eigenvalues --  -20.54389 -20.54028 -20.53625 -20.51426 -15.60487
 Alpha  occ. eigenvalues --  -15.60229 -15.59471 -15.57909 -11.36353 -11.36065
 Alpha  occ. eigenvalues --  -11.35776 -11.34315 -11.29328 -11.28773 -11.28205
 Alpha  occ. eigenvalues --  -11.27157 -11.23351 -11.22762 -11.22434 -11.22407
 Alpha  occ. eigenvalues --   -1.41483  -1.41019  -1.40268  -1.38339  -1.26171
 Alpha  occ. eigenvalues --   -1.25252  -1.24289  -1.23511  -1.07887  -1.05386
 Alpha  occ. eigenvalues --   -1.02905  -0.98674  -0.97242  -0.92230  -0.90197
 Alpha  occ. eigenvalues --   -0.87553  -0.81644  -0.80401  -0.79772  -0.78641
 Alpha  occ. eigenvalues --   -0.76138  -0.72323  -0.69040  -0.67898  -0.66988
 Alpha  occ. eigenvalues --   -0.65758  -0.65367  -0.64790  -0.63931  -0.63342
 Alpha  occ. eigenvalues --   -0.62495  -0.61025  -0.60536  -0.60257  -0.58956
 Alpha  occ. eigenvalues --   -0.58449  -0.57474  -0.56939  -0.56710  -0.56060
 Alpha  occ. eigenvalues --   -0.55673  -0.54723  -0.54024  -0.53904  -0.53391
 Alpha  occ. eigenvalues --   -0.52663  -0.51594  -0.51231  -0.49443  -0.44091
 Alpha  occ. eigenvalues --   -0.43801  -0.42062  -0.41272  -0.41231  -0.40618
 Alpha  occ. eigenvalues --   -0.39476  -0.38233
 Alpha virt. eigenvalues --    0.17518   0.18389   0.19467   0.20278   0.21206
 Alpha virt. eigenvalues --    0.21945   0.24014   0.24218   0.25502   0.27435
 Alpha virt. eigenvalues --    0.27624   0.28314   0.28968   0.29514   0.30133

 Mulliken atomic charges:
              1
     1  H    0.202833
     2  C   -0.575487
     3  H    0.207953
     4  H    0.172976
     5  C    0.757255
     6  O   -0.622297
     7  N   -0.824943
     8  H    0.418718
     9  C   -0.032092
    10  H    0.219203
    11  C   -0.487628
    12  H    0.179062
    13  H    0.159286
    14  H    0.213231
    15  C    0.801186
    16  O   -0.634257
    17  N   -0.860321
    18  H    0.400349
    19  C    0.008526
    20  H    0.233158
    21  C   -0.511436
    22  H    0.161881
    23  H    0.177441
    24  H    0.231236
    25  C    0.738822
    26  O   -0.613175
    27  N   -0.825193
    28  H    0.426257
    29  C   -0.036738
    30  H    0.214372
    31  C   -0.486834
    32  H    0.180932
    33  H    0.162624
    34  H    0.211862
    35  C    0.778210
    36  O   -0.630036
    37  N   -0.799956
    38  H    0.391247
    39  C   -0.273637
    40  H    0.187620
    41  H    0.173887
    42  H    0.203904
 Sum of Mulliken atomic charges =   0.00000

 Dipole moment (field-independent basis, Debye):
    X=              3.9822    Y=              0.8028    Z=              0.2043  Tot=              4.0675
 Quadrupole moment (field-independent basis, Debye-Ang):
   XX=            -93.9959   YY=           -138.1383   ZZ=           -120.2850
   XY=             18.4018   XZ=              6.9481   YZ=              7.6610

 Normal termination of Gaussian 09 at Mon Dec 26 20:21:51 2016.
