 Gaussian 09, Revision A.02,
 Gaussian 09:  EM64L-G09RevA.02 11-Jun-2009

 -------------------------------------------------------------------
 # HF/6-31G* Opt=(ModRedundant, maxcycles=1000, calcfc) geom=nocrowd
 -------------------------------------------------------------------

 ------------------
 Phi Psi fixed scan
 ------------------
 Symbolic Z-matrix:
 Charge =  0 Multiplicity = 1

 SCF Done:  E(RHF) =  -984.535664987     A.U. after   15 cycles

  Exact polarizability:   0.000   0.000   0.000   0.000   0.000   0.000
 Approx polarizability: 138.313   1.493 139.540   8.357  -2.077 110.675

 SCF Done:  E(RHF) =  -984.544236990     A.U. after   13 cycles
 SCF Done:  E(RHF) =  -984.553125410     A.U. after   13 cycles
 SCF Done:  E(RHF) =  -984.555251510     A.U. after   13 cycles
 SCF Done:  E(RHF) =  -984.558231882     A.U. after   13 cycles
 SCF Done:  E(RHF) =  -984.558936492     A.U. after   13 cycles
 SCF Done:  E(RHF) =  -984.429455049     A.U. after   16 cycles
 SCF Done:  E(RHF) =  -984.559186412     A.U. after   15 cycles
 SCF Done:  E(RHF) =  -984.559271939     A.U. after   13 cycles
 SCF Done:  E(RHF) =  -984.559318907     A.U. after   13 cycles
 SCF Done:  E(RHF) =  -984.559576381     A.U. after    8 cycles
 SCF Done:  E(RHF) =  -984.559576918     A.U. after    9 cycles
 SCF Done:  E(RHF) =  -984.559577539     A.U. after    9 cycles
 SCF Done:  E(RHF) =  -984.559578275     A.U. after    9 cycles
 SCF Done:  E(RHF) =  -984.559579518     A.U. after   10 cycles
 SCF Done:  E(RHF) =  -984.559581624     A.U. after   10 cycles
 SCF Done:  E(RHF) =  -984.559582719     A.U. after   10 cycles
 SCF Done:  E(RHF) =  -984.559582847     A.U. after    8 cycles
 SCF Done:  E(RHF) =  -984.559582867     A.U. after    7 cycles
 SCF Done:  E(RHF) =  -984.559582873     A.U. after    6 cycles
 Optimization completed on the basis of negligible forces.
    -- Stationary point found.

                         Standard orientation:
 ---------------------------------------------------------------------
 Center     Atomic      Atomic             Coordinates (Angstroms)
 Number     Number       Type             X           Y           Z
 ---------------------------------------------------------------------
      1          1           0       -6.078089    1.934792   -1.897966
      2          6           0       -5.995279    1.226979   -1.083744
      3          1           0       -6.146720    0.222631   -1.460008
      4          1           0       -6.776642    1.454082   -0.366817
      5          6           0       -4.653563    1.419515   -0.410766
      6          8           0       -4.239105    2.514319   -0.131781
      7          7           0       -3.969263    0.291729   -0.130049
      8          1           0       -4.322397   -0.603686   -0.382196
      9          6           0       -2.676242    0.316078    0.507734
     10          1           0       -2.101680    1.131379    0.086630
     11          6           0       -2.787082    0.513696    2.026768
     12          1           0       -3.342775   -0.303247    2.474184
     13          1           0       -1.809638    0.563839    2.496868
     14          1           0       -3.305125    1.442289    2.224395
     15          6           0       -1.988464   -1.011651    0.195935
     16          8           0       -2.624072   -1.986809   -0.104106
     17          7           0       -0.639362   -0.995243    0.309453
     18          1           0       -0.246356   -0.192797    0.748947
     19          6           0        0.193618   -2.194190    0.268700
     20          1           0       -0.041428   -2.845148    1.100822
     21          6           0        0.045572   -2.977276   -1.043456
     22          1           0        0.267952   -2.339504   -1.892953
     23          1           0        0.742428   -3.807073   -1.038243
     24          1           0       -0.957487   -3.357955   -1.148975
     25          6           0        1.668683   -1.832126    0.424367
     26          8           0        2.431498   -2.613402    0.927083
     27          7           0        2.053130   -0.625612   -0.038768
     28          1           0        1.435850   -0.064567   -0.583777
     29          6           0        3.434602   -0.202210   -0.021499
     30          1           0        3.857552   -0.487322    0.932916
     31          6           0        4.259513   -0.839597   -1.147596
     32          1           0        3.855801   -0.560190   -2.114767
     33          1           0        5.295085   -0.519001   -1.103254
     34          1           0        4.229107   -1.916566   -1.049869
     35          6           0        3.433591    1.317408   -0.163000
     36          8           0        2.521652    1.890998   -0.700799
     37          7           0        4.523786    1.950093    0.302070
     38          1           0        5.197313    1.434639    0.819451
     39          6           0        4.667414    3.389333    0.210140
     40          1           0        4.452146    3.718258   -0.796154
     41          1           0        3.995942    3.900546    0.890018
     42          1           0        5.687170    3.651236    0.457141
 ---------------------------------------------------------------------

 The electronic state is 1-A.
 Alpha  occ. eigenvalues --  -20.54411 -20.54244 -20.53332 -20.51450 -15.60410
 Alpha  occ. eigenvalues --  -15.60244 -15.59509 -15.57960 -11.36298 -11.36227
 Alpha  occ. eigenvalues --  -11.35768 -11.34340 -11.29232 -11.28783 -11.28282
 Alpha  occ. eigenvalues --  -11.27083 -11.23274 -11.22785 -11.22650 -11.22082
 Alpha  occ. eigenvalues --   -1.41426  -1.41233  -1.40166  -1.38380  -1.26438
 Alpha  occ. eigenvalues --   -1.25160  -1.24158  -1.23551  -1.07745  -1.05381
 Alpha  occ. eigenvalues --   -1.03007  -0.98731  -0.97189  -0.92109  -0.90155
 Alpha  occ. eigenvalues --   -0.87375  -0.81571  -0.80511  -0.79376  -0.78473
 Alpha  occ. eigenvalues --   -0.76211  -0.72393  -0.69110  -0.67804  -0.67145
 Alpha  occ. eigenvalues --   -0.66445  -0.65393  -0.64911  -0.63760  -0.63049
 Alpha  occ. eigenvalues --   -0.62386  -0.61068  -0.60676  -0.60033  -0.59179
 Alpha  occ. eigenvalues --   -0.58248  -0.57420  -0.56848  -0.56774  -0.56104
 Alpha  occ. eigenvalues --   -0.55321  -0.54870  -0.53909  -0.53704  -0.52981
 Alpha  occ. eigenvalues --   -0.52807  -0.51829  -0.50683  -0.49515  -0.44183
 Alpha  occ. eigenvalues --   -0.43784  -0.41931  -0.41319  -0.41106  -0.40932
 Alpha  occ. eigenvalues --   -0.39592  -0.38371
 Alpha virt. eigenvalues --    0.17342   0.18272   0.19737   0.20354   0.21052
 Alpha virt. eigenvalues --    0.21828   0.24050   0.25345   0.25596   0.27451
 Alpha virt. eigenvalues --    0.28180   0.28483   0.29157   0.29589   0.30485

 Mulliken atomic charges:
              1
     1  H    0.208192
     2  C   -0.575425
     3  H    0.172789
     4  H    0.202902
     5  C    0.757345
     6  O   -0.621054
     7  N   -0.825803
     8  H    0.418940
     9  C   -0.033927
    10  H    0.226457
    11  C   -0.491501
    12  H    0.178884
    13  H    0.154241
    14  H    0.217628
    15  C    0.798074
    16  O   -0.626673
    17  N   -0.868600
    18  H    0.400500
    19  C    0.007142
    20  H    0.224248
    21  C   -0.512144
    22  H    0.164772
    23  H    0.190382
    24  H    0.232505
    25  C    0.757748
    26  O   -0.624537
    27  N   -0.836224
    28  H    0.425726
    29  C   -0.037433
    30  H    0.215211
    31  C   -0.490470
    32  H    0.180580
    33  H    0.164330
    34  H    0.212933
    35  C    0.781704
    36  O   -0.631155
    37  N   -0.800257
    38  H    0.390819
    39  C   -0.274151
    40  H    0.205214
    41  H    0.186389
    42  H    0.173700
 Sum of Mulliken atomic charges =   0.00000

 Dipole moment (field-independent basis, Debye):
    X=              3.7298    Y=              0.5952    Z=              0.5417  Tot=              3.8157
 Quadrupole moment (field-independent basis, Debye-Ang):
   XX=            -92.6937   YY=           -141.0541   ZZ=           -117.9494
   XY=             20.2416   XZ=              3.5949   YZ=              7.7278

 Normal termination of Gaussian 09 at Mon Dec 26 21:54:08 2016.
