 Gaussian 09, Revision A.02,
 Gaussian 09:  EM64L-G09RevA.02 11-Jun-2009

 ----------------------------------------------------------------------
 # b3lyp/6-31G* Opt=(ModRedundant, maxcycles=1000, calcfc) geom=nocrowd
 ----------------------------------------------------------------------

 ------------------
 Phi Psi fixed scan
 ------------------
 Symbolic Z-matrix:
 Charge =  0 Multiplicity = 1

 SCF Done:  E(RB3LYP) =  -990.444851053     A.U. after   15 cycles

  Exact polarizability:   0.000   0.000   0.000   0.000   0.000   0.000
 Approx polarizability: 237.393 -15.305 221.080   5.700 -35.879 215.997

 SCF Done:  E(RB3LYP) =  -990.461563629     A.U. after   13 cycles
 SCF Done:  E(RB3LYP) =  -990.481779460     A.U. after   13 cycles
 SCF Done:  E(RB3LYP) =  -990.478675189     A.U. after   15 cycles
 SCF Done:  E(RB3LYP) =  -990.489343484     A.U. after   13 cycles
 SCF Done:  E(RB3LYP) =  -990.490681100     A.U. after   11 cycles
 SCF Done:  E(RB3LYP) =  -990.492632348     A.U. after   12 cycles
 SCF Done:  E(RB3LYP) =  -990.493592700     A.U. after   12 cycles
 SCF Done:  E(RB3LYP) =  -990.494295826     A.U. after   12 cycles
 SCF Done:  E(RB3LYP) =  -990.495220661     A.U. after   13 cycles
 SCF Done:  E(RB3LYP) =  -990.496078799     A.U. after   10 cycles
 SCF Done:  E(RB3LYP) =  -990.496086463     A.U. after    9 cycles
 SCF Done:  E(RB3LYP) =  -990.496090516     A.U. after    9 cycles
 SCF Done:  E(RB3LYP) =  -990.496092836     A.U. after    9 cycles
 SCF Done:  E(RB3LYP) =  -990.496094490     A.U. after    9 cycles
 SCF Done:  E(RB3LYP) =  -990.496095400     A.U. after    9 cycles
 SCF Done:  E(RB3LYP) =  -990.496095530     A.U. after    7 cycles
 SCF Done:  E(RB3LYP) =  -990.496095636     A.U. after    7 cycles
 SCF Done:  E(RB3LYP) =  -990.496095835     A.U. after    7 cycles
 SCF Done:  E(RB3LYP) =  -990.496095979     A.U. after    7 cycles
 Optimization completed.
    -- Stationary point found.

                         Standard orientation:
 ---------------------------------------------------------------------
 Center     Atomic      Atomic             Coordinates (Angstroms)
 Number     Number       Type             X           Y           Z
 ---------------------------------------------------------------------
      1          1           0       -5.709594   -3.120714   -1.108143
      2          6           0       -5.349954   -2.750888   -0.142827
      3          1           0       -4.500420   -3.360705    0.179548
      4          1           0       -6.166784   -2.869631    0.575852
      5          6           0       -5.023982   -1.270339   -0.275407
      6          8           0       -5.865026   -0.446399   -0.625555
      7          7           0       -3.741468   -0.922752    0.022689
      8          1           0       -3.032273   -1.608200    0.254789
      9          6           0       -3.261930    0.438215   -0.107459
     10          1           0       -3.701228    0.869456   -1.016138
     11          6           0       -3.668420    1.312282    1.096117
     12          1           0       -3.228629    0.920370    2.018689
     13          1           0       -3.337221    2.349325    0.968153
     14          1           0       -4.757791    1.304575    1.182852
     15          6           0       -1.732124    0.365937   -0.242029
     16          8           0       -1.109325   -0.632257    0.100890
     17          7           0       -1.159695    1.471313   -0.811850
     18          1           0       -1.809762    2.220719   -1.018922
     19          6           0        0.221483    1.945099   -0.624402
     20          1           0        0.710139    1.955986   -1.608270
     21          6           0        0.210358    3.368774   -0.055807
     22          1           0       -0.197007    3.355666    0.958576
     23          1           0        1.228348    3.770006   -0.017504
     24          1           0       -0.389869    4.037370   -0.684983
     25          6           0        1.037236    1.043327    0.327987
     26          8           0        0.784068    0.991127    1.526234
     27          7           0        2.142168    0.486915   -0.227308
     28          1           0        2.303984    0.487219   -1.228201
     29          6           0        3.022770   -0.383465    0.530172
     30          1           0        3.243658    0.108877    1.484706
     31          6           0        2.380550   -1.757073    0.812040
     32          1           0        2.192283   -2.286923   -0.127236
     33          1           0        3.034116   -2.375945    1.437583
     34          1           0        1.429638   -1.608125    1.327987
     35          6           0        4.303487   -0.540686   -0.303203
     36          8           0        4.297005   -0.364522   -1.519549
     37          7           0        5.404757   -0.921048    0.397109
     38          1           0        5.324523   -1.022189    1.399058
     39          6           0        6.687147   -1.193319   -0.230389
     40          1           0        6.566487   -1.032583   -1.302223
     41          1           0        7.462419   -0.517700    0.148729
     42          1           0        7.001132   -2.228615   -0.054299
 ---------------------------------------------------------------------

 The electronic state is 1-A.
 Alpha  occ. eigenvalues --  -19.12614 -19.12452 -19.10729 -19.09555 -14.37687
 Alpha  occ. eigenvalues --  -14.37102 -14.35775 -14.34665 -10.29779 -10.29462
 Alpha  occ. eigenvalues --  -10.28611 -10.27572 -10.24660 -10.23965 -10.23347
 Alpha  occ. eigenvalues --  -10.22854 -10.19472 -10.18249 -10.18162 -10.18068
 Alpha  occ. eigenvalues --   -1.04732  -1.04459  -1.02654  -1.01542  -0.93435
 Alpha  occ. eigenvalues --   -0.93389  -0.92264  -0.91152  -0.79497  -0.77362
 Alpha  occ. eigenvalues --   -0.75803  -0.71806  -0.71646  -0.67435  -0.65719
 Alpha  occ. eigenvalues --   -0.63248  -0.60588  -0.59274  -0.58011  -0.57168
 Alpha  occ. eigenvalues --   -0.53921  -0.52428  -0.49835  -0.48726  -0.48052
 Alpha  occ. eigenvalues --   -0.47263  -0.46405  -0.45716  -0.45155  -0.44631
 Alpha  occ. eigenvalues --   -0.44141  -0.43084  -0.42218  -0.41804  -0.41268
 Alpha  occ. eigenvalues --   -0.41122  -0.40285  -0.40217  -0.39832  -0.38582
 Alpha  occ. eigenvalues --   -0.38410  -0.37895  -0.37717  -0.37358  -0.36907
 Alpha  occ. eigenvalues --   -0.36618  -0.36082  -0.34954  -0.33553  -0.27084
 Alpha  occ. eigenvalues --   -0.26794  -0.26633  -0.26167  -0.24928  -0.24539
 Alpha  occ. eigenvalues --   -0.24150  -0.23557
 Alpha virt. eigenvalues --    0.01320   0.01580   0.02720   0.04142   0.06181
 Alpha virt. eigenvalues --    0.06385   0.09282   0.10023   0.11372   0.12321
 Alpha virt. eigenvalues --    0.13405   0.13781   0.14067   0.14252   0.15148

 Mulliken atomic charges:
              1
     1  H    0.181323
     2  C   -0.532742
     3  H    0.147488
     4  H    0.181612
     5  C    0.597827
     6  O   -0.526097
     7  N   -0.604684
     8  H    0.346065
     9  C   -0.040655
    10  H    0.169591
    11  C   -0.444414
    12  H    0.166970
    13  H    0.133131
    14  H    0.188522
    15  C    0.624982
    16  O   -0.520721
    17  N   -0.618376
    18  H    0.327607
    19  C   -0.010502
    20  H    0.146193
    21  C   -0.470467
    22  H    0.189245
    23  H    0.165115
    24  H    0.142432
    25  C    0.656693
    26  O   -0.542487
    27  N   -0.621707
    28  H    0.349081
    29  C   -0.036633
    30  H    0.164975
    31  C   -0.446197
    32  H    0.161200
    33  H    0.131468
    34  H    0.209733
    35  C    0.608252
    36  O   -0.532220
    37  N   -0.592689
    38  H    0.331615
    39  C   -0.313485
    40  H    0.207497
    41  H    0.162756
    42  H    0.162703
 Sum of Mulliken atomic charges =   0.00000

 Dipole moment (field-independent basis, Debye):
    X=              5.3015    Y=              0.1915    Z=              0.8579  Tot=              5.3739
 Quadrupole moment (field-independent basis, Debye-Ang):
   XX=           -118.8147   YY=           -104.8673   ZZ=           -123.2765
   XY=             -3.9024   XZ=              6.7114   YZ=             -6.5351

 Normal termination of Gaussian 09 at Thu Dec 29 05:05:36 2016.
