 Gaussian 09, Revision A.02,
 Gaussian 09:  EM64L-G09RevA.02 11-Jun-2009

 ----------------------------------------------------------------------
 # b3lyp/6-31G* Opt=(ModRedundant, maxcycles=1000, calcfc) geom=nocrowd
 ----------------------------------------------------------------------

 ------------------
 Phi Psi fixed scan
 ------------------
 Symbolic Z-matrix:
 Charge =  0 Multiplicity = 1

 SCF Done:  E(RB3LYP) =  -990.136486255     A.U. after   28 cycles

  Exact polarizability:   0.000   0.000   0.000   0.000   0.000   0.000
 Approx polarizability: 457.473  13.291 305.070  -4.079 -25.850 170.233

 SCF Done:  E(RB3LYP) =  -990.227187375     A.U. after   22 cycles
 SCF Done:  E(RB3LYP) =  -990.339436709     A.U. after   15 cycles
 SCF Done:  E(RB3LYP) =  -990.396382035     A.U. after   13 cycles
 SCF Done:  E(RB3LYP) =  -990.414420041     A.U. after   14 cycles
 SCF Done:  E(RB3LYP) =  -990.456613426     A.U. after   13 cycles
 SCF Done:  E(RB3LYP) =  -989.948652569     A.U. after   15 cycles
 SCF Done:  E(RB3LYP) =  -990.054590615     A.U. after   12 cycles
 SCF Done:  E(RB3LYP) =  -990.144006106     A.U. after   12 cycles
 SCF Done:  E(RB3LYP) =  -990.218687088     A.U. after   12 cycles
 SCF Done:  E(RB3LYP) =  -990.477477041     A.U. after    9 cycles
 SCF Done:  E(RB3LYP) =  -990.477482548     A.U. after    9 cycles
 SCF Done:  E(RB3LYP) =  -990.477488222     A.U. after    9 cycles
 SCF Done:  E(RB3LYP) =  -990.477494882     A.U. after   10 cycles
 SCF Done:  E(RB3LYP) =  -990.477502075     A.U. after   10 cycles
 SCF Done:  E(RB3LYP) =  -990.477505052     A.U. after    9 cycles
 SCF Done:  E(RB3LYP) =  -990.477506021     A.U. after    8 cycles
 SCF Done:  E(RB3LYP) =  -990.477506364     A.U. after    8 cycles
 SCF Done:  E(RB3LYP) =  -990.477506530     A.U. after    8 cycles
 SCF Done:  E(RB3LYP) =  -990.477506586     A.U. after    7 cycles
 Optimization completed.
    -- Stationary point found.

                         Standard orientation:
 ---------------------------------------------------------------------
 Center     Atomic      Atomic             Coordinates (Angstroms)
 Number     Number       Type             X           Y           Z
 ---------------------------------------------------------------------
      1          1           0       -7.271317   -1.551257    0.986422
      2          6           0       -6.622444   -1.539980    0.105108
      3          1           0       -7.269902   -1.467668   -0.774481
      4          1           0       -6.064067   -2.480071    0.061370
      5          6           0       -5.734955   -0.304856    0.164171
      6          8           0       -6.202077    0.830323    0.224371
      7          7           0       -4.395532   -0.544410    0.149365
      8          1           0       -4.007566   -1.474076    0.033747
      9          6           0       -3.418739    0.524599    0.137072
     10          1           0       -3.788913    1.316007   -0.528395
     11          6           0       -3.206600    1.126486    1.540063
     12          1           0       -2.830086    0.363345    2.228932
     13          1           0       -2.490831    1.956266    1.515041
     14          1           0       -4.163303    1.504028    1.909668
     15          6           0       -2.105035   -0.073744   -0.414927
     16          8           0       -1.940771   -1.280281   -0.447158
     17          7           0       -1.249513    0.891769   -0.911562
     18          1           0       -1.678385    1.808559   -0.871876
     19          6           0        0.216443    1.044230   -0.966549
     20          1           0        0.507856    1.106058   -2.026472
     21          6           0        0.568282    2.389635   -0.296747
     22          1           0        0.353506    2.347668    0.776263
     23          1           0        1.622022    2.646903   -0.426260
     24          1           0       -0.022778    3.201009   -0.739054
     25          6           0        1.069125   -0.091653   -0.349538
     26          8           0        0.636636   -1.034965    0.292232
     27          7           0        2.409753    0.153634   -0.455932
     28          1           0        2.795341    0.891941   -1.034075
     29          6           0        3.402290   -0.752757    0.089355
     30          1           0        3.104849   -1.005914    1.114170
     31          6           0        3.528896   -2.056759   -0.724084
     32          1           0        3.840302   -1.836523   -1.750558
     33          1           0        4.265892   -2.733002   -0.276192
     34          1           0        2.559762   -2.560751   -0.742417
     35          6           0        4.731769    0.019711    0.094613
     36          8           0        4.909742    0.984554   -0.646670
     37          7           0        5.679243   -0.466385    0.938006
     38          1           0        5.437908   -1.246692    1.532727
     39          6           0        7.019110    0.090246    1.030492
     40          1           0        7.081580    0.912351    0.316829
     41          1           0        7.217299    0.473662    2.037848
     42          1           0        7.776081   -0.662089    0.781265
 ---------------------------------------------------------------------

 The electronic state is 1-A.
 Alpha  occ. eigenvalues --  -19.13156 -19.11505 -19.11462 -19.09171 -14.38159
 Alpha  occ. eigenvalues --  -14.36481 -14.35885 -14.34169 -10.30297 -10.29294
 Alpha  occ. eigenvalues --  -10.28880 -10.27181 -10.25415 -10.24528 -10.23232
 Alpha  occ. eigenvalues --  -10.22856 -10.20518 -10.18994 -10.17905 -10.17807
 Alpha  occ. eigenvalues --   -1.05191  -1.03990  -1.03052  -1.01112  -0.93906
 Alpha  occ. eigenvalues --   -0.93076  -0.92518  -0.90670  -0.80084  -0.77393
 Alpha  occ. eigenvalues --   -0.75625  -0.72102  -0.71453  -0.67847  -0.66006
 Alpha  occ. eigenvalues --   -0.63531  -0.60795  -0.59092  -0.58385  -0.56717
 Alpha  occ. eigenvalues --   -0.53770  -0.52063  -0.49834  -0.48865  -0.48452
 Alpha  occ. eigenvalues --   -0.46886  -0.46701  -0.45357  -0.45228  -0.44334
 Alpha  occ. eigenvalues --   -0.44057  -0.43427  -0.42989  -0.42258  -0.41514
 Alpha  occ. eigenvalues --   -0.40888  -0.40636  -0.40406  -0.39992  -0.39216
 Alpha  occ. eigenvalues --   -0.38845  -0.38146  -0.37702  -0.37604  -0.37395
 Alpha  occ. eigenvalues --   -0.36351  -0.35955  -0.35066  -0.33209  -0.27702
 Alpha  occ. eigenvalues --   -0.27222  -0.26742  -0.25862  -0.25216  -0.23799
 Alpha  occ. eigenvalues --   -0.23560  -0.22923
 Alpha virt. eigenvalues --    0.00926   0.01931   0.02323   0.04395   0.05808
 Alpha virt. eigenvalues --    0.05965   0.09250   0.10428   0.11006   0.11533
 Alpha virt. eigenvalues --    0.12963   0.13192   0.13447   0.13778   0.14130

 Mulliken atomic charges:
              1
     1  H    0.179963
     2  C   -0.532452
     3  H    0.179930
     4  H    0.148575
     5  C    0.596680
     6  O   -0.528850
     7  N   -0.603837
     8  H    0.347119
     9  C   -0.046524
    10  H    0.164593
    11  C   -0.444123
    12  H    0.162398
    13  H    0.129334
    14  H    0.188484
    15  C    0.617575
    16  O   -0.486081
    17  N   -0.631304
    18  H    0.326877
    19  C   -0.018962
    20  H    0.164311
    21  C   -0.478719
    22  H    0.176193
    23  H    0.169699
    24  H    0.153021
    25  C    0.617056
    26  O   -0.496708
    27  N   -0.623907
    28  H    0.347897
    29  C   -0.026681
    30  H    0.166951
    31  C   -0.449032
    32  H    0.158190
    33  H    0.137400
    34  H    0.198709
    35  C    0.607883
    36  O   -0.534110
    37  N   -0.592442
    38  H    0.332847
    39  C   -0.314167
    40  H    0.207729
    41  H    0.164489
    42  H    0.163996
 Sum of Mulliken atomic charges =   0.00000

 Dipole moment (field-independent basis, Debye):
    X=              6.5961    Y=              0.0696    Z=              1.0786  Tot=              6.6841
 Quadrupole moment (field-independent basis, Debye-Ang):
   XX=           -117.1722   YY=           -116.7122   ZZ=           -115.1752
   XY=              0.0151   XZ=             12.4458   YZ=             -3.0066

 Normal termination of Gaussian 09 at Thu Dec 29 11:36:29 2016.
