 Gaussian 09, Revision A.02,
 Gaussian 09:  EM64L-G09RevA.02 11-Jun-2009

 ----------------------------------------------------------------------
 # b3lyp/6-31G* Opt=(ModRedundant, maxcycles=1000, calcfc) geom=nocrowd
 ----------------------------------------------------------------------

 ------------------
 Phi Psi fixed scan
 ------------------
 Symbolic Z-matrix:
 Charge =  0 Multiplicity = 1

 SCF Done:  E(RB3LYP) =  -990.436291773     A.U. after   14 cycles

  Exact polarizability:   0.000   0.000   0.000   0.000   0.000   0.000
 Approx polarizability: 231.956 -10.663 230.349  37.471  -5.080 213.902

 SCF Done:  E(RB3LYP) =  -990.457366416     A.U. after   13 cycles
 SCF Done:  E(RB3LYP) =  -990.486034954     A.U. after   14 cycles
 SCF Done:  E(RB3LYP) =  -990.485657731     A.U. after   15 cycles
 SCF Done:  E(RB3LYP) =  -990.486971365     A.U. after   13 cycles
 SCF Done:  E(RB3LYP) =  -990.488526476     A.U. after   12 cycles
 SCF Done:  E(RB3LYP) =  -990.490721676     A.U. after   12 cycles
 SCF Done:  E(RB3LYP) =  -990.491612159     A.U. after   13 cycles
 SCF Done:  E(RB3LYP) =  -990.492162603     A.U. after   12 cycles
 SCF Done:  E(RB3LYP) =  -990.492573029     A.U. after   12 cycles
 SCF Done:  E(RB3LYP) =  -990.493764759     A.U. after   10 cycles
 SCF Done:  E(RB3LYP) =  -990.493766519     A.U. after    9 cycles
 SCF Done:  E(RB3LYP) =  -990.493767571     A.U. after    9 cycles
 SCF Done:  E(RB3LYP) =  -990.493768030     A.U. after    8 cycles
 SCF Done:  E(RB3LYP) =  -990.493768180     A.U. after    7 cycles
 SCF Done:  E(RB3LYP) =  -990.493768249     A.U. after    7 cycles
 SCF Done:  E(RB3LYP) =  -990.493768304     A.U. after    7 cycles
 SCF Done:  E(RB3LYP) =  -990.493768331     A.U. after    7 cycles
 SCF Done:  E(RB3LYP) =  -990.493768338     A.U. after    6 cycles
 SCF Done:  E(RB3LYP) =  -990.493768332     A.U. after    6 cycles
 Optimization completed.
    -- Stationary point found.

                         Standard orientation:
 ---------------------------------------------------------------------
 Center     Atomic      Atomic             Coordinates (Angstroms)
 Number     Number       Type             X           Y           Z
 ---------------------------------------------------------------------
      1          1           0       -4.852660   -3.565212    0.984811
      2          6           0       -3.898138   -3.344668    0.497032
      3          1           0       -3.772365   -4.067942   -0.314770
      4          1           0       -3.088401   -3.476837    1.221063
      5          6           0       -3.962628   -1.946344   -0.098867
      6          8           0       -4.818012   -1.624843   -0.919392
      7          7           0       -3.011490   -1.075515    0.341564
      8          1           0       -2.263112   -1.357822    0.963593
      9          6           0       -2.900652    0.268683   -0.187198
     10          1           0       -3.106832    0.226983   -1.264195
     11          6           0       -3.911871    1.231256    0.467180
     12          1           0       -3.728014    1.303317    1.544063
     13          1           0       -3.847605    2.236908    0.036155
     14          1           0       -4.920690    0.845575    0.300550
     15          6           0       -1.449709    0.730319    0.060095
     16          8           0       -0.745764    0.172514    0.897557
     17          7           0       -1.088624    1.816782   -0.677025
     18          1           0       -1.781261    2.123633   -1.348628
     19          6           0        0.195847    2.531802   -0.823782
     20          1           0        0.486108    2.417425   -1.878975
     21          6           0       -0.011319    4.019325   -0.529222
     22          1           0       -0.248734    4.168312    0.526884
     23          1           0        0.897524    4.581611   -0.754821
     24          1           0       -0.830628    4.417193   -1.139550
     25          6           0        1.402747    1.991509   -0.009088
     26          8           0        2.038388    2.737980    0.728354
     27          7           0        1.772544    0.715089   -0.268555
     28          1           0        1.146704    0.071230   -0.737738
     29          6           0        2.854377    0.069799    0.453418
     30          1           0        3.713544    0.750550    0.448523
     31          6           0        2.481827   -0.256923    1.914223
     32          1           0        1.616651   -0.924430    1.942562
     33          1           0        3.320780   -0.734442    2.433625
     34          1           0        2.227560    0.669342    2.434283
     35          6           0        3.187162   -1.217177   -0.316814
     36          8           0        2.347218   -1.779050   -1.014990
     37          7           0        4.448982   -1.690502   -0.128823
     38          1           0        5.081709   -1.154186    0.447765
     39          6           0        4.919291   -2.938634   -0.705269
     40          1           0        4.100956   -3.353535   -1.294804
     41          1           0        5.782951   -2.769749   -1.358529
     42          1           0        5.199690   -3.655395    0.075521
 ---------------------------------------------------------------------

 The electronic state is 1-A.
 Alpha  occ. eigenvalues --  -19.12986 -19.12184 -19.11265 -19.09859 -14.38039
 Alpha  occ. eigenvalues --  -14.37334 -14.35081 -14.34996 -10.30283 -10.29370
 Alpha  occ. eigenvalues --  -10.28850 -10.27864 -10.25015 -10.23823 -10.23615
 Alpha  occ. eigenvalues --  -10.22588 -10.18544 -10.18472 -10.18445 -10.17788
 Alpha  occ. eigenvalues --   -1.05016  -1.04240  -1.03034  -1.01872  -0.94118
 Alpha  occ. eigenvalues --   -0.93059  -0.91923  -0.91466  -0.79546  -0.77222
 Alpha  occ. eigenvalues --   -0.75924  -0.72060  -0.71350  -0.67219  -0.65766
 Alpha  occ. eigenvalues --   -0.63267  -0.60894  -0.59125  -0.57677  -0.57500
 Alpha  occ. eigenvalues --   -0.54294  -0.52706  -0.49457  -0.49070  -0.47907
 Alpha  occ. eigenvalues --   -0.47380  -0.46213  -0.45772  -0.45481  -0.44860
 Alpha  occ. eigenvalues --   -0.43648  -0.43308  -0.42511  -0.41560  -0.41527
 Alpha  occ. eigenvalues --   -0.41186  -0.40144  -0.39898  -0.39347  -0.38810
 Alpha  occ. eigenvalues --   -0.38608  -0.38110  -0.37405  -0.36991  -0.36975
 Alpha  occ. eigenvalues --   -0.36857  -0.36286  -0.35097  -0.33915  -0.27358
 Alpha  occ. eigenvalues --   -0.27146  -0.26468  -0.26292  -0.25153  -0.24466
 Alpha  occ. eigenvalues --   -0.24162  -0.23735
 Alpha virt. eigenvalues --    0.01081   0.01373   0.02457   0.03841   0.06087
 Alpha virt. eigenvalues --    0.06556   0.09680   0.11320   0.11399   0.12510
 Alpha virt. eigenvalues --    0.13093   0.13688   0.13894   0.14531   0.15119

 Mulliken atomic charges:
              1
     1  H    0.181920
     2  C   -0.532820
     3  H    0.183346
     4  H    0.148276
     5  C    0.596958
     6  O   -0.524717
     7  N   -0.603935
     8  H    0.346353
     9  C   -0.035019
    10  H    0.168046
    11  C   -0.442298
    12  H    0.159922
    13  H    0.135994
    14  H    0.190307
    15  C    0.607012
    16  O   -0.531836
    17  N   -0.615183
    18  H    0.333264
    19  C   -0.051482
    20  H    0.166838
    21  C   -0.426523
    22  H    0.176452
    23  H    0.170936
    24  H    0.127410
    25  C    0.633880
    26  O   -0.530127
    27  N   -0.591872
    28  H    0.351419
    29  C   -0.039672
    30  H    0.161221
    31  C   -0.442160
    32  H    0.177338
    33  H    0.129113
    34  H    0.189092
    35  C    0.608987
    36  O   -0.530421
    37  N   -0.593080
    38  H    0.330300
    39  C   -0.312941
    40  H    0.206937
    41  H    0.161468
    42  H    0.161295
 Sum of Mulliken atomic charges =   0.00000

 Dipole moment (field-independent basis, Debye):
    X=              3.7396    Y=             -0.1510    Z=             -0.0480  Tot=              3.7429
 Quadrupole moment (field-independent basis, Debye-Ang):
   XX=           -113.5767   YY=           -115.4961   ZZ=           -119.7905
   XY=            -18.3716   XZ=             -5.4126   YZ=            -13.4421

 Normal termination of Gaussian 09 at Thu Dec 29 02:32:17 2016.
