 Gaussian 09, Revision A.02,
 Gaussian 09:  EM64L-G09RevA.02 11-Jun-2009

 ----------------------------------------------------------------------
 # b3lyp/6-31G* Opt=(ModRedundant, maxcycles=1000, calcfc) geom=nocrowd
 ----------------------------------------------------------------------

 ------------------
 Phi Psi fixed scan
 ------------------
 Symbolic Z-matrix:
 Charge =  0 Multiplicity = 1

 SCF Done:  E(RB3LYP) =  -990.176933522     A.U. after   20 cycles

  Exact polarizability:   0.000   0.000   0.000   0.000   0.000   0.000
 Approx polarizability: 319.280  -8.364 266.869 -29.637  15.619 180.829

 SCF Done:  E(RB3LYP) =  -990.245602811     A.U. after   16 cycles
 SCF Done:  E(RB3LYP) =  -990.347510920     A.U. after   15 cycles
 SCF Done:  E(RB3LYP) =  -990.413243548     A.U. after   15 cycles
 SCF Done:  E(RB3LYP) =  -990.458423793     A.U. after   14 cycles
 SCF Done:  E(RB3LYP) =  -990.473405717     A.U. after   14 cycles
 SCF Done:  E(RB3LYP) =  -990.440258161     A.U. after   16 cycles
 SCF Done:  E(RB3LYP) =  -990.475084138     A.U. after   15 cycles
 SCF Done:  E(RB3LYP) =  -990.480612459     A.U. after   13 cycles
 SCF Done:  E(RB3LYP) =  -990.309700450     A.U. after   14 cycles
 SCF Done:  E(RB3LYP) =  -990.492670320     A.U. after    9 cycles
 SCF Done:  E(RB3LYP) =  -990.492671363     A.U. after    9 cycles
 SCF Done:  E(RB3LYP) =  -990.492672126     A.U. after    8 cycles
 SCF Done:  E(RB3LYP) =  -990.492672780     A.U. after    8 cycles
 SCF Done:  E(RB3LYP) =  -990.492673118     A.U. after    7 cycles
 SCF Done:  E(RB3LYP) =  -990.492673237     A.U. after    7 cycles
 SCF Done:  E(RB3LYP) =  -990.492673289     A.U. after    7 cycles
 SCF Done:  E(RB3LYP) =  -990.492673314     A.U. after    7 cycles
 SCF Done:  E(RB3LYP) =  -990.492673316     A.U. after    6 cycles
 SCF Done:  E(RB3LYP) =  -990.492673317     A.U. after    6 cycles
 Optimization completed.
    -- Stationary point found.

                         Standard orientation:
 ---------------------------------------------------------------------
 Center     Atomic      Atomic             Coordinates (Angstroms)
 Number     Number       Type             X           Y           Z
 ---------------------------------------------------------------------
      1          1           0       -5.378894   -3.324700    0.679375
      2          6           0       -4.505584   -3.120418    0.052255
      3          1           0       -4.671078   -3.618027   -0.908423
      4          1           0       -3.617050   -3.547614    0.526801
      5          6           0       -4.410676   -1.620897   -0.183709
      6          8           0       -5.322746   -0.980454   -0.699686
      7          7           0       -3.246626   -1.034946    0.216506
      8          1           0       -2.473485   -1.567592    0.596821
      9          6           0       -2.991182    0.375351    0.004332
     10          1           0       -3.421408    0.649148   -0.966757
     11          6           0       -3.640754    1.252497    1.093396
     12          1           0       -3.234320    1.000691    2.078306
     13          1           0       -3.465908    2.318172    0.905888
     14          1           0       -4.718368    1.070681    1.093492
     15          6           0       -1.462178    0.562998   -0.008829
     16          8           0       -0.743152   -0.258292    0.563623
     17          7           0       -1.054949    1.683174   -0.653906
     18          1           0       -1.813428    2.193494   -1.089598
     19          6           0        0.231231    2.397799   -0.854916
     20          1           0        0.423826    2.363890   -1.937736
     21          6           0        0.010403    3.864312   -0.456440
     22          1           0       -0.205554    3.942330    0.614032
     23          1           0        0.908668    4.442377   -0.672036
     24          1           0       -0.832285    4.292022   -1.013168
     25          6           0        1.576624    1.895097   -0.251988
     26          8           0        2.470913    2.733731   -0.131234
     27          7           0        1.776606    0.575344   -0.059864
     28          1           0        0.977614   -0.053539    0.051220
     29          6           0        3.073354    0.093306    0.392275
     30          1           0        3.832872    0.724907   -0.079100
     31          6           0        3.227850    0.187370    1.922755
     32          1           0        2.461369   -0.417819    2.417015
     33          1           0        4.213469   -0.172275    2.240104
     34          1           0        3.120029    1.229933    2.234281
     35          6           0        3.215521   -1.365857   -0.062422
     36          8           0        2.258449   -2.131551   -0.073078
     37          7           0        4.485151   -1.738747   -0.394242
     38          1           0        5.207765   -1.033312   -0.402960
     39          6           0        4.831460   -3.096386   -0.777306
     40          1           0        3.925095   -3.697634   -0.694831
     41          1           0        5.194955   -3.137725   -1.810963
     42          1           0        5.600726   -3.509696   -0.114624
 ---------------------------------------------------------------------

 The electronic state is 1-A.
 Alpha  occ. eigenvalues --  -19.13859 -19.11331 -19.10967 -19.10079 -14.38658
 Alpha  occ. eigenvalues --  -14.36768 -14.35267 -14.34539 -10.31039 -10.28953
 Alpha  occ. eigenvalues --  -10.28668 -10.28083 -10.25550 -10.24215 -10.23184
 Alpha  occ. eigenvalues --  -10.22141 -10.18910 -10.18837 -10.18572 -10.18120
 Alpha  occ. eigenvalues --   -1.05717  -1.03575  -1.02832  -1.02116  -0.94697
 Alpha  occ. eigenvalues --   -0.92412  -0.91834  -0.91407  -0.79806  -0.77141
 Alpha  occ. eigenvalues --   -0.76222  -0.72268  -0.71072  -0.67283  -0.65861
 Alpha  occ. eigenvalues --   -0.63546  -0.61103  -0.58675  -0.58099  -0.57230
 Alpha  occ. eigenvalues --   -0.54285  -0.52913  -0.50122  -0.49013  -0.48178
 Alpha  occ. eigenvalues --   -0.47068  -0.46233  -0.45721  -0.45233  -0.45028
 Alpha  occ. eigenvalues --   -0.43615  -0.43110  -0.42261  -0.41968  -0.41781
 Alpha  occ. eigenvalues --   -0.41273  -0.40481  -0.39470  -0.39382  -0.39007
 Alpha  occ. eigenvalues --   -0.38918  -0.38514  -0.37902  -0.37301  -0.36930
 Alpha  occ. eigenvalues --   -0.36384  -0.36349  -0.34812  -0.34192  -0.27996
 Alpha  occ. eigenvalues --   -0.27537  -0.26053  -0.25675  -0.24885  -0.24586
 Alpha  occ. eigenvalues --   -0.24237  -0.24053
 Alpha virt. eigenvalues --    0.00584   0.01638   0.03112   0.03618   0.05629
 Alpha virt. eigenvalues --    0.06934   0.09645   0.11517   0.12011   0.12522
 Alpha virt. eigenvalues --    0.12849   0.13319   0.13815   0.14352   0.14800

 Mulliken atomic charges:
              1
     1  H    0.182549
     2  C   -0.533510
     3  H    0.183514
     4  H    0.151414
     5  C    0.596963
     6  O   -0.524645
     7  N   -0.604743
     8  H    0.351554
     9  C   -0.035831
    10  H    0.169965
    11  C   -0.442882
    12  H    0.161099
    13  H    0.137755
    14  H    0.190685
    15  C    0.622149
    16  O   -0.543414
    17  N   -0.620158
    18  H    0.337202
    19  C   -0.044756
    20  H    0.183664
    21  C   -0.447258
    22  H    0.162859
    23  H    0.196012
    24  H    0.130405
    25  C    0.622808
    26  O   -0.541065
    27  N   -0.635669
    28  H    0.401826
    29  C   -0.045185
    30  H    0.160778
    31  C   -0.445689
    32  H    0.170059
    33  H    0.140489
    34  H    0.176677
    35  C    0.608651
    36  O   -0.521089
    37  N   -0.593482
    38  H    0.328053
    39  C   -0.311816
    40  H    0.205979
    41  H    0.159729
    42  H    0.158352
 Sum of Mulliken atomic charges =   0.00000

 Dipole moment (field-independent basis, Debye):
    X=              3.1594    Y=              0.2241    Z=             -0.3208  Tot=              3.1835
 Quadrupole moment (field-independent basis, Debye-Ang):
   XX=           -119.1507   YY=           -115.5025   ZZ=           -116.3316
   XY=            -14.1136   XZ=             -7.0446   YZ=             -3.1035

 Normal termination of Gaussian 09 at Thu Dec 29 03:45:20 2016.
