 Gaussian 09, Revision A.02,
 Gaussian 09:  EM64L-G09RevA.02 11-Jun-2009

 ----------------------------------------------------------------------
 # b3lyp/6-31G* Opt=(ModRedundant, maxcycles=1000, calcfc) geom=nocrowd
 ----------------------------------------------------------------------

 ------------------
 Phi Psi fixed scan
 ------------------
 Symbolic Z-matrix:
 Charge =  0 Multiplicity = 1

 SCF Done:  E(RB3LYP) =  -990.325694844     A.U. after   17 cycles

  Exact polarizability:   0.000   0.000   0.000   0.000   0.000   0.000
 Approx polarizability: 281.446  -0.108 247.953   5.861 -39.249 187.769

 SCF Done:  E(RB3LYP) =  -990.358945821     A.U. after   15 cycles
 SCF Done:  E(RB3LYP) =  -990.408697617     A.U. after   15 cycles
 SCF Done:  E(RB3LYP) =  -990.447895085     A.U. after   16 cycles
 SCF Done:  E(RB3LYP) =  -990.463195345     A.U. after   13 cycles
 SCF Done:  E(RB3LYP) =  -990.476549478     A.U. after   15 cycles
 SCF Done:  E(RB3LYP) =  -990.479361957     A.U. after   16 cycles
 SCF Done:  E(RB3LYP) =  -990.480997298     A.U. after   15 cycles
 SCF Done:  E(RB3LYP) =  -990.484359471     A.U. after   14 cycles
 SCF Done:  E(RB3LYP) =  -990.485498273     A.U. after   12 cycles
 SCF Done:  E(RB3LYP) =  -990.488533223     A.U. after   10 cycles
 SCF Done:  E(RB3LYP) =  -990.488534472     A.U. after    9 cycles
 SCF Done:  E(RB3LYP) =  -990.488535047     A.U. after    8 cycles
 SCF Done:  E(RB3LYP) =  -990.488535649     A.U. after    8 cycles
 SCF Done:  E(RB3LYP) =  -990.488536198     A.U. after    7 cycles
 SCF Done:  E(RB3LYP) =  -990.488536988     A.U. after    9 cycles
 SCF Done:  E(RB3LYP) =  -990.488537806     A.U. after    9 cycles
 SCF Done:  E(RB3LYP) =  -990.488538658     A.U. after    9 cycles
 SCF Done:  E(RB3LYP) =  -990.488538973     A.U. after    8 cycles
 SCF Done:  E(RB3LYP) =  -990.488538990     A.U. after    7 cycles
 Optimization completed.
    -- Stationary point found.

                         Standard orientation:
 ---------------------------------------------------------------------
 Center     Atomic      Atomic             Coordinates (Angstroms)
 Number     Number       Type             X           Y           Z
 ---------------------------------------------------------------------
      1          1           0       -6.773085   -2.044375   -1.151784
      2          6           0       -6.140358   -2.065861   -0.259075
      3          1           0       -5.423583   -2.887976   -0.347843
      4          1           0       -6.793898   -2.254929    0.598425
      5          6           0       -5.487332   -0.701712   -0.087862
      6          8           0       -6.148550    0.329545    0.007050
      7          7           0       -4.127033   -0.704681   -0.040990
      8          1           0       -3.578938   -1.545118   -0.184807
      9          6           0       -3.354706    0.516304    0.062707
     10          1           0       -3.827157    1.275488   -0.574790
     11          6           0       -3.307725    1.050000    1.508565
     12          1           0       -2.806678    0.331049    2.164147
     13          1           0       -2.768990    2.002886    1.564764
     14          1           0       -4.331106    1.209654    1.857004
     15          6           0       -1.939347    0.198431   -0.447681
     16          8           0       -1.550328   -0.953666   -0.560856
     17          7           0       -1.210631    1.307724   -0.828556
     18          1           0       -1.733074    2.168266   -0.706208
     19          6           0        0.230762    1.542443   -0.650086
     20          1           0        0.678476    1.698796   -1.641668
     21          6           0        0.440995    2.815968    0.186897
     22          1           0        0.057854    2.664690    1.200951
     23          1           0        1.505350    3.062191    0.247106
     24          1           0       -0.076182    3.669270   -0.268632
     25          6           0        0.984941    0.393340    0.048171
     26          8           0        0.537533   -0.188161    1.028990
     27          7           0        2.284066    0.283866   -0.340698
     28          1           0        2.645276    0.727636   -1.178227
     29          6           0        3.201475   -0.637984    0.302057
     30          1           0        3.095901   -0.518503    1.387317
     31          6           0        2.908819   -2.107058   -0.064964
     32          1           0        3.031413   -2.261713   -1.141948
     33          1           0        3.584857   -2.789209    0.463105
     34          1           0        1.880219   -2.345685    0.215349
     35          6           0        4.613983   -0.229647   -0.145833
     36          8           0        4.792545    0.432544   -1.165874
     37          7           0        5.622419   -0.683368    0.643989
     38          1           0        5.383268   -1.208769    1.473108
     39          6           0        7.026979   -0.463921    0.340088
     40          1           0        7.075051    0.117623   -0.581139
     41          1           0        7.520140    0.094542    1.143718
     42          1           0        7.552620   -1.414520    0.193469
 ---------------------------------------------------------------------

 The electronic state is 1-A.
 Alpha  occ. eigenvalues --  -19.13011 -19.11899 -19.11261 -19.09239 -14.38024
 Alpha  occ. eigenvalues --  -14.36439 -14.36093 -14.34281 -10.30171 -10.28979
 Alpha  occ. eigenvalues --  -10.28962 -10.27252 -10.24929 -10.24422 -10.23129
 Alpha  occ. eigenvalues --  -10.22945 -10.20137 -10.18778 -10.17975 -10.17708
 Alpha  occ. eigenvalues --   -1.05065  -1.04181  -1.02934  -1.01202  -0.93779
 Alpha  occ. eigenvalues --   -0.93001  -0.92579  -0.90783  -0.79764  -0.77414
 Alpha  occ. eigenvalues --   -0.75705  -0.71984  -0.71504  -0.67653  -0.65769
 Alpha  occ. eigenvalues --   -0.63390  -0.60654  -0.59098  -0.58339  -0.56760
 Alpha  occ. eigenvalues --   -0.53848  -0.52117  -0.50036  -0.48762  -0.48308
 Alpha  occ. eigenvalues --   -0.46913  -0.46695  -0.45593  -0.44956  -0.44761
 Alpha  occ. eigenvalues --   -0.44151  -0.43002  -0.42615  -0.42266  -0.41286
 Alpha  occ. eigenvalues --   -0.40913  -0.40528  -0.40261  -0.39999  -0.38707
 Alpha  occ. eigenvalues --   -0.38566  -0.38167  -0.37854  -0.37452  -0.37414
 Alpha  occ. eigenvalues --   -0.36363  -0.35996  -0.34697  -0.33209  -0.27484
 Alpha  occ. eigenvalues --   -0.27071  -0.26592  -0.26012  -0.25218  -0.24277
 Alpha  occ. eigenvalues --   -0.23856  -0.23212
 Alpha virt. eigenvalues --    0.00992   0.01648   0.02333   0.04354   0.05860
 Alpha virt. eigenvalues --    0.06326   0.09104   0.10306   0.11112   0.11778
 Alpha virt. eigenvalues --    0.13038   0.13624   0.13688   0.14280   0.14903

 Mulliken atomic charges:
              1
     1  H    0.180274
     2  C   -0.532561
     3  H    0.147844
     4  H    0.180432
     5  C    0.597617
     6  O   -0.527771
     7  N   -0.604473
     8  H    0.346748
     9  C   -0.044102
    10  H    0.167291
    11  C   -0.444469
    12  H    0.169807
    13  H    0.130085
    14  H    0.186883
    15  C    0.624586
    16  O   -0.505772
    17  N   -0.621939
    18  H    0.324697
    19  C   -0.008707
    20  H    0.148268
    21  C   -0.476254
    22  H    0.181729
    23  H    0.168891
    24  H    0.153049
    25  C    0.637618
    26  O   -0.526320
    27  N   -0.624974
    28  H    0.348411
    29  C   -0.031976
    30  H    0.166489
    31  C   -0.448635
    32  H    0.160499
    33  H    0.135137
    34  H    0.204736
    35  C    0.607663
    36  O   -0.531848
    37  N   -0.592700
    38  H    0.332348
    39  C   -0.314008
    40  H    0.207867
    41  H    0.163705
    42  H    0.163835
 Sum of Mulliken atomic charges =   0.00000

 Dipole moment (field-independent basis, Debye):
    X=              6.3255    Y=              0.0327    Z=              1.2659  Tot=              6.4510
 Quadrupole moment (field-independent basis, Debye-Ang):
   XX=           -119.7099   YY=           -108.3888   ZZ=           -119.8431
   XY=             -0.8784   XZ=             12.9785   YZ=             -1.9819

 Normal termination of Gaussian 09 at Thu Dec 29 05:26:58 2016.
