 Gaussian 09, Revision A.02,
 Gaussian 09:  EM64L-G09RevA.02 11-Jun-2009

 ----------------------------------------------------------------------
 # b3lyp/6-31G* Opt=(ModRedundant, maxcycles=1000, calcfc) geom=nocrowd
 ----------------------------------------------------------------------

 ------------------
 Phi Psi fixed scan
 ------------------
 Symbolic Z-matrix:
 Charge =  0 Multiplicity = 1

 SCF Done:  E(RB3LYP) =  -990.470619423     A.U. after   15 cycles

  Exact polarizability:   0.000   0.000   0.000   0.000   0.000   0.000
 Approx polarizability: 226.327 -16.823 216.908  21.552 -17.679 229.096

 SCF Done:  E(RB3LYP) =  -990.481807197     A.U. after   12 cycles
 SCF Done:  E(RB3LYP) =  -990.492802579     A.U. after   13 cycles
 SCF Done:  E(RB3LYP) =  -990.494744276     A.U. after   12 cycles
 SCF Done:  E(RB3LYP) =  -990.496329254     A.U. after   13 cycles
 SCF Done:  E(RB3LYP) =  -990.496887716     A.U. after   13 cycles
 SCF Done:  E(RB3LYP) =  -990.497265616     A.U. after   12 cycles
 SCF Done:  E(RB3LYP) =  -990.497167584     A.U. after   12 cycles
 SCF Done:  E(RB3LYP) =  -990.497314370     A.U. after   12 cycles
 SCF Done:  E(RB3LYP) =  -990.497197403     A.U. after   11 cycles
 SCF Done:  E(RB3LYP) =  -990.497377070     A.U. after   12 cycles
 SCF Done:  E(RB3LYP) =  -990.497396091     A.U. after   11 cycles
 SCF Done:  E(RB3LYP) =  -990.497400742     A.U. after   10 cycles
 SCF Done:  E(RB3LYP) =  -990.497403020     A.U. after    9 cycles
 SCF Done:  E(RB3LYP) =  -990.497404365     A.U. after    9 cycles
 SCF Done:  E(RB3LYP) =  -990.497405842     A.U. after    9 cycles
 SCF Done:  E(RB3LYP) =  -990.497406926     A.U. after    9 cycles
 SCF Done:  E(RB3LYP) =  -990.497407638     A.U. after    9 cycles
 SCF Done:  E(RB3LYP) =  -990.497408422     A.U. after    9 cycles
 SCF Done:  E(RB3LYP) =  -990.497408523     A.U. after    8 cycles
 Optimization completed.
    -- Stationary point found.

                         Standard orientation:
 ---------------------------------------------------------------------
 Center     Atomic      Atomic             Coordinates (Angstroms)
 Number     Number       Type             X           Y           Z
 ---------------------------------------------------------------------
      1          1           0       -4.513302   -3.895080   -0.537087
      2          6           0       -4.469716   -3.208358    0.313930
      3          1           0       -3.625652   -3.484275    0.953394
      4          1           0       -5.399109   -3.330933    0.878872
      5          6           0       -4.398445   -1.781793   -0.210674
      6          8           0       -5.259766   -1.315416   -0.951772
      7          7           0       -3.320240   -1.058008    0.200482
      8          1           0       -2.577360   -1.458727    0.761093
      9          6           0       -3.083687    0.296034   -0.257068
     10          1           0       -3.344728    0.346108   -1.321827
     11          6           0       -3.944204    1.322663    0.506340
     12          1           0       -3.699551    1.308207    1.573383
     13          1           0       -3.786585    2.339275    0.128099
     14          1           0       -4.997668    1.063462    0.375663
     15          6           0       -1.580903    0.577470   -0.064586
     16          8           0       -0.897759   -0.115655    0.683720
     17          7           0       -1.119570    1.644114   -0.771236
     18          1           0       -1.796007    2.124325   -1.351046
     19          6           0        0.199821    2.294893   -0.717123
     20          1           0        0.650465    2.191576   -1.714518
     21          6           0        0.039000    3.781231   -0.391978
     22          1           0       -0.309322    3.900122    0.636365
     23          1           0        0.999567    4.296743   -0.489277
     24          1           0       -0.672386    4.255571   -1.078577
     25          6           0        1.170379    1.641584    0.301556
     26          8           0        1.295463    2.076641    1.439950
     27          7           0        1.933260    0.644440   -0.208540
     28          1           0        1.765546    0.258426   -1.130754
     29          6           0        2.863534   -0.112441    0.607421
     30          1           0        3.438085    0.601995    1.208919
     31          6           0        2.153376   -1.102603    1.552255
     32          1           0        1.591202   -1.841786    0.974258
     33          1           0        2.879279   -1.625730    2.185641
     34          1           0        1.453825   -0.554984    2.186395
     35          6           0        3.789454   -0.859044   -0.365293
     36          8           0        3.436048   -1.112770   -1.514655
     37          7           0        4.986957   -1.239154    0.155109
     38          1           0        5.202100   -0.974823    1.106070
     39          6           0        5.959130   -2.024307   -0.586719
     40          1           0        5.549996   -2.192610   -1.583508
     41          1           0        6.911403   -1.489087   -0.674856
     42          1           0        6.139027   -2.991906   -0.103713
 ---------------------------------------------------------------------

 The electronic state is 1-A.
 Alpha  occ. eigenvalues --  -19.12703 -19.12371 -19.10866 -19.09784 -14.37712
 Alpha  occ. eigenvalues --  -14.37462 -14.35305 -14.34907 -10.29918 -10.29526
 Alpha  occ. eigenvalues --  -10.28613 -10.27798 -10.24725 -10.23670 -10.23665
 Alpha  occ. eigenvalues --  -10.22687 -10.18788 -10.18437 -10.18393 -10.17798
 Alpha  occ. eigenvalues --   -1.04814  -1.04369  -1.02711  -1.01783  -0.93837
 Alpha  occ. eigenvalues --   -0.93200  -0.91978  -0.91396  -0.79504  -0.77284
 Alpha  occ. eigenvalues --   -0.75846  -0.72014  -0.71432  -0.67315  -0.65729
 Alpha  occ. eigenvalues --   -0.63167  -0.60875  -0.59274  -0.57699  -0.57460
 Alpha  occ. eigenvalues --   -0.54190  -0.52587  -0.49431  -0.49006  -0.47762
 Alpha  occ. eigenvalues --   -0.47638  -0.46216  -0.45781  -0.45399  -0.44749
 Alpha  occ. eigenvalues --   -0.43806  -0.43241  -0.42347  -0.41517  -0.41444
 Alpha  occ. eigenvalues --   -0.41166  -0.40234  -0.40018  -0.39480  -0.38755
 Alpha  occ. eigenvalues --   -0.38519  -0.37884  -0.37282  -0.37199  -0.36947
 Alpha  occ. eigenvalues --   -0.36661  -0.36284  -0.35115  -0.33842  -0.26899
 Alpha  occ. eigenvalues --   -0.26712  -0.26621  -0.26424  -0.24900  -0.24379
 Alpha  occ. eigenvalues --   -0.24324  -0.23760
 Alpha virt. eigenvalues --    0.01497   0.01595   0.02553   0.03939   0.06159
 Alpha virt. eigenvalues --    0.06550   0.09770   0.09980   0.11485   0.12428
 Alpha virt. eigenvalues --    0.13351   0.13623   0.14361   0.14445   0.15092

 Mulliken atomic charges:
              1
     1  H    0.182117
     2  C   -0.532861
     3  H    0.147500
     4  H    0.182199
     5  C    0.597196
     6  O   -0.525211
     7  N   -0.604962
     8  H    0.346055
     9  C   -0.036016
    10  H    0.168905
    11  C   -0.443655
    12  H    0.161683
    13  H    0.134185
    14  H    0.190494
    15  C    0.620625
    16  O   -0.528433
    17  N   -0.619794
    18  H    0.330846
    19  C   -0.028329
    20  H    0.152016
    21  C   -0.447994
    22  H    0.189176
    23  H    0.162402
    24  H    0.131687
    25  C    0.646372
    26  O   -0.530248
    27  N   -0.607015
    28  H    0.347622
    29  C   -0.039452
    30  H    0.163677
    31  C   -0.435854
    32  H    0.163214
    33  H    0.127056
    34  H    0.203164
    35  C    0.608196
    36  O   -0.532858
    37  N   -0.592650
    38  H    0.331151
    39  C   -0.313195
    40  H    0.207052
    41  H    0.161919
    42  H    0.162017
 Sum of Mulliken atomic charges =   0.00000

 Dipole moment (field-independent basis, Debye):
    X=              4.3539    Y=              0.1071    Z=              0.2894  Tot=              4.3648
 Quadrupole moment (field-independent basis, Debye-Ang):
   XX=           -114.2517   YY=           -110.0404   ZZ=           -123.4945
   XY=            -11.3438   XZ=             -0.3123   YZ=            -13.8532

 Normal termination of Gaussian 09 at Thu Dec 29 01:31:28 2016.
