 Gaussian 09, Revision A.02,
 Gaussian 09:  EM64L-G09RevA.02 11-Jun-2009

 -------------------
 #SP MP2/aug-cc-pVDZ
 -------------------

 ------------------
 Phi Psi fixed scan
 ------------------
 Symbolic Z-matrix:
 Charge =  0 Multiplicity = 1

                         Standard orientation:
 ---------------------------------------------------------------------
 Center     Atomic      Atomic             Coordinates (Angstroms)
 Number     Number       Type             X           Y           Z
 ---------------------------------------------------------------------
      1          1           0       -6.860189   -1.759818   -0.415291
      2          6           0       -6.409592   -0.793316   -0.168891
      3          1           0       -7.026493   -0.336218    0.611009
      4          1           0       -6.426794   -0.155916   -1.058191
      5          6           0       -5.012891   -1.029912    0.386409
      6          8           0       -4.815289   -1.711312    1.388609
      7          7           0       -3.997893   -0.440509   -0.306291
      8          1           0       -4.166895    0.184490   -1.085391
      9          6           0       -2.619993   -0.522605    0.135509
     10          1           0       -2.611193   -0.455905    1.231309
     11          6           0       -1.954688   -1.852203   -0.275591
     12          1           0       -1.950388   -1.954103   -1.365791
     13          1           0       -0.921288   -1.915300    0.082409
     14          1           0       -2.526486   -2.676804    0.157209
     15          6           0       -1.880096    0.680197   -0.468391
     16          8           0       -2.343198    1.320896   -1.406291
     17          7           0       -0.642997    0.927201    0.067409
     18          1           0       -0.474496    0.544902    0.991509
     19          6           0        0.111399    2.133304   -0.281591
     20          1           0       -0.137501    2.345103   -1.325691
     21          6           0       -0.282804    3.347602    0.571809
     22          1           0       -0.113804    3.149803    1.637409
     23          1           0        0.323393    4.209304    0.283309
     24          1           0       -1.340505    3.581199    0.420909
     25          6           0        1.633400    1.912908   -0.220691
     26          8           0        2.404797    2.843311   -0.434891
     27          7           0        2.049404    0.668010    0.137409
     28          1           0        1.415606   -0.122992    0.073409
     29          6           0        3.454905    0.303914    0.123009
     30          1           0        3.938503    0.798315   -0.730491
     31          6           0        4.168504    0.750116    1.412509
     32          1           0        3.724205    0.261915    2.285909
     33          1           0        5.237104    0.508719    1.385509
     34          1           0        4.064000    1.833016    1.516809
     35          6           0        3.507210   -1.223686   -0.068791
     36          8           0        2.493612   -1.915089    0.017409
     37          7           0        4.741011   -1.731182   -0.321191
     38          1           0        5.516209   -1.089180   -0.407391
     39          6           0        4.991516   -3.151181   -0.509091
     40          1           0        4.042117   -3.671484   -0.379691
     41          1           0        5.376816   -3.353080   -1.514991
     42          1           0        5.710817   -3.523879    0.228909
 ---------------------------------------------------------------------

 SCF Done:  E(RHF) =  -984.697611839     A.U. after   15 cycles
 E2 =    -0.3192826999D+01 EUMP2 =    -0.98789043883805D+03

 The electronic state is 1-A.
 Alpha  occ. eigenvalues --  -20.55387 -20.55270 -20.53765 -20.52391 -15.61458
 Alpha  occ. eigenvalues --  -15.61074 -15.59818 -15.58959 -11.38037 -11.37783
 Alpha  occ. eigenvalues --  -11.36766 -11.35844 -11.30377 -11.29700 -11.29587
 Alpha  occ. eigenvalues --  -11.28260 -11.24637 -11.24252 -11.23540 -11.23344
 Alpha  occ. eigenvalues --   -1.40840  -1.40689  -1.39079  -1.37775  -1.26235
 Alpha  occ. eigenvalues --   -1.25298  -1.23913  -1.23553  -1.07390  -1.05254
 Alpha  occ. eigenvalues --   -1.02814  -0.98531  -0.97103  -0.92123  -0.89930
 Alpha  occ. eigenvalues --   -0.86983  -0.81572  -0.81049  -0.78864  -0.78533
 Alpha  occ. eigenvalues --   -0.76062  -0.71577  -0.69092  -0.68301  -0.67384
 Alpha  occ. eigenvalues --   -0.65849  -0.65506  -0.64085  -0.63460  -0.62870
 Alpha  occ. eigenvalues --   -0.62072  -0.61253  -0.60484  -0.60127  -0.58569
 Alpha  occ. eigenvalues --   -0.58124  -0.56894  -0.56756  -0.56382  -0.55936
 Alpha  occ. eigenvalues --   -0.55402  -0.54523  -0.54271  -0.53176  -0.52993
 Alpha  occ. eigenvalues --   -0.52356  -0.52027  -0.50106  -0.49195  -0.44575
 Alpha  occ. eigenvalues --   -0.44435  -0.44085  -0.42026  -0.41667  -0.40817
 Alpha  occ. eigenvalues --   -0.39928  -0.38809
 Alpha virt. eigenvalues --    0.02374   0.03462   0.03762   0.04011   0.04341
 Alpha virt. eigenvalues --    0.04846   0.05189   0.05822   0.06128   0.06275
 Alpha virt. eigenvalues --    0.06492   0.06854   0.07140   0.07554   0.07853

 Mulliken atomic charges:
              1
     1  H    0.047465
     2  C    0.368153
     3  H    0.043809
     4  H   -0.163862
     5  C    0.522279
     6  O   -0.870734
     7  N   -0.153129
     8  H   -0.093898
     9  C   -0.068367
    10  H   -0.201185
    11  C    0.928476
    12  H   -0.079470
    13  H   -0.126199
    14  H   -0.085428
    15  C    0.814524
    16  O   -0.879568
    17  N    0.020772
    18  H   -0.090539
    19  C   -0.595116
    20  H   -0.087061
    21  C    0.940654
    22  H   -0.055014
    23  H   -0.054711
    24  H   -0.078071
    25  C    0.869800
    26  O   -0.894092
    27  N   -0.191761
    28  H    0.020208
    29  C   -0.377641
    30  H   -0.175621
    31  C    0.862752
    32  H   -0.050337
    33  H   -0.118855
    34  H   -0.053550
    35  C    1.171478
    36  O   -0.867785
    37  N   -0.465287
    38  H   -0.118323
    39  C    0.725384
    40  H   -0.142268
    41  H   -0.090235
    42  H   -0.107647
 Sum of Mulliken atomic charges =   0.00000

 Dipole moment (field-independent basis, Debye):
    X=              4.3904    Y=             -1.0057    Z=             -0.1929  Tot=              4.5083
 Quadrupole moment (field-independent basis, Debye-Ang):
   XX=            -94.6076   YY=           -136.0195   ZZ=           -126.9256
   XY=            -20.7726   XZ=              9.0658   YZ=             12.3224

 Normal termination of Gaussian 09 at Tue Jan 17 10:52:00 2017.
