 Gaussian 09, Revision A.02,
 Gaussian 09:  EM64L-G09RevA.02 11-Jun-2009

 -------------------
 #SP MP2/aug-cc-pVDZ
 -------------------

 ------------------
 Phi Psi fixed scan
 ------------------
 Symbolic Z-matrix:
 Charge =  0 Multiplicity = 1

                         Standard orientation:
 ---------------------------------------------------------------------
 Center     Atomic      Atomic             Coordinates (Angstroms)
 Number     Number       Type             X           Y           Z
 ---------------------------------------------------------------------
      1          1           0       -7.149401    1.316108    0.140496
      2          6           0       -6.468401    0.850407   -0.578804
      3          1           0       -6.718301    1.247608   -1.567504
      4          1           0       -6.632901   -0.231392   -0.575404
      5          6           0       -5.041401    1.252907   -0.236304
      6          8           0       -4.681801    2.427207   -0.216704
      7          7           0       -4.194801    0.225807    0.053096
      8          1           0       -4.471301   -0.745793   -0.028604
      9          6           0       -2.790701    0.443707    0.337996
     10          1           0       -2.416301    1.215007   -0.347304
     11          6           0       -2.561701    0.924807    1.784996
     12          1           0       -2.912201    0.172207    2.498796
     13          1           0       -1.501001    1.120907    1.979696
     14          1           0       -3.119701    1.851807    1.938196
     15          6           0       -2.069101   -0.886793    0.071096
     16          8           0       -2.681102   -1.949793   -0.012404
     17          7           0       -0.717101   -0.803393   -0.047304
     18          1           0       -0.269701    0.095507    0.072096
     19          6           0        0.129098   -2.000594   -0.148004
     20          1           0       -0.317802   -2.770593    0.483996
     21          6           0        0.214498   -2.523294   -1.590604
     22          1           0        0.628098   -1.770594   -2.271004
     23          1           0        0.846598   -3.416894   -1.635404
     24          1           0       -0.788302   -2.787893   -1.936204
     25          6           0        1.507598   -1.704194    0.463796
     26          8           0        1.945998   -2.332094    1.420696
     27          7           0        2.195499   -0.688194   -0.129704
     28          1           0        1.867299   -0.214094   -0.965204
     29          6           0        3.498499   -0.248194    0.335496
     30          1           0        3.467399   -0.190894    1.430396
     31          6           0        4.623999   -1.217294   -0.076104
     32          1           0        4.689699   -1.285194   -1.167004
     33          1           0        5.594499   -0.885194    0.309396
     34          1           0        4.407598   -2.206894    0.333296
     35          6           0        3.721299    1.151106   -0.264204
     36          8           0        3.070199    1.535806   -1.233804
     37          7           0        4.691599    1.889106    0.332996
     38          1           0        5.159199    1.503806    1.141596
     39          6           0        5.081099    3.211606   -0.130504
     40          1           0        4.472599    3.444906   -1.004704
     41          1           0        4.902499    3.967006    0.642996
     42          1           0        6.139999    3.233206   -0.411604
 ---------------------------------------------------------------------

 SCF Done:  E(RHF) =  -984.694511622     A.U. after   15 cycles
 E2 =    -0.3192343289D+01 EUMP2 =    -0.98788685491050D+03

 The electronic state is 1-A.
 Alpha  occ. eigenvalues --  -20.55455 -20.54791 -20.54457 -20.52275 -15.61750
 Alpha  occ. eigenvalues --  -15.61052 -15.60392 -15.58837 -11.38241 -11.37439
 Alpha  occ. eigenvalues --  -11.37233 -11.35731 -11.30767 -11.29827 -11.29494
 Alpha  occ. eigenvalues --  -11.28452 -11.24720 -11.24149 -11.24029 -11.23665
 Alpha  occ. eigenvalues --   -1.41008  -1.40294  -1.39526  -1.37635  -1.26079
 Alpha  occ. eigenvalues --   -1.25544  -1.24256  -1.23460  -1.07823  -1.05341
 Alpha  occ. eigenvalues --   -1.02863  -0.98514  -0.97341  -0.92298  -0.90270
 Alpha  occ. eigenvalues --   -0.87453  -0.81781  -0.81000  -0.79688  -0.78471
 Alpha  occ. eigenvalues --   -0.76098  -0.71893  -0.69191  -0.68161  -0.67033
 Alpha  occ. eigenvalues --   -0.65735  -0.65298  -0.64301  -0.64083  -0.63287
 Alpha  occ. eigenvalues --   -0.62301  -0.60954  -0.60661  -0.60276  -0.59054
 Alpha  occ. eigenvalues --   -0.58472  -0.57405  -0.56640  -0.56419  -0.55972
 Alpha  occ. eigenvalues --   -0.55524  -0.54604  -0.54173  -0.53828  -0.53410
 Alpha  occ. eigenvalues --   -0.52487  -0.51579  -0.51086  -0.49174  -0.44793
 Alpha  occ. eigenvalues --   -0.44745  -0.43457  -0.41913  -0.41822  -0.40613
 Alpha  occ. eigenvalues --   -0.40090  -0.38701
 Alpha virt. eigenvalues --    0.02228   0.03574   0.03700   0.03915   0.04272
 Alpha virt. eigenvalues --    0.04930   0.05157   0.05668   0.06017   0.06407
 Alpha virt. eigenvalues --    0.06550   0.06689   0.07029   0.07599   0.07804

 Mulliken atomic charges:
              1
     1  H    0.047616
     2  C    0.364042
     3  H    0.044494
     4  H   -0.164060
     5  C    0.477623
     6  O   -0.868476
     7  N   -0.144085
     8  H   -0.094877
     9  C   -0.116637
    10  H   -0.182954
    11  C    0.873224
    12  H   -0.044018
    13  H   -0.078842
    14  H   -0.093426
    15  C    0.803960
    16  O   -0.901820
    17  N    0.129598
    18  H   -0.102317
    19  C   -0.197598
    20  H   -0.191035
    21  C    0.907886
    22  H   -0.090011
    23  H   -0.040593
    24  H   -0.092294
    25  C    0.674399
    26  O   -0.844669
    27  N   -0.298929
    28  H   -0.030052
    29  C   -0.382854
    30  H   -0.211361
    31  C    0.855762
    32  H   -0.020699
    33  H   -0.115214
    34  H   -0.037425
    35  C    1.252270
    36  O   -0.902252
    37  N   -0.453155
    38  H   -0.124617
    39  C    0.730071
    40  H   -0.144481
    41  H   -0.090578
    42  H   -0.101619
 Sum of Mulliken atomic charges =   0.00000

 Dipole moment (field-independent basis, Debye):
    X=              4.8800    Y=              0.8578    Z=              0.2692  Tot=              4.9621
 Quadrupole moment (field-independent basis, Debye-Ang):
   XX=            -93.6643   YY=           -139.3195   ZZ=           -125.0494
   XY=             19.8198   XZ=              4.9216   YZ=             13.0177

 Normal termination of Gaussian 09 at Tue Jan 17 19:36:37 2017.
