 Gaussian 09, Revision A.02,
 Gaussian 09:  EM64L-G09RevA.02 11-Jun-2009

 -------------------
 #SP MP2/aug-cc-pVDZ
 -------------------

 ------------------
 Phi Psi fixed scan
 ------------------
 Symbolic Z-matrix:
 Charge =  0 Multiplicity = 1

                         Standard orientation:
 ---------------------------------------------------------------------
 Center     Atomic      Atomic             Coordinates (Angstroms)
 Number     Number       Type             X           Y           Z
 ---------------------------------------------------------------------
      1          1           0        7.666899   -0.096190   -1.174599
      2          6           0        6.976000   -0.734891   -0.615399
      3          1           0        7.538201   -1.172890    0.215201
      4          1           0        6.623201   -1.537091   -1.270799
      5          6           0        5.857698    0.128607   -0.048799
      6          8           0        6.081897    1.068908    0.709101
      7          7           0        4.599199   -0.208495   -0.444099
      8          1           0        4.408800   -1.031195   -1.004799
      9          6           0        3.422498    0.469503    0.063201
     10          1           0        3.563098    0.651603    1.136201
     11          6           0        3.189196    1.825003   -0.632599
     12          1           0        3.032896    1.682103   -1.707099
     13          1           0        2.315895    2.341101   -0.218299
     14          1           0        4.069895    2.453504   -0.479999
     15          6           0        2.234700   -0.483299   -0.148399
     16          8           0        2.313301   -1.459099   -0.896399
     17          7           0        1.105899   -0.161501    0.526301
     18          1           0        1.050998    0.661499    1.116601
     19          6           0       -0.145000   -0.884003    0.359601
     20          1           0       -0.183699   -1.247803   -0.672499
     21          6           0       -0.254298   -2.085003    1.316901
     22          1           0       -0.213098   -1.747903    2.357701
     23          1           0       -1.194597   -2.625705    1.160901
     24          1           0        0.576803   -2.770602    1.130701
     25          6           0       -1.272102    0.126195    0.617601
     26          8           0       -1.115603    1.063996    1.401701
     27          7           0       -2.424201   -0.095507   -0.053799
     28          1           0       -2.549200   -0.896307   -0.665699
     29          6           0       -3.623402    0.693291    0.168301
     30          1           0       -3.715503    0.883791    1.244901
     31          6           0       -3.567005    2.044991   -0.569399
     32          1           0       -3.486105    1.887391   -1.649699
     33          1           0       -4.463506    2.643190   -0.371899
     34          1           0       -2.694106    2.603693   -0.223099
     35          6           0       -4.805501   -0.164411   -0.317699
     36          8           0       -4.627399   -1.136510   -1.048099
     37          7           0       -6.029502    0.253287    0.096301
     38          1           0       -6.081803    1.043687    0.723401
     39          6           0       -7.265801   -0.403115   -0.298499
     40          1           0       -7.004899   -1.205515   -0.989199
     41          1           0       -7.779900   -0.830916    0.569801
     42          1           0       -7.939502    0.300484   -0.799899
 ---------------------------------------------------------------------

 SCF Done:  E(RHF) =  -984.703072079     A.U. after   14 cycles
 E2 =    -0.3190890254D+01 EUMP2 =    -0.98789396233371D+03

 The electronic state is 1-A.
 Alpha  occ. eigenvalues --  -20.55398 -20.54740 -20.54158 -20.51900 -15.61679
 Alpha  occ. eigenvalues --  -15.60612 -15.59893 -15.58397 -11.38211 -11.37473
 Alpha  occ. eigenvalues --  -11.36851 -11.35357 -11.30827 -11.29909 -11.28938
 Alpha  occ. eigenvalues --  -11.28428 -11.24820 -11.23997 -11.23861 -11.23116
 Alpha  occ. eigenvalues --   -1.41038  -1.40130  -1.39342  -1.37234  -1.25521
 Alpha  occ. eigenvalues --   -1.25352  -1.24664  -1.23033  -1.07783  -1.05307
 Alpha  occ. eigenvalues --   -1.02553  -0.98136  -0.97309  -0.92257  -0.90264
 Alpha  occ. eigenvalues --   -0.86976  -0.82079  -0.80211  -0.79626  -0.78018
 Alpha  occ. eigenvalues --   -0.75985  -0.71561  -0.69090  -0.67774  -0.67165
 Alpha  occ. eigenvalues --   -0.65665  -0.65495  -0.64638  -0.64024  -0.62205
 Alpha  occ. eigenvalues --   -0.61861  -0.61171  -0.60811  -0.59860  -0.59575
 Alpha  occ. eigenvalues --   -0.58020  -0.57135  -0.56434  -0.56080  -0.55646
 Alpha  occ. eigenvalues --   -0.55325  -0.54497  -0.54038  -0.53817  -0.53282
 Alpha  occ. eigenvalues --   -0.52083  -0.51867  -0.50663  -0.48768  -0.44775
 Alpha  occ. eigenvalues --   -0.44238  -0.43332  -0.41910  -0.41528  -0.40674
 Alpha  occ. eigenvalues --   -0.39886  -0.38251
 Alpha virt. eigenvalues --    0.02236   0.03664   0.03807   0.03855   0.04423
 Alpha virt. eigenvalues --    0.04759   0.05126   0.05893   0.06071   0.06193
 Alpha virt. eigenvalues --    0.06604   0.06651   0.07213   0.07578   0.07705

 Mulliken atomic charges:
              1
     1  H    0.044327
     2  C    0.368859
     3  H    0.043494
     4  H   -0.165604
     5  C    0.491826
     6  O   -0.873084
     7  N   -0.147432
     8  H   -0.086261
     9  C   -0.095418
    10  H   -0.167576
    11  C    0.856278
    12  H   -0.041276
    13  H   -0.074655
    14  H   -0.089034
    15  C    0.788099
    16  O   -0.909453
    17  N   -0.092745
    18  H   -0.099935
    19  C   -0.329612
    20  H   -0.209117
    21  C    1.001015
    22  H   -0.017875
    23  H   -0.067829
    24  H   -0.082303
    25  C    0.847496
    26  O   -0.943764
    27  N   -0.195512
    28  H   -0.106313
    29  C   -0.307927
    30  H   -0.159044
    31  C    0.883985
    32  H   -0.032635
    33  H   -0.096855
    34  H   -0.052899
    35  C    1.209534
    36  O   -0.897617
    37  N   -0.459031
    38  H   -0.121540
    39  C    0.714207
    40  H   -0.143005
    41  H   -0.082115
    42  H   -0.101656
 Sum of Mulliken atomic charges =   0.00000

 Dipole moment (field-independent basis, Debye):
    X=             -6.7376    Y=              0.1817    Z=             -0.1745  Tot=              6.7423
 Quadrupole moment (field-independent basis, Debye-Ang):
   XX=           -102.5535   YY=           -126.4960   ZZ=           -127.0672
   XY=            -22.0417   XZ=            -16.8094   YZ=             -8.4782

 Normal termination of Gaussian 09 at Tue Jan 17 14:25:31 2017.
