 Gaussian 09, Revision A.02,
 Gaussian 09:  EM64L-G09RevA.02 11-Jun-2009

 -------------------
 #SP MP2/aug-cc-pVDZ
 -------------------

 ------------------
 Phi Psi fixed scan
 ------------------
 Symbolic Z-matrix:
 Charge =  0 Multiplicity = 1

                         Standard orientation:
 ---------------------------------------------------------------------
 Center     Atomic      Atomic             Coordinates (Angstroms)
 Number     Number       Type             X           Y           Z
 ---------------------------------------------------------------------
      1          1           0       -7.350494    1.326996    1.202906
      2          6           0       -7.025794    0.783897    0.309806
      3          1           0       -6.845694    1.499897   -0.497894
      4          1           0       -7.843593    0.117096    0.019406
      5          6           0       -5.807793   -0.058102    0.663006
      6          8           0       -5.842792   -0.919402    1.538006
      7          7           0       -4.683793    0.206399   -0.058694
      8          1           0       -4.637594    0.963099   -0.731094
      9          6           0       -3.423792   -0.462300    0.200406
     10          1           0       -3.296092   -0.554300    1.285806
     11          6           0       -3.379491   -1.874600   -0.418594
     12          1           0       -3.506391   -1.818900   -1.504894
     13          1           0       -2.430191   -2.379399   -0.205694
     14          1           0       -4.192591   -2.468301    0.006206
     15          6           0       -2.314893    0.429201   -0.377994
     16          8           0       -2.559494    1.319801   -1.191194
     17          7           0       -1.059293    0.163602    0.076006
     18          1           0       -0.895992   -0.740698    0.508906
     19          6           0        0.112206    0.695803   -0.617594
     20          1           0       -0.099494    0.701503   -1.696994
     21          6           0        0.413305    2.136204   -0.182994
     22          1           0        0.699105    2.182404    0.872806
     23          1           0        1.210505    2.582604   -0.788794
     24          1           0       -0.485295    2.739103   -0.331594
     25          6           0        1.243607   -0.326596   -0.383494
     26          8           0        0.982509   -1.519596   -0.209994
     27          7           0        2.504907    0.155106   -0.350894
     28          1           0        2.717306    1.144106   -0.420594
     29          6           0        3.657108   -0.702093   -0.135194
     30          1           0        3.413708   -1.406694    0.669506
     31          6           0        4.030009   -1.502993   -1.397794
     32          1           0        4.290108   -0.824893   -2.216994
     33          1           0        4.883409   -2.163892   -1.209994
     34          1           0        3.176509   -2.116294   -1.696994
     35          6           0        4.807907    0.221908    0.299906
     36          8           0        4.763906    1.432508    0.092306
     37          7           0        5.858608   -0.404691    0.889106
     38          1           0        5.796408   -1.400191    1.049806
     39          6           0        7.058107    0.295210    1.321006
     40          1           0        6.933906    1.347510    1.063806
     41          1           0        7.197307    0.204610    2.404106
     42          1           0        7.946207   -0.097989    0.813706
 ---------------------------------------------------------------------

 SCF Done:  E(RHF) =  -984.699322306     A.U. after   14 cycles
 E2 =    -0.3192719047D+01 EUMP2 =    -0.98789204135283D+03

 The electronic state is 1-A.
 Alpha  occ. eigenvalues --  -20.55383 -20.54689 -20.54531 -20.51893 -15.61680
 Alpha  occ. eigenvalues --  -15.60612 -15.59719 -15.58425 -11.38198 -11.37649
 Alpha  occ. eigenvalues --  -11.36798 -11.35360 -11.30801 -11.30041 -11.28865
 Alpha  occ. eigenvalues --  -11.28421 -11.24826 -11.23871 -11.23843 -11.23003
 Alpha  occ. eigenvalues --   -1.41041  -1.40223  -1.39502  -1.37237  -1.25524
 Alpha  occ. eigenvalues --   -1.25366  -1.24516  -1.23035  -1.07790  -1.05218
 Alpha  occ. eigenvalues --   -1.02346  -0.98112  -0.97311  -0.92151  -0.90313
 Alpha  occ. eigenvalues --   -0.87209  -0.81919  -0.80182  -0.79181  -0.77839
 Alpha  occ. eigenvalues --   -0.75918  -0.71784  -0.68779  -0.68073  -0.67241
 Alpha  occ. eigenvalues --   -0.65860  -0.65470  -0.64826  -0.64246  -0.62419
 Alpha  occ. eigenvalues --   -0.61667  -0.60729  -0.60460  -0.59625  -0.59058
 Alpha  occ. eigenvalues --   -0.57754  -0.57008  -0.56424  -0.56199  -0.55897
 Alpha  occ. eigenvalues --   -0.55147  -0.54960  -0.54217  -0.53810  -0.53137
 Alpha  occ. eigenvalues --   -0.52112  -0.51899  -0.50470  -0.48719  -0.44779
 Alpha  occ. eigenvalues --   -0.43982  -0.43377  -0.41861  -0.41524  -0.40890
 Alpha  occ. eigenvalues --   -0.40214  -0.38388
 Alpha virt. eigenvalues --    0.02242   0.03675   0.03811   0.03852   0.04346
 Alpha virt. eigenvalues --    0.04821   0.05153   0.05789   0.06109   0.06162
 Alpha virt. eigenvalues --    0.06564   0.06598   0.07113   0.07393   0.07815

 Mulliken atomic charges:
              1
     1  H    0.044262
     2  C    0.371950
     3  H   -0.166107
     4  H    0.042676
     5  C    0.452655
     6  O   -0.868392
     7  N   -0.139881
     8  H   -0.090814
     9  C   -0.159477
    10  H   -0.164424
    11  C    0.903167
    12  H   -0.050945
    13  H   -0.090214
    14  H   -0.083296
    15  C    0.812885
    16  O   -0.914438
    17  N   -0.321678
    18  H   -0.039433
    19  C   -0.020522
    20  H   -0.060670
    21  C    0.736904
    22  H   -0.034481
    23  H    0.044749
    24  H   -0.145931
    25  C    0.728632
    26  O   -0.914797
    27  N   -0.237202
    28  H   -0.078188
    29  C   -0.279859
    30  H   -0.183693
    31  C    0.912084
    32  H   -0.046091
    33  H   -0.103045
    34  H   -0.053750
    35  C    1.310080
    36  O   -0.903705
    37  N   -0.477005
    38  H   -0.120939
    39  C    0.714388
    40  H   -0.143968
    41  H   -0.081845
    42  H   -0.099644
 Sum of Mulliken atomic charges =   0.00000

 Dipole moment (field-independent basis, Debye):
    X=              6.3119    Y=             -0.4549    Z=             -0.4237  Tot=              6.3425
 Quadrupole moment (field-independent basis, Debye-Ang):
   XX=           -102.0480   YY=           -128.3368   ZZ=           -125.4924
   XY=            -23.6829   XZ=             18.2480   YZ=              3.9671

 Normal termination of Gaussian 09 at Tue Jan 17 17:48:50 2017.
