 Gaussian 09, Revision A.02,
 Gaussian 09:  EM64L-G09RevA.02 11-Jun-2009

 -------------------
 #SP MP2/aug-cc-pVDZ
 -------------------

 ------------------
 Phi Psi fixed scan
 ------------------
 Symbolic Z-matrix:
 Charge =  0 Multiplicity = 1

                         Standard orientation:
 ---------------------------------------------------------------------
 Center     Atomic      Atomic             Coordinates (Angstroms)
 Number     Number       Type             X           Y           Z
 ---------------------------------------------------------------------
      1          1           0       -6.761791   -1.954206   -0.449292
      2          6           0       -6.347690   -0.943707   -0.378592
      3          1           0       -7.050590   -0.344306    0.208308
      4          1           0       -6.269390   -0.520007   -1.384592
      5          6           0       -5.020491   -1.008208    0.362508
      6          8           0       -4.930391   -1.456608    1.502208
      7          7           0       -3.940290   -0.540809   -0.324292
      8          1           0       -4.025190   -0.102409   -1.233692
      9          6           0       -2.620790   -0.479510    0.272408
     10          1           0       -2.737590   -0.185310    1.323508
     11          6           0       -1.898491   -1.841311    0.224608
     12          1           0       -1.768392   -2.167711   -0.812292
     13          1           0       -0.911591   -1.792912    0.697708
     14          1           0       -2.505592   -2.577810    0.756908
     15          6           0       -1.831689    0.595989   -0.488992
     16          8           0       -2.184289    0.996190   -1.594592
     17          7           0       -0.684689    1.019088    0.122708
     18          1           0       -0.570589    0.801588    1.105308
     19          6           0        0.117812    2.119188   -0.417292
     20          1           0        0.023512    2.041388   -1.506292
     21          6           0       -0.388886    3.494288    0.027008
     22          1           0       -0.373686    3.584288    1.119108
     23          1           0        0.253714    4.277187   -0.381392
     24          1           0       -1.412986    3.641689   -0.327092
     25          6           0        1.608812    1.934886   -0.067892
     26          8           0        2.364513    2.894885    0.051708
     27          7           0        2.020811    0.646986    0.054808
     28          1           0        1.393110   -0.128614   -0.129992
     29          6           0        3.412711    0.290785    0.252208
     30          1           0        4.029911    0.916984   -0.405392
     31          6           0        3.866511    0.514684    1.707908
     32          1           0        3.284310   -0.113515    2.390208
     33          1           0        4.927811    0.273483    1.835308
     34          1           0        3.715612    1.564884    1.969008
     35          6           0        3.546109   -1.188116   -0.151892
     36          8           0        2.560409   -1.917015   -0.240692
     37          7           0        4.818309   -1.612617   -0.367992
     38          1           0        5.567310   -0.937417   -0.305392
     39          6           0        5.148008   -2.986417   -0.711692
     40          1           0        4.215507   -3.551016   -0.734592
     41          1           0        5.625108   -3.041618   -1.696692
     42          1           0        5.819007   -3.428118    0.033808
 ---------------------------------------------------------------------

 SCF Done:  E(RHF) =  -984.698565559     A.U. after   15 cycles
 E2 =    -0.3192659266D+01 EUMP2 =    -0.98789122482494D+03

 The electronic state is 1-A.
 Alpha  occ. eigenvalues --  -20.55246 -20.55106 -20.53891 -20.52395 -15.61398
 Alpha  occ. eigenvalues --  -15.61166 -15.59757 -15.58973 -11.37908 -11.37747
 Alpha  occ. eigenvalues --  -11.36797 -11.35852 -11.30390 -11.29813 -11.29605
 Alpha  occ. eigenvalues --  -11.28201 -11.24528 -11.24253 -11.23441 -11.23004
 Alpha  occ. eigenvalues --   -1.40735  -1.40569  -1.39129  -1.37774  -1.26199
 Alpha  occ. eigenvalues --   -1.25208  -1.23929  -1.23566  -1.07385  -1.05271
 Alpha  occ. eigenvalues --   -1.02727  -0.98547  -0.97065  -0.92180  -0.89918
 Alpha  occ. eigenvalues --   -0.86752  -0.81492  -0.80975  -0.79057  -0.78658
 Alpha  occ. eigenvalues --   -0.76022  -0.71569  -0.68859  -0.68403  -0.67563
 Alpha  occ. eigenvalues --   -0.65759  -0.65219  -0.64344  -0.63639  -0.62898
 Alpha  occ. eigenvalues --   -0.61780  -0.61180  -0.60652  -0.60222  -0.58548
 Alpha  occ. eigenvalues --   -0.58448  -0.56763  -0.56544  -0.56184  -0.56008
 Alpha  occ. eigenvalues --   -0.54972  -0.54509  -0.54146  -0.53113  -0.52708
 Alpha  occ. eigenvalues --   -0.52408  -0.51931  -0.50545  -0.49225  -0.44476
 Alpha  occ. eigenvalues --   -0.44295  -0.43891  -0.42037  -0.41522  -0.40934
 Alpha  occ. eigenvalues --   -0.39654  -0.38802
 Alpha virt. eigenvalues --    0.02399   0.03464   0.03765   0.04015   0.04317
 Alpha virt. eigenvalues --    0.04849   0.05104   0.05867   0.06113   0.06303
 Alpha virt. eigenvalues --    0.06505   0.06734   0.07011   0.07690   0.07949

 Mulliken atomic charges:
              1
     1  H    0.046555
     2  C    0.369329
     3  H    0.045257
     4  H   -0.163731
     5  C    0.502785
     6  O   -0.871394
     7  N   -0.135855
     8  H   -0.098307
     9  C   -0.092695
    10  H   -0.203193
    11  C    0.899946
    12  H   -0.067805
    13  H   -0.079973
    14  H   -0.085615
    15  C    0.863619
    16  O   -0.897901
    17  N   -0.167355
    18  H   -0.096076
    19  C   -0.384824
    20  H   -0.100307
    21  C    0.969151
    22  H   -0.081667
    23  H   -0.056786
    24  H   -0.071293
    25  C    0.690194
    26  O   -0.851281
    27  N   -0.073675
    28  H   -0.011458
    29  C   -0.394399
    30  H   -0.224347
    31  C    0.878547
    32  H   -0.047609
    33  H   -0.105103
    34  H   -0.047898
    35  C    1.214839
    36  O   -0.869219
    37  N   -0.473635
    38  H   -0.119380
    39  C    0.732024
    40  H   -0.145862
    41  H   -0.089038
    42  H   -0.104565
 Sum of Mulliken atomic charges =   0.00000

 Dipole moment (field-independent basis, Debye):
    X=              4.4835    Y=             -1.0286    Z=             -0.5848  Tot=              4.6370
 Quadrupole moment (field-independent basis, Debye-Ang):
   XX=            -96.4466   YY=           -134.4244   ZZ=           -127.5285
   XY=            -18.2121   XZ=             10.2086   YZ=              7.6596

 Normal termination of Gaussian 09 at Tue Jan 17 21:26:02 2017.
