 Gaussian 09, Revision A.02,
 Gaussian 09:  EM64L-G09RevA.02 11-Jun-2009

 -------------------
 #SP MP2/aug-cc-pVDZ
 -------------------

 ------------------
 Phi Psi fixed scan
 ------------------
 Symbolic Z-matrix:
 Charge =  0 Multiplicity = 1

                         Standard orientation:
 ---------------------------------------------------------------------
 Center     Atomic      Atomic             Coordinates (Angstroms)
 Number     Number       Type             X           Y           Z
 ---------------------------------------------------------------------
      1          1           0       -7.356901   -0.805095   -1.514104
      2          6           0       -6.781001    0.059704   -1.169904
      3          1           0       -7.464900    0.702705   -0.607104
      4          1           0       -6.408800    0.608704   -2.040304
      5          6           0       -5.681201   -0.422697   -0.234904
      6          8           0       -5.928002   -1.044397    0.795196
      7          7           0       -4.409801   -0.124898   -0.621904
      8          1           0       -4.210400    0.458502   -1.426404
      9          6           0       -3.259101   -0.451999    0.196496
     10          1           0       -3.511801   -0.247499    1.245096
     11          6           0       -2.863503   -1.936700    0.074096
     12          1           0       -2.587403   -2.175300   -0.958404
     13          1           0       -2.017203   -2.179201    0.726296
     14          1           0       -3.717503   -2.551899    0.367596
     15          6           0       -2.116700    0.474900   -0.251404
     16          8           0       -2.175100    1.111600   -1.303104
     17          7           0       -1.038200    0.503798    0.571496
     18          1           0       -1.064601    0.043798    1.473596
     19          6           0        0.134201    1.336697    0.313796
     20          1           0        0.226701    1.416497   -0.772804
     21          6           0       -0.001798    2.737797    0.925196
     22          1           0       -0.086398    2.666597    2.013696
     23          1           0        0.874703    3.350997    0.685196
     24          1           0       -0.890997    3.230598    0.522196
     25          6           0        1.327600    0.589296    0.924296
     26          8           0        1.330400    0.296096    2.120896
     27          7           0        2.318400    0.242995    0.071396
     28          1           0        2.324700    0.536195   -0.900504
     29          6           0        3.526999   -0.429106    0.514696
     30          1           0        3.837199    0.015394    1.468696
     31          6           0        3.298697   -1.938406    0.725396
     32          1           0        3.000297   -2.414906   -0.214004
     33          1           0        4.205997   -2.431407    1.091896
     34          1           0        2.506497   -2.077705    1.464996
     35          6           0        4.595599   -0.164807   -0.560904
     36          8           0        4.287500    0.246993   -1.676904
     37          7           0        5.870899   -0.444508   -0.186404
     38          1           0        6.036999   -0.758609    0.759396
     39          6           0        7.007799   -0.306610   -1.082604
     40          1           0        6.628299    0.051091   -2.040204
     41          1           0        7.731200    0.416690   -0.689904
     42          1           0        7.511298   -1.268610   -1.231204
 ---------------------------------------------------------------------

 SCF Done:  E(RHF) =  -984.700959793     A.U. after   16 cycles
 E2 =    -0.3191087300D+01 EUMP2 =    -0.98789204709235D+03

 The electronic state is 1-A.
 Alpha  occ. eigenvalues --  -20.55264 -20.54517 -20.54325 -20.52104 -15.61547
 Alpha  occ. eigenvalues --  -15.60561 -15.60479 -15.58611 -11.38079 -11.37216
 Alpha  occ. eigenvalues --  -11.37173 -11.35550 -11.30664 -11.29842 -11.29247
 Alpha  occ. eigenvalues --  -11.28321 -11.24754 -11.24012 -11.23637 -11.23362
 Alpha  occ. eigenvalues --   -1.40866  -1.40098  -1.39378  -1.37452  -1.25386
 Alpha  occ. eigenvalues --   -1.25245  -1.24846  -1.23255  -1.07630  -1.05390
 Alpha  occ. eigenvalues --   -1.02678  -0.98314  -0.97200  -0.92316  -0.90187
 Alpha  occ. eigenvalues --   -0.86913  -0.81870  -0.80439  -0.79666  -0.78253
 Alpha  occ. eigenvalues --   -0.75938  -0.71591  -0.68968  -0.67861  -0.67430
 Alpha  occ. eigenvalues --   -0.65558  -0.65128  -0.64894  -0.63660  -0.62456
 Alpha  occ. eigenvalues --   -0.62088  -0.61055  -0.60852  -0.59925  -0.59527
 Alpha  occ. eigenvalues --   -0.58264  -0.57078  -0.56390  -0.56197  -0.55686
 Alpha  occ. eigenvalues --   -0.54975  -0.54487  -0.54173  -0.53607  -0.53121
 Alpha  occ. eigenvalues --   -0.52219  -0.51704  -0.51010  -0.48989  -0.44654
 Alpha  occ. eigenvalues --   -0.44139  -0.43620  -0.41738  -0.41701  -0.40423
 Alpha  occ. eigenvalues --   -0.40118  -0.38461
 Alpha virt. eigenvalues --    0.02310   0.03693   0.03748   0.03925   0.04420
 Alpha virt. eigenvalues --    0.04737   0.05009   0.05956   0.06024   0.06350
 Alpha virt. eigenvalues --    0.06558   0.06710   0.07016   0.07653   0.07847

 Mulliken atomic charges:
              1
     1  H    0.046472
     2  C    0.366937
     3  H    0.043372
     4  H   -0.165698
     5  C    0.513924
     6  O   -0.873466
     7  N   -0.139453
     8  H   -0.081080
     9  C   -0.096001
    10  H   -0.165038
    11  C    0.869935
    12  H   -0.042993
    13  H   -0.069115
    14  H   -0.095944
    15  C    0.922118
    16  O   -0.910263
    17  N    0.036603
    18  H   -0.129477
    19  C   -0.510156
    20  H   -0.312258
    21  C    1.001583
    22  H   -0.020101
    23  H   -0.088304
    24  H   -0.069335
    25  C    0.837317
    26  O   -0.922674
    27  N   -0.225328
    28  H   -0.101373
    29  C   -0.170241
    30  H   -0.164470
    31  C    0.834827
    32  H   -0.044287
    33  H   -0.101982
    34  H   -0.057770
    35  C    1.176326
    36  O   -0.892983
    37  N   -0.464882
    38  H   -0.122188
    39  C    0.712336
    40  H   -0.142670
    41  H   -0.087597
    42  H   -0.094625
 Sum of Mulliken atomic charges =   0.00000

 Dipole moment (field-independent basis, Debye):
    X=              6.1459    Y=             -0.3476    Z=             -0.2454  Tot=              6.1606
 Quadrupole moment (field-independent basis, Debye-Ang):
   XX=           -101.3419   YY=           -120.4011   ZZ=           -134.5783
   XY=            -15.0659   XZ=             19.3215   YZ=              3.9747

 Normal termination of Gaussian 09 at Tue Jan 17 12:40:41 2017.
