 Gaussian 09, Revision A.02,
 Gaussian 09:  EM64L-G09RevA.02 11-Jun-2009

 -------------------
 #SP MP2/aug-cc-pVDZ
 -------------------

 ------------------
 Phi Psi fixed scan
 ------------------
 Symbolic Z-matrix:
 Charge =  0 Multiplicity = 1

                         Standard orientation:
 ---------------------------------------------------------------------
 Center     Atomic      Atomic             Coordinates (Angstroms)
 Number     Number       Type             X           Y           Z
 ---------------------------------------------------------------------
      1          1           0       -7.836701   -0.145600    0.602298
      2          6           0       -7.060401   -0.791600    0.180898
      3          1           0       -7.494300   -1.297400   -0.687602
      4          1           0       -6.777300   -1.541700    0.925698
      5          6           0       -5.899401    0.075701   -0.285402
      6          8           0       -6.051901    0.987100   -1.094702
      7          7           0       -4.687801   -0.226699    0.257098
      8          1           0       -4.550401   -1.027199    0.863398
      9          6           0       -3.471101    0.454301   -0.140202
     10          1           0       -3.491601    0.597201   -1.227802
     11          6           0       -3.335401    1.836301    0.529898
     12          1           0       -3.298101    1.731101    1.619498
     13          1           0       -2.429401    2.356001    0.198398
     14          1           0       -4.202801    2.443101    0.259198
     15          6           0       -2.300201   -0.466699    0.237398
     16          8           0       -2.446200   -1.416699    1.007998
     17          7           0       -1.109901   -0.155299   -0.332602
     18          1           0       -0.983401    0.730601   -0.814302
     19          6           0        0.133199   -0.769099    0.104998
     20          1           0        0.063499   -0.962299    1.183698
     21          6           0        0.388900   -2.106799   -0.612002
     22          1           0        0.482800   -1.955599   -1.692302
     23          1           0        1.298900   -2.595799   -0.247902
     24          1           0       -0.455400   -2.773899   -0.420502
     25          6           0        1.244299    0.270301   -0.142602
     26          8           0        0.996199    1.370301   -0.641502
     27          7           0        2.493699   -0.111498    0.202598
     28          1           0        2.700999   -1.033398    0.572798
     29          6           0        3.657599    0.729002   -0.015002
     30          1           0        3.568499    1.189302   -1.006802
     31          6           0        3.772299    1.845602    1.040898
     32          1           0        3.879299    1.414902    2.041698
     33          1           0        4.637399    2.489002    0.845698
     34          1           0        2.869599    2.460702    1.010498
     35          6           0        4.879299   -0.206098    0.025698
     36          8           0        4.804200   -1.327098    0.524098
     37          7           0        6.020799    0.313202   -0.494602
     38          1           0        5.984399    1.232702   -0.911602
     39          6           0        7.287799   -0.400898   -0.496802
     40          1           0        7.123400   -1.362198   -0.009202
     41          1           0        7.639699   -0.573098   -1.520202
     42          1           0        8.053599    0.156702    0.054098
 ---------------------------------------------------------------------

 SCF Done:  E(RHF) =  -984.702241713     A.U. after   14 cycles
 E2 =    -0.3191655497D+01 EUMP2 =    -0.98789389721088D+03

 The electronic state is 1-A.
 Alpha  occ. eigenvalues --  -20.55429 -20.55023 -20.54201 -20.51825 -15.61725
 Alpha  occ. eigenvalues --  -15.60536 -15.59507 -15.58317 -11.38244 -11.37714
 Alpha  occ. eigenvalues --  -11.36690 -11.35283 -11.30872 -11.30004 -11.28793
 Alpha  occ. eigenvalues --  -11.28462 -11.24848 -11.24012 -11.23806 -11.22983
 Alpha  occ. eigenvalues --   -1.41120  -1.40298  -1.39354  -1.37155  -1.25568
 Alpha  occ. eigenvalues --   -1.25415  -1.24480  -1.22945  -1.07820  -1.05222
 Alpha  occ. eigenvalues --   -1.02365  -0.98050  -0.97346  -0.92185  -0.90309
 Alpha  occ. eigenvalues --   -0.87061  -0.82093  -0.80222  -0.79246  -0.77836
 Alpha  occ. eigenvalues --   -0.75977  -0.71627  -0.69036  -0.67798  -0.67153
 Alpha  occ. eigenvalues --   -0.65837  -0.65656  -0.64707  -0.64212  -0.62280
 Alpha  occ. eigenvalues --   -0.61511  -0.61036  -0.60661  -0.59650  -0.59438
 Alpha  occ. eigenvalues --   -0.57801  -0.57150  -0.56505  -0.56059  -0.55779
 Alpha  occ. eigenvalues --   -0.55314  -0.54775  -0.54156  -0.53750  -0.53102
 Alpha  occ. eigenvalues --   -0.52093  -0.51840  -0.50480  -0.48660  -0.44822
 Alpha  occ. eigenvalues --   -0.44166  -0.43287  -0.42023  -0.41451  -0.40951
 Alpha  occ. eigenvalues --   -0.39843  -0.38235
 Alpha virt. eigenvalues --    0.02209   0.03651   0.03828   0.03830   0.04410
 Alpha virt. eigenvalues --    0.04776   0.05157   0.05861   0.06045   0.06170
 Alpha virt. eigenvalues --    0.06555   0.06628   0.07334   0.07420   0.07706

 Mulliken atomic charges:
              1
     1  H    0.040173
     2  C    0.379871
     3  H    0.045603
     4  H   -0.163797
     5  C    0.450768
     6  O   -0.869546
     7  N   -0.148137
     8  H   -0.091076
     9  C   -0.091796
    10  H   -0.160756
    11  C    0.859174
    12  H   -0.040884
    13  H   -0.080374
    14  H   -0.084277
    15  C    0.834899
    16  O   -0.923770
    17  N   -0.273804
    18  H   -0.072587
    19  C   -0.018522
    20  H   -0.122733
    21  C    0.835814
    22  H   -0.025891
    23  H   -0.104419
    24  H   -0.089919
    25  C    0.684781
    26  O   -0.891689
    27  N   -0.210751
    28  H   -0.092261
    29  C   -0.265214
    30  H   -0.181884
    31  C    0.893964
    32  H   -0.037185
    33  H   -0.098999
    34  H   -0.052184
    35  C    1.268833
    36  O   -0.903491
    37  N   -0.463463
    38  H   -0.121046
    39  C    0.712595
    40  H   -0.144031
    41  H   -0.083154
    42  H   -0.098836
 Sum of Mulliken atomic charges =   0.00000

 Dipole moment (field-independent basis, Debye):
    X=              6.7731    Y=              0.3686    Z=              0.3042  Tot=              6.7899
 Quadrupole moment (field-independent basis, Debye-Ang):
   XX=           -103.5027   YY=           -127.8189   ZZ=           -125.1533
   XY=             23.6182   XZ=            -18.5623   YZ=              7.0588

 Normal termination of Gaussian 09 at Tue Jan 17 16:09:00 2017.
