 Gaussian 09, Revision A.02,
 Gaussian 09:  EM64L-G09RevA.02 11-Jun-2009

 ----------------------------------------------------------------------
 # b3lyp/6-31G* Opt=(ModRedundant, maxcycles=1000, calcfc) geom=nocrowd
 ----------------------------------------------------------------------

 ------------------
 Phi Psi fixed scan
 ------------------
 Symbolic Z-matrix:
 Charge =  0 Multiplicity = 1

 SCF Done:  E(RB3LYP) =  -990.491123327     A.U. after   14 cycles

  Exact polarizability:   0.000   0.000   0.000   0.000   0.000   0.000
 Approx polarizability: 231.886  13.296 228.429   5.139  24.346 208.382

 SCF Done:  E(RB3LYP) =  -990.497365696     A.U. after   12 cycles
 SCF Done:  E(RB3LYP) =  -990.504183451     A.U. after   13 cycles
 SCF Done:  E(RB3LYP) =  -990.505799047     A.U. after   13 cycles
 SCF Done:  E(RB3LYP) =  -990.506778956     A.U. after   13 cycles
 SCF Done:  E(RB3LYP) =  -990.507021468     A.U. after   13 cycles
 SCF Done:  E(RB3LYP) =  -990.507304179     A.U. after   14 cycles
 SCF Done:  E(RB3LYP) =  -990.501267154     A.U. after   15 cycles
 SCF Done:  E(RB3LYP) =  -990.507409397     A.U. after   15 cycles
 SCF Done:  E(RB3LYP) =  -990.507570446     A.U. after   12 cycles
 SCF Done:  E(RB3LYP) =  -990.507639697     A.U. after    9 cycles
 SCF Done:  E(RB3LYP) =  -990.507641501     A.U. after    9 cycles
 SCF Done:  E(RB3LYP) =  -990.507643813     A.U. after   10 cycles
 SCF Done:  E(RB3LYP) =  -990.507647450     A.U. after   10 cycles
 SCF Done:  E(RB3LYP) =  -990.507648783     A.U. after    9 cycles
 SCF Done:  E(RB3LYP) =  -990.507650191     A.U. after    9 cycles
 SCF Done:  E(RB3LYP) =  -990.507650543     A.U. after    9 cycles
 SCF Done:  E(RB3LYP) =  -990.507650695     A.U. after    9 cycles
 SCF Done:  E(RB3LYP) =  -990.507650731     A.U. after    7 cycles
 SCF Done:  E(RB3LYP) =  -990.507650745     A.U. after    6 cycles
 Optimization completed.
    -- Stationary point found.

                         Standard orientation:
 ---------------------------------------------------------------------
 Center     Atomic      Atomic             Coordinates (Angstroms)
 Number     Number       Type             X           Y           Z
 ---------------------------------------------------------------------
      1          1           0       -5.521654   -3.174905   -0.141745
      2          6           0       -5.158720   -2.402012   -0.826536
      3          1           0       -6.014003   -2.066613   -1.421224
      4          1           0       -4.409176   -2.840469   -1.492323
      5          6           0       -4.639200   -1.227769   -0.010836
      6          8           0       -5.354943   -0.607552    0.771076
      7          7           0       -3.326121   -0.915710   -0.199953
      8          1           0       -2.754645   -1.374704   -0.899702
      9          6           0       -2.709134    0.218544    0.457439
     10          1           0       -3.431753    1.044317    0.466633
     11          6           0       -2.316535   -0.100894    1.914415
     12          1           0       -1.581534   -0.911791    1.944017
     13          1           0       -1.890309    0.774069    2.418611
     14          1           0       -3.213425   -0.409406    2.456866
     15          6           0       -1.481808    0.609519   -0.378348
     16          8           0       -1.013983   -0.146309   -1.233671
     17          7           0       -0.930886    1.814854   -0.094873
     18          1           0       -1.338267    2.385369    0.634305
     19          6           0        0.212383    2.364284   -0.832068
     20          1           0        0.166184    1.910688   -1.828305
     21          6           0        0.101682    3.881992   -0.932709
     22          1           0        0.137536    4.345488    0.058820
     23          1           0        0.944049    4.282326   -1.501236
     24          1           0       -0.831407    4.162568   -1.431304
     25          6           0        1.555011    1.941777   -0.182474
     26          8           0        2.354226    2.767488    0.253242
     27          7           0        1.762407    0.602118   -0.126378
     28          1           0        1.112426   -0.055230   -0.555237
     29          6           0        2.978489    0.053241    0.446720
     30          1           0        3.811231    0.705686    0.156910
     31          6           0        2.914580   -0.002552    1.986209
     32          1           0        2.092312   -0.649673    2.308458
     33          1           0        3.848483   -0.390406    2.408667
     34          1           0        2.750902    1.006264    2.374085
     35          6           0        3.174591   -1.352819   -0.139172
     36          8           0        2.229328   -2.006850   -0.567518
     37          7           0        4.455834   -1.813275   -0.101825
     38          1           0        5.180826   -1.193230    0.230253
     39          6           0        4.828990   -3.143498   -0.552228
     40          1           0        3.916418   -3.644964   -0.876509
     41          1           0        5.528799   -3.093776   -1.394468
     42          1           0        5.289357   -3.720601    0.258120
 ---------------------------------------------------------------------

 The electronic state is 1-A.
 Alpha  occ. eigenvalues --  -19.13361 -19.12134 -19.11316 -19.09949 -14.37926
 Alpha  occ. eigenvalues --  -14.37314 -14.35182 -14.35084 -10.30264 -10.29393
 Alpha  occ. eigenvalues --  -10.28404 -10.27939 -10.24209 -10.24018 -10.23835
 Alpha  occ. eigenvalues --  -10.22557 -10.18834 -10.18763 -10.18718 -10.18494
 Alpha  occ. eigenvalues --   -1.05331  -1.04246  -1.02958  -1.01973  -0.94098
 Alpha  occ. eigenvalues --   -0.93037  -0.91821  -0.91578  -0.79570  -0.77505
 Alpha  occ. eigenvalues --   -0.75989  -0.72147  -0.71507  -0.67529  -0.65907
 Alpha  occ. eigenvalues --   -0.63266  -0.60703  -0.59499  -0.57636  -0.57565
 Alpha  occ. eigenvalues --   -0.55309  -0.52394  -0.49755  -0.49307  -0.48155
 Alpha  occ. eigenvalues --   -0.47422  -0.46317  -0.45864  -0.45471  -0.45029
 Alpha  occ. eigenvalues --   -0.43743  -0.43382  -0.42624  -0.41851  -0.41300
 Alpha  occ. eigenvalues --   -0.41135  -0.40148  -0.39887  -0.39579  -0.38871
 Alpha  occ. eigenvalues --   -0.38667  -0.38127  -0.37979  -0.37380  -0.37292
 Alpha  occ. eigenvalues --   -0.36988  -0.36445  -0.35165  -0.34028  -0.28747
 Alpha  occ. eigenvalues --   -0.27277  -0.26444  -0.26272  -0.24922  -0.24782
 Alpha  occ. eigenvalues --   -0.24023  -0.23849
 Alpha virt. eigenvalues --    0.00426   0.01720   0.02794   0.03900   0.06353
 Alpha virt. eigenvalues --    0.06761   0.09630   0.10744   0.11555   0.11701
 Alpha virt. eigenvalues --    0.13073   0.13781   0.13858   0.14593   0.15117

 Mulliken atomic charges:
              1
     1  H    0.182714
     2  C   -0.533474
     3  H    0.182334
     4  H    0.150123
     5  C    0.596755
     6  O   -0.524419
     7  N   -0.604652
     8  H    0.350220
     9  C   -0.030207
    10  H    0.173783
    11  C   -0.447182
    12  H    0.161490
    13  H    0.135651
    14  H    0.192658
    15  C    0.615287
    16  O   -0.541517
    17  N   -0.599228
    18  H    0.335571
    19  C   -0.061438
    20  H    0.189160
    21  C   -0.456639
    22  H    0.160363
    23  H    0.177031
    24  H    0.150419
    25  C    0.620015
    26  O   -0.534367
    27  N   -0.629604
    28  H    0.382161
    29  C   -0.028841
    30  H    0.163803
    31  C   -0.443212
    32  H    0.160162
    33  H    0.138367
    34  H    0.182198
    35  C    0.600320
    36  O   -0.519598
    37  N   -0.593030
    38  H    0.329442
    39  C   -0.312766
    40  H    0.207898
    41  H    0.161947
    42  H    0.160305
 Sum of Mulliken atomic charges =   0.00000

 Dipole moment (field-independent basis, Debye):
    X=              4.0661    Y=             -0.5994    Z=              0.0626  Tot=              4.1105
 Quadrupole moment (field-independent basis, Debye-Ang):
   XX=           -116.5380   YY=           -115.8151   ZZ=           -118.3973
   XY=            -12.4051   XZ=              8.0787   YZ=             -1.3907

 Normal termination of Gaussian 09 at Thu Dec 29 21:59:28 2016.
