 Gaussian 09, Revision A.02,
 Gaussian 09:  EM64L-G09RevA.02 11-Jun-2009

 ----------------------------------------------------------------------
 # b3lyp/6-31G* Opt=(ModRedundant, maxcycles=1000, calcfc) geom=nocrowd
 ----------------------------------------------------------------------

 ------------------
 Phi Psi fixed scan
 ------------------
 Symbolic Z-matrix:
 Charge =  0 Multiplicity = 1

 SCF Done:  E(RB3LYP) =  -990.489777583     A.U. after   14 cycles

  Exact polarizability:   0.000   0.000   0.000   0.000   0.000   0.000
 Approx polarizability: 232.664  16.645 217.794  14.676  11.575 218.571

 SCF Done:  E(RB3LYP) =  -990.497591594     A.U. after   12 cycles
 SCF Done:  E(RB3LYP) =  -990.504755572     A.U. after   13 cycles
 SCF Done:  E(RB3LYP) =  -990.505989607     A.U. after   12 cycles
 SCF Done:  E(RB3LYP) =  -990.506552965     A.U. after   15 cycles
 SCF Done:  E(RB3LYP) =  -990.507377598     A.U. after   13 cycles
 SCF Done:  E(RB3LYP) =  -990.507542655     A.U. after   12 cycles
 SCF Done:  E(RB3LYP) =  -990.507487942     A.U. after   12 cycles
 SCF Done:  E(RB3LYP) =  -990.507592134     A.U. after   11 cycles
 SCF Done:  E(RB3LYP) =  -990.507466248     A.U. after   12 cycles
 SCF Done:  E(RB3LYP) =  -990.507646240     A.U. after    9 cycles
 SCF Done:  E(RB3LYP) =  -990.507651260     A.U. after   10 cycles
 SCF Done:  E(RB3LYP) =  -990.507658776     A.U. after   10 cycles
 SCF Done:  E(RB3LYP) =  -990.507652005     A.U. after   10 cycles
 SCF Done:  E(RB3LYP) =  -990.507656570     A.U. after    9 cycles
 SCF Done:  E(RB3LYP) =  -990.507659490     A.U. after    9 cycles
 SCF Done:  E(RB3LYP) =  -990.507660129     A.U. after    9 cycles
 SCF Done:  E(RB3LYP) =  -990.507660293     A.U. after    6 cycles
 SCF Done:  E(RB3LYP) =  -990.507660397     A.U. after    7 cycles
 SCF Done:  E(RB3LYP) =  -990.507660401     A.U. after    5 cycles
 Optimization completed.
    -- Stationary point found.

                         Standard orientation:
 ---------------------------------------------------------------------
 Center     Atomic      Atomic             Coordinates (Angstroms)
 Number     Number       Type             X           Y           Z
 ---------------------------------------------------------------------
      1          1           0       -5.750784   -2.517981   -0.833927
      2          6           0       -5.467366   -1.502212   -1.127138
      3          1           0       -6.390591   -0.923543   -1.229373
      4          1           0       -4.959225   -1.540740   -2.095524
      5          6           0       -4.624281   -0.888051   -0.019150
      6          8           0       -5.050497   -0.749716    1.124351
      7          7           0       -3.364273   -0.514527   -0.379195
      8          1           0       -3.056737   -0.520571   -1.344946
      9          6           0       -2.476941    0.166530    0.542286
     10          1           0       -3.068512    0.892435    1.116730
     11          6           0       -1.809682   -0.807023    1.535039
     12          1           0       -1.146985   -1.507613    1.017541
     13          1           0       -1.220625   -0.269970    2.287955
     14          1           0       -2.593867   -1.363014    2.054348
     15          6           0       -1.439563    0.914832   -0.310977
     16          8           0       -1.350313    0.746656   -1.523861
     17          7           0       -0.614671    1.758462    0.376239
     18          1           0       -0.769634    1.891064    1.366965
     19          6           0        0.403829    2.575891   -0.277439
     20          1           0        0.064895    2.729293   -1.307006
     21          6           0        0.546579    3.931072    0.421916
     22          1           0        0.822782    3.805507    1.476924
     23          1           0        1.337252    4.504053   -0.066393
     24          1           0       -0.391135    4.493032    0.371443
     25          6           0        1.786454    1.898534   -0.411209
     26          8           0        2.714430    2.501662   -0.945247
     27          7           0        1.897436    0.643867    0.084230
     28          1           0        1.089730    0.145914    0.439018
     29          6           0        3.093714   -0.154879   -0.094511
     30          1           0        3.487056    0.035627   -1.101405
     31          6           0        4.185064    0.203367    0.932906
     32          1           0        3.829246    0.013302    1.950808
     33          1           0        5.096227   -0.382886    0.768392
     34          1           0        4.431182    1.263303    0.831424
     35          6           0        2.665025   -1.627033    0.032767
     36          8           0        1.597854   -1.940967    0.556819
     37          7           0        3.561752   -2.529816   -0.442606
     38          1           0        4.395566   -2.184199   -0.896521
     39          6           0        3.350963   -3.966790   -0.376598
     40          1           0        2.410614   -4.135724    0.148853
     41          1           0        3.283414   -4.402187   -1.380168
     42          1           0        4.163867   -4.457504    0.170346
 ---------------------------------------------------------------------

 The electronic state is 1-A.
 Alpha  occ. eigenvalues --  -19.13121 -19.12985 -19.10995 -19.09721 -14.38020
 Alpha  occ. eigenvalues --  -14.37639 -14.35726 -14.34761 -10.30228 -10.29969
 Alpha  occ. eigenvalues --  -10.28435 -10.27687 -10.24415 -10.24064 -10.23632
 Alpha  occ. eigenvalues --  -10.23080 -10.19193 -10.19176 -10.18334 -10.18024
 Alpha  occ. eigenvalues --   -1.05132  -1.04956  -1.02921  -1.01719  -0.94121
 Alpha  occ. eigenvalues --   -0.93774  -0.92113  -0.91307  -0.79468  -0.77745
 Alpha  occ. eigenvalues --   -0.75884  -0.72047  -0.71870  -0.67532  -0.65768
 Alpha  occ. eigenvalues --   -0.63710  -0.60425  -0.60253  -0.58094  -0.57172
 Alpha  occ. eigenvalues --   -0.55617  -0.52689  -0.49649  -0.49044  -0.48592
 Alpha  occ. eigenvalues --   -0.47167  -0.46658  -0.46207  -0.45450  -0.44701
 Alpha  occ. eigenvalues --   -0.43896  -0.43312  -0.43005  -0.41594  -0.41268
 Alpha  occ. eigenvalues --   -0.41002  -0.40587  -0.40271  -0.40077  -0.39521
 Alpha  occ. eigenvalues --   -0.38598  -0.38149  -0.37867  -0.37649  -0.37159
 Alpha  occ. eigenvalues --   -0.36636  -0.36378  -0.34540  -0.33696  -0.28883
 Alpha  occ. eigenvalues --   -0.27175  -0.27131  -0.26752  -0.25276  -0.24688
 Alpha  occ. eigenvalues --   -0.23778  -0.23677
 Alpha virt. eigenvalues --    0.01011   0.01314   0.02852   0.03881   0.05935
 Alpha virt. eigenvalues --    0.06284   0.09891   0.10935   0.11463   0.11677
 Alpha virt. eigenvalues --    0.13019   0.13428   0.13683   0.14233   0.14866

 Mulliken atomic charges:
              1
     1  H    0.182018
     2  C   -0.533178
     3  H    0.181415
     4  H    0.148341
     5  C    0.595461
     6  O   -0.524305
     7  N   -0.603802
     8  H    0.347657
     9  C   -0.031371
    10  H    0.172134
    11  C   -0.461705
    12  H    0.184882
    13  H    0.129360
    14  H    0.190891
    15  C    0.599574
    16  O   -0.521813
    17  N   -0.636545
    18  H    0.334650
    19  C   -0.028757
    20  H    0.203142
    21  C   -0.471975
    22  H    0.143879
    23  H    0.195075
    24  H    0.158685
    25  C    0.622562
    26  O   -0.540606
    27  N   -0.623705
    28  H    0.364946
    29  C   -0.029935
    30  H    0.170968
    31  C   -0.443511
    32  H    0.158307
    33  H    0.137055
    34  H    0.189826
    35  C    0.607635
    36  O   -0.531367
    37  N   -0.591519
    38  H    0.332721
    39  C   -0.313754
    40  H    0.207943
    41  H    0.165703
    42  H    0.163019
 Sum of Mulliken atomic charges =   0.00000

 Dipole moment (field-independent basis, Debye):
    X=              4.1344    Y=             -1.7688    Z=              0.0389  Tot=              4.4971
 Quadrupole moment (field-independent basis, Debye-Ang):
   XX=           -119.7438   YY=           -110.7693   ZZ=           -121.9860
   XY=            -18.6301   XZ=             10.3345   YZ=             13.0610

 Normal termination of Gaussian 09 at Thu Dec 29 17:39:51 2016.
