 Gaussian 09, Revision A.02,
 Gaussian 09:  EM64L-G09RevA.02 11-Jun-2009

 ----------------------------------------------------------------------
 # b3lyp/6-31G* Opt=(ModRedundant, maxcycles=1000, calcfc) geom=nocrowd
 ----------------------------------------------------------------------

 ------------------
 Phi Psi fixed scan
 ------------------
 Symbolic Z-matrix:
 Charge =  0 Multiplicity = 1

 SCF Done:  E(RB3LYP) =  -990.478851078     A.U. after   15 cycles

  Exact polarizability:   0.000   0.000   0.000   0.000   0.000   0.000
 Approx polarizability: 240.795  10.026 221.376  -4.094   5.613 204.841

 SCF Done:  E(RB3LYP) =  -990.487321885     A.U. after   11 cycles
 SCF Done:  E(RB3LYP) =  -990.497070328     A.U. after   13 cycles
 SCF Done:  E(RB3LYP) =  -990.500175977     A.U. after   13 cycles
 SCF Done:  E(RB3LYP) =  -990.502468899     A.U. after   15 cycles
 SCF Done:  E(RB3LYP) =  -990.503135929     A.U. after   15 cycles
 SCF Done:  E(RB3LYP) =  -990.495783442     A.U. after   14 cycles
 SCF Done:  E(RB3LYP) =  -990.503251259     A.U. after   13 cycles
 SCF Done:  E(RB3LYP) =  -990.503743616     A.U. after   12 cycles
 SCF Done:  E(RB3LYP) =  -990.502210505     A.U. after   13 cycles
 SCF Done:  E(RB3LYP) =  -990.504031691     A.U. after   10 cycles
 SCF Done:  E(RB3LYP) =  -990.504039109     A.U. after    9 cycles
 SCF Done:  E(RB3LYP) =  -990.504043957     A.U. after    9 cycles
 SCF Done:  E(RB3LYP) =  -990.504047147     A.U. after    9 cycles
 SCF Done:  E(RB3LYP) =  -990.504049971     A.U. after    9 cycles
 SCF Done:  E(RB3LYP) =  -990.504052209     A.U. after    9 cycles
 SCF Done:  E(RB3LYP) =  -990.504053056     A.U. after    9 cycles
 SCF Done:  E(RB3LYP) =  -990.504053543     A.U. after    7 cycles
 SCF Done:  E(RB3LYP) =  -990.504053789     A.U. after    7 cycles
 SCF Done:  E(RB3LYP) =  -990.504053938     A.U. after    7 cycles
 Optimization completed.
    -- Stationary point found.

                         Standard orientation:
 ---------------------------------------------------------------------
 Center     Atomic      Atomic             Coordinates (Angstroms)
 Number     Number       Type             X           Y           Z
 ---------------------------------------------------------------------
      1          1           0        7.551759    0.623808    0.076278
      2          6           0        6.911890   -0.139626    0.529497
      3          1           0        6.667401    0.160504    1.553143
      4          1           0        7.487173   -1.070381    0.559623
      5          6           0        5.691046   -0.344453   -0.356421
      6          8           0        5.790707   -0.659097   -1.539551
      7          7           0        4.487719   -0.156828    0.252082
      8          1           0        4.409663    0.138878    1.217617
      9          6           0        3.231159   -0.277804   -0.462421
     10          1           0        3.372053    0.139627   -1.466624
     11          6           0        2.775243   -1.745343   -0.592809
     12          1           0        2.660499   -2.192634    0.399093
     13          1           0        1.812163   -1.821201   -1.107865
     14          1           0        3.530747   -2.299226   -1.156077
     15          6           0        2.190744    0.539715    0.310759
     16          8           0        2.320345    0.777303    1.506971
     17          7           0        1.138304    0.999593   -0.437039
     18          1           0        1.047187    0.600829   -1.364002
     19          6           0       -0.105633    1.404557    0.203873
     20          1           0        0.176058    1.656146    1.232485
     21          6           0       -0.695608    2.644803   -0.478644
     22          1           0       -1.032849    2.429099   -1.499370
     23          1           0       -1.544370    3.049958    0.082952
     24          1           0        0.066804    3.426882   -0.529922
     25          6           0       -1.042959    0.172228    0.299154
     26          8           0       -0.584360   -0.963332    0.401464
     27          7           0       -2.376045    0.418341    0.260565
     28          1           0       -2.765121    1.340186    0.100141
     29          6           0       -3.359175   -0.646265    0.343081
     30          1           0       -3.020545   -1.476316   -0.289814
     31          6           0       -3.530933   -1.166038    1.783802
     32          1           0       -3.884350   -0.364209    2.440191
     33          1           0       -4.250118   -1.991855    1.826545
     34          1           0       -2.566431   -1.528188    2.147850
     35          6           0       -4.674646   -0.068782   -0.207360
     36          8           0       -4.836013    1.143544   -0.332798
     37          7           0       -5.625839   -0.989620   -0.510784
     38          1           0       -5.400900   -1.967954   -0.396942
     39          6           0       -6.950337   -0.632263   -0.992706
     40          1           0       -6.995563    0.455735   -1.049012
     41          1           0       -7.132158   -1.051388   -1.988766
     42          1           0       -7.728240   -0.990411   -0.308824
 ---------------------------------------------------------------------

 The electronic state is 1-A.
 Alpha  occ. eigenvalues --  -19.13439 -19.12067 -19.11739 -19.09186 -14.38361
 Alpha  occ. eigenvalues --  -14.36420 -14.36375 -14.34349 -10.30573 -10.29089
 Alpha  occ. eigenvalues --  -10.28944 -10.27234 -10.24839 -10.24006 -10.23397
 Alpha  occ. eigenvalues --  -10.22774 -10.19665 -10.19416 -10.17983 -10.17166
 Alpha  occ. eigenvalues --   -1.05469  -1.04277  -1.03354  -1.01184  -0.94137
 Alpha  occ. eigenvalues --   -0.92979  -0.92847  -0.90782  -0.79756  -0.77509
 Alpha  occ. eigenvalues --   -0.75435  -0.72298  -0.71400  -0.67501  -0.65981
 Alpha  occ. eigenvalues --   -0.63347  -0.60720  -0.59138  -0.58704  -0.56777
 Alpha  occ. eigenvalues --   -0.55993  -0.51959  -0.49386  -0.49122  -0.48272
 Alpha  occ. eigenvalues --   -0.47019  -0.46510  -0.46087  -0.45207  -0.44482
 Alpha  occ. eigenvalues --   -0.43944  -0.43356  -0.42942  -0.42243  -0.41185
 Alpha  occ. eigenvalues --   -0.40886  -0.40614  -0.40431  -0.39660  -0.39306
 Alpha  occ. eigenvalues --   -0.39106  -0.38145  -0.38093  -0.37172  -0.37063
 Alpha  occ. eigenvalues --   -0.36105  -0.35773  -0.35182  -0.33222  -0.27856
 Alpha  occ. eigenvalues --   -0.27494  -0.26866  -0.25999  -0.25730  -0.25025
 Alpha  occ. eigenvalues --   -0.23725  -0.23210
 Alpha virt. eigenvalues --    0.00596   0.01564   0.02662   0.04542   0.05595
 Alpha virt. eigenvalues --    0.07712   0.08943   0.10301   0.10859   0.12630
 Alpha virt. eigenvalues --    0.13094   0.13347   0.14049   0.14267   0.14668

 Mulliken atomic charges:
              1
     1  H    0.180481
     2  C   -0.532787
     3  H    0.146712
     4  H    0.180645
     5  C    0.598171
     6  O   -0.526716
     7  N   -0.603829
     8  H    0.343805
     9  C   -0.041407
    10  H    0.168062
    11  C   -0.439079
    12  H    0.163292
    13  H    0.150603
    14  H    0.178231
    15  C    0.619427
    16  O   -0.526798
    17  N   -0.580976
    18  H    0.327454
    19  C   -0.071007
    20  H    0.210041
    21  C   -0.474868
    22  H    0.155098
    23  H    0.159078
    24  H    0.175695
    25  C    0.611920
    26  O   -0.528182
    27  N   -0.629076
    28  H    0.359058
    29  C   -0.029816
    30  H    0.170079
    31  C   -0.446072
    32  H    0.161032
    33  H    0.136821
    34  H    0.195244
    35  C    0.605366
    36  O   -0.529984
    37  N   -0.592469
    38  H    0.332958
    39  C   -0.314351
    40  H    0.208462
    41  H    0.165023
    42  H    0.164661
 Sum of Mulliken atomic charges =   0.00000

 Dipole moment (field-independent basis, Debye):
    X=             -6.6616    Y=             -0.7403    Z=              0.0117  Tot=              6.7026
 Quadrupole moment (field-independent basis, Debye-Ang):
   XX=           -108.0259   YY=           -116.2659   ZZ=           -122.9007
   XY=             18.9672   XZ=             14.3822   YZ=             -1.4568

 Normal termination of Gaussian 09 at Thu Dec 29 18:01:29 2016.
