 Gaussian 09, Revision A.02,
 Gaussian 09:  EM64L-G09RevA.02 11-Jun-2009

 ----------------------------------------------------------------------
 # b3lyp/6-31G* Opt=(ModRedundant, maxcycles=1000, calcfc) geom=nocrowd
 ----------------------------------------------------------------------

 ------------------
 Phi Psi fixed scan
 ------------------
 Symbolic Z-matrix:
 Charge =  0 Multiplicity = 1

 SCF Done:  E(RB3LYP) =  -990.486201048     A.U. after   14 cycles

  Exact polarizability:   0.000   0.000   0.000   0.000   0.000   0.000
 Approx polarizability: 238.117   1.789 210.257 -15.823  -2.048 217.023

 SCF Done:  E(RB3LYP) =  -990.493039807     A.U. after   12 cycles
 SCF Done:  E(RB3LYP) =  -990.501017908     A.U. after   13 cycles
 SCF Done:  E(RB3LYP) =  -990.503601879     A.U. after   15 cycles
 SCF Done:  E(RB3LYP) =  -990.505209463     A.U. after   15 cycles
 SCF Done:  E(RB3LYP) =  -990.505189100     A.U. after   15 cycles
 SCF Done:  E(RB3LYP) =  -990.505535685     A.U. after   15 cycles
 SCF Done:  E(RB3LYP) =  -990.504862288     A.U. after   13 cycles
 SCF Done:  E(RB3LYP) =  -990.506161253     A.U. after   12 cycles
 SCF Done:  E(RB3LYP) =  -990.506326707     A.U. after   11 cycles
 SCF Done:  E(RB3LYP) =  -990.506671271     A.U. after   11 cycles
 SCF Done:  E(RB3LYP) =  -990.506680833     A.U. after   10 cycles
 SCF Done:  E(RB3LYP) =  -990.506685164     A.U. after    9 cycles
 SCF Done:  E(RB3LYP) =  -990.506688706     A.U. after   10 cycles
 SCF Done:  E(RB3LYP) =  -990.506691076     A.U. after    9 cycles
 SCF Done:  E(RB3LYP) =  -990.506693690     A.U. after    9 cycles
 SCF Done:  E(RB3LYP) =  -990.506694870     A.U. after    9 cycles
 SCF Done:  E(RB3LYP) =  -990.506695494     A.U. after    7 cycles
 SCF Done:  E(RB3LYP) =  -990.506695661     A.U. after    7 cycles
 SCF Done:  E(RB3LYP) =  -990.506695727     A.U. after    7 cycles
 Optimization completed.
    -- Stationary point found.

                         Standard orientation:
 ---------------------------------------------------------------------
 Center     Atomic      Atomic             Coordinates (Angstroms)
 Number     Number       Type             X           Y           Z
 ---------------------------------------------------------------------
      1          1           0        7.378791   -1.131931    1.044358
      2          6           0        6.787815   -0.211726    1.088720
      3          1           0        7.464764    0.620501    0.872139
      4          1           0        6.388741   -0.093425    2.100875
      5          6           0        5.715174   -0.264280    0.009759
      6          8           0        5.994438   -0.384218   -1.180176
      7          7           0        4.431794   -0.169538    0.454579
      8          1           0        4.206812   -0.039623    1.433429
      9          6           0        3.296308   -0.170561   -0.448251
     10          1           0        3.570001    0.406878   -1.338973
     11          6           0        2.898054   -1.596597   -0.882286
     12          1           0        2.674969   -2.206857   -0.001235
     13          1           0        2.008917   -1.587091   -1.520825
     14          1           0        3.732679   -2.044877   -1.427469
     15          6           0        2.133437    0.506173    0.284983
     16          8           0        2.072988    0.528434    1.510793
     17          7           0        1.195135    1.090724   -0.524933
     18          1           0        1.220507    0.802358   -1.496463
     19          6           0       -0.136103    1.382152   -0.017617
     20          1           0       -0.023984    1.512758    1.063223
     21          6           0       -0.682529    2.673649   -0.646331
     22          1           0       -0.798864    2.564895   -1.731149
     23          1           0       -1.658714    2.945184   -0.232899
     24          1           0        0.010991    3.497718   -0.456582
     25          6           0       -1.056407    0.161548   -0.269173
     26          8           0       -0.654075   -0.844066   -0.851489
     27          7           0       -2.335023    0.299283    0.157881
     28          1           0       -2.671854    1.136240    0.621668
     29          6           0       -3.340536   -0.729593   -0.033614
     30          1           0       -3.247459   -1.113998   -1.056936
     31          6           0       -3.168464   -1.902364    0.951632
     32          1           0       -3.275715   -1.553364    1.983760
     33          1           0       -3.912367   -2.686628    0.771220
     34          1           0       -2.172593   -2.332716    0.821587
     35          6           0       -4.704857   -0.041483    0.148249
     36          8           0       -4.797865    1.049668    0.706755
     37          7           0       -5.770468   -0.738630   -0.324064
     38          1           0       -5.601081   -1.619859   -0.788245
     39          6           0       -7.142392   -0.275185   -0.191829
     40          1           0       -7.114619    0.689264    0.316184
     41          1           0       -7.610210   -0.150226   -1.174792
     42          1           0       -7.740660   -0.977018    0.400376
 ---------------------------------------------------------------------

 The electronic state is 1-A.
 Alpha  occ. eigenvalues --  -19.13419 -19.12257 -19.12151 -19.09197 -14.38368
 Alpha  occ. eigenvalues --  -14.36441 -14.36209 -14.34386 -10.30568 -10.29229
 Alpha  occ. eigenvalues --  -10.29031 -10.27252 -10.24908 -10.23983 -10.23388
 Alpha  occ. eigenvalues --  -10.22781 -10.19605 -10.19394 -10.18008 -10.17157
 Alpha  occ. eigenvalues --   -1.05474  -1.04424  -1.03571  -1.01205  -0.94136
 Alpha  occ. eigenvalues --   -0.93117  -0.92841  -0.90811  -0.79789  -0.77547
 Alpha  occ. eigenvalues --   -0.75435  -0.72308  -0.71416  -0.67533  -0.65906
 Alpha  occ. eigenvalues --   -0.63224  -0.60744  -0.58979  -0.58704  -0.56785
 Alpha  occ. eigenvalues --   -0.56007  -0.52009  -0.49338  -0.49277  -0.48123
 Alpha  occ. eigenvalues --   -0.47028  -0.46348  -0.46161  -0.45265  -0.44446
 Alpha  occ. eigenvalues --   -0.44178  -0.43482  -0.43146  -0.42346  -0.41270
 Alpha  occ. eigenvalues --   -0.40943  -0.40766  -0.40428  -0.39602  -0.39367
 Alpha  occ. eigenvalues --   -0.38868  -0.38140  -0.38047  -0.37134  -0.37064
 Alpha  occ. eigenvalues --   -0.36174  -0.35830  -0.35357  -0.33255  -0.27827
 Alpha  occ. eigenvalues --   -0.27502  -0.26932  -0.26080  -0.25892  -0.25361
 Alpha  occ. eigenvalues --   -0.23748  -0.23224
 Alpha virt. eigenvalues --    0.00695   0.01779   0.02169   0.04486   0.05559
 Alpha virt. eigenvalues --    0.07828   0.08870   0.10226   0.10860   0.12624
 Alpha virt. eigenvalues --    0.13071   0.13513   0.13901   0.14424   0.14676

 Mulliken atomic charges:
              1
     1  H    0.180676
     2  C   -0.532805
     3  H    0.180765
     4  H    0.146220
     5  C    0.598299
     6  O   -0.525853
     7  N   -0.604433
     8  H    0.342967
     9  C   -0.036112
    10  H    0.170496
    11  C   -0.449510
    12  H    0.156026
    13  H    0.163479
    14  H    0.179932
    15  C    0.606783
    16  O   -0.528989
    17  N   -0.575410
    18  H    0.333148
    19  C   -0.086233
    20  H    0.200226
    21  C   -0.452626
    22  H    0.153209
    23  H    0.158097
    24  H    0.172831
    25  C    0.622658
    26  O   -0.536779
    27  N   -0.619004
    28  H    0.355524
    29  C   -0.031354
    30  H    0.168810
    31  C   -0.445724
    32  H    0.162773
    33  H    0.136964
    34  H    0.194281
    35  C    0.607027
    36  O   -0.530475
    37  N   -0.592617
    38  H    0.332723
    39  C   -0.314463
    40  H    0.208765
    41  H    0.164833
    42  H    0.164875
 Sum of Mulliken atomic charges =   0.00000

 Dipole moment (field-independent basis, Debye):
    X=             -6.8933    Y=             -0.7060    Z=             -0.1290  Tot=              6.9306
 Quadrupole moment (field-independent basis, Debye-Ang):
   XX=           -108.7546   YY=           -115.7422   ZZ=           -122.1941
   XY=             14.6296   XZ=             19.6184   YZ=             -3.7446

 Normal termination of Gaussian 09 at Thu Dec 29 17:30:47 2016.
