 Gaussian 09, Revision A.02,
 Gaussian 09:  EM64L-G09RevA.02 11-Jun-2009

 ----------------------------------------------------------------------
 # b3lyp/6-31G* Opt=(ModRedundant, maxcycles=1000, calcfc) geom=nocrowd
 ----------------------------------------------------------------------

 ------------------
 Phi Psi fixed scan
 ------------------
 Symbolic Z-matrix:
 Charge =  0 Multiplicity = 1

 SCF Done:  E(RB3LYP) =  -990.486830943     A.U. after   15 cycles

  Exact polarizability:   0.000   0.000   0.000   0.000   0.000   0.000
 Approx polarizability: 219.669   7.257 218.161 -12.290 -27.583 230.254

 SCF Done:  E(RB3LYP) =  -990.493893270     A.U. after   16 cycles
 SCF Done:  E(RB3LYP) =  -990.501658986     A.U. after   13 cycles
 SCF Done:  E(RB3LYP) =  -990.503655406     A.U. after   13 cycles
 SCF Done:  E(RB3LYP) =  -990.504965729     A.U. after   16 cycles
 SCF Done:  E(RB3LYP) =  -990.505049112     A.U. after   15 cycles
 SCF Done:  E(RB3LYP) =  -990.505585759     A.U. after   15 cycles
 SCF Done:  E(RB3LYP) =  -990.504049396     A.U. after   15 cycles
 SCF Done:  E(RB3LYP) =  -990.505681078     A.U. after   15 cycles
 SCF Done:  E(RB3LYP) =  -990.505649358     A.U. after   12 cycles
 SCF Done:  E(RB3LYP) =  -990.505949858     A.U. after   10 cycles
 SCF Done:  E(RB3LYP) =  -990.505947273     A.U. after   12 cycles
 SCF Done:  E(RB3LYP) =  -990.505971312     A.U. after   12 cycles
 SCF Done:  E(RB3LYP) =  -990.505975821     A.U. after   10 cycles
 SCF Done:  E(RB3LYP) =  -990.505976884     A.U. after    9 cycles
 SCF Done:  E(RB3LYP) =  -990.505977179     A.U. after    9 cycles
 SCF Done:  E(RB3LYP) =  -990.505977404     A.U. after    7 cycles
 SCF Done:  E(RB3LYP) =  -990.505977540     A.U. after    9 cycles
 SCF Done:  E(RB3LYP) =  -990.505977565     A.U. after    8 cycles
 SCF Done:  E(RB3LYP) =  -990.505977569     A.U. after    6 cycles
 Optimization completed.
    -- Stationary point found.

                         Standard orientation:
 ---------------------------------------------------------------------
 Center     Atomic      Atomic             Coordinates (Angstroms)
 Number     Number       Type             X           Y           Z
 ---------------------------------------------------------------------
      1          1           0        6.414052   -1.891506    0.947305
      2          6           0        6.040671   -0.867423    0.848169
      3          1           0        6.843288   -0.270075    0.404723
      4          1           0        5.810853   -0.474423    1.843306
      5          6           0        4.849882   -0.868733   -0.099284
      6          8           0        4.939573   -1.260826   -1.259470
      7          7           0        3.681329   -0.405391    0.426403
      8          1           0        3.612914   -0.064923    1.377641
      9          6           0        2.461038   -0.326073   -0.354300
     10          1           0        2.737432   -0.043937   -1.376987
     11          6           0        1.712003   -1.673869   -0.395447
     12          1           0        1.462853   -1.995374    0.621065
     13          1           0        0.781994   -1.608915   -0.970752
     14          1           0        2.361088   -2.422571   -0.857331
     15          6           0        1.587151    0.756134    0.292547
     16          8           0        1.654622    1.003274    1.492322
     17          7           0        0.705955    1.378162   -0.545915
     18          1           0        0.802315    1.222313   -1.541077
     19          6           0       -0.195847    2.434565   -0.090787
     20          1           0        0.269211    2.902143    0.780617
     21          6           0       -0.413008    3.479012   -1.191317
     22          1           0       -0.859934    3.025852   -2.085037
     23          1           0       -1.094500    4.252802   -0.828358
     24          1           0        0.535421    3.948868   -1.471579
     25          6           0       -1.557293    1.910327    0.411894
     26          8           0       -2.220589    2.560851    1.212795
     27          7           0       -1.995342    0.765686   -0.174571
     28          1           0       -1.349519    0.175068   -0.687856
     29          6           0       -3.209937    0.099072    0.252868
     30          1           0       -3.309437    0.221010    1.339717
     31          6           0       -4.457759    0.700620   -0.420793
     32          1           0       -4.400377    0.585567   -1.508090
     33          1           0       -5.377783    0.220555   -0.068345
     34          1           0       -4.509533    1.764721   -0.176683
     35          6           0       -3.035466   -1.393135   -0.085620
     36          8           0       -2.125764   -1.783430   -0.816337
     37          7           0       -3.961457   -2.220655    0.463263
     38          1           0       -4.658082   -1.821677    1.076551
     39          6           0       -3.975298   -3.657157    0.238623
     40          1           0       -3.140725   -3.893681   -0.421978
     41          1           0       -3.853037   -4.202725    1.181093
     42          1           0       -4.911435   -3.972705   -0.235992
 ---------------------------------------------------------------------

 The electronic state is 1-A.
 Alpha  occ. eigenvalues --  -19.13294 -19.12732 -19.11103 -19.09750 -14.38129
 Alpha  occ. eigenvalues --  -14.37579 -14.35598 -14.34993 -10.30365 -10.29740
 Alpha  occ. eigenvalues --  -10.28345 -10.27801 -10.24435 -10.23910 -10.23535
 Alpha  occ. eigenvalues --  -10.23177 -10.19724 -10.19269 -10.18438 -10.17869
 Alpha  occ. eigenvalues --   -1.05224  -1.04757  -1.02938  -1.01778  -0.94047
 Alpha  occ. eigenvalues --   -0.93879  -0.92060  -0.91412  -0.79572  -0.77691
 Alpha  occ. eigenvalues --   -0.76028  -0.72111  -0.71936  -0.67557  -0.65805
 Alpha  occ. eigenvalues --   -0.63707  -0.60470  -0.60207  -0.57841  -0.57545
 Alpha  occ. eigenvalues --   -0.55557  -0.52614  -0.49734  -0.48987  -0.48416
 Alpha  occ. eigenvalues --   -0.46976  -0.46777  -0.46012  -0.45581  -0.44920
 Alpha  occ. eigenvalues --   -0.43826  -0.43666  -0.43057  -0.41582  -0.41424
 Alpha  occ. eigenvalues --   -0.41006  -0.40626  -0.40395  -0.40150  -0.39728
 Alpha  occ. eigenvalues --   -0.38673  -0.38148  -0.37841  -0.37698  -0.37274
 Alpha  occ. eigenvalues --   -0.36588  -0.36158  -0.34799  -0.33850  -0.28620
 Alpha  occ. eigenvalues --   -0.27299  -0.27239  -0.26680  -0.25369  -0.24534
 Alpha  occ. eigenvalues --   -0.23854  -0.23722
 Alpha virt. eigenvalues --    0.00965   0.01242   0.02550   0.03989   0.05807
 Alpha virt. eigenvalues --    0.06183   0.09554   0.10886   0.11167   0.11787
 Alpha virt. eigenvalues --    0.13073   0.13440   0.14102   0.14231   0.14714

 Mulliken atomic charges:
              1
     1  H    0.182181
     2  C   -0.533086
     3  H    0.182205
     4  H    0.147680
     5  C    0.597729
     6  O   -0.524599
     7  N   -0.602286
     8  H    0.343873
     9  C   -0.033245
    10  H    0.164423
    11  C   -0.452657
    12  H    0.157562
    13  H    0.163659
    14  H    0.182807
    15  C    0.607637
    16  O   -0.520590
    17  N   -0.633257
    18  H    0.333721
    19  C   -0.032053
    20  H    0.198986
    21  C   -0.474341
    22  H    0.149100
    23  H    0.187496
    24  H    0.163829
    25  C    0.614488
    26  O   -0.529783
    27  N   -0.617437
    28  H    0.355281
    29  C   -0.034723
    30  H    0.174795
    31  C   -0.442397
    32  H    0.158474
    33  H    0.134937
    34  H    0.189708
    35  C    0.607185
    36  O   -0.533248
    37  N   -0.590976
    38  H    0.333394
    39  C   -0.314230
    40  H    0.208311
    41  H    0.165522
    42  H    0.163926
 Sum of Mulliken atomic charges =   0.00000

 Dipole moment (field-independent basis, Debye):
    X=             -4.2689    Y=             -1.3674    Z=             -0.1764  Tot=              4.4860
 Quadrupole moment (field-independent basis, Debye-Ang):
   XX=           -107.3424   YY=           -117.5197   ZZ=           -124.1479
   XY=             19.6527   XZ=              8.5437   YZ=            -16.9951

 Normal termination of Gaussian 09 at Thu Dec 29 19:13:02 2016.
