 Gaussian 09, Revision A.02,
 Gaussian 09:  EM64L-G09RevA.02 11-Jun-2009

 ----------------------------------------------------------------------
 # b3lyp/6-31G* Opt=(ModRedundant, maxcycles=1000, calcfc) geom=nocrowd
 ----------------------------------------------------------------------

 ------------------
 Phi Psi fixed scan
 ------------------
 Symbolic Z-matrix:
 Charge =  0 Multiplicity = 1

 SCF Done:  E(RB3LYP) =  -990.491505273     A.U. after   14 cycles

  Exact polarizability:   0.000   0.000   0.000   0.000   0.000   0.000
 Approx polarizability: 244.669   1.541 250.551  -0.749 -31.362 170.360

 SCF Done:  E(RB3LYP) =  -990.498912884     A.U. after   12 cycles
 SCF Done:  E(RB3LYP) =  -990.506828967     A.U. after   13 cycles
 SCF Done:  E(RB3LYP) =  -990.508334886     A.U. after   12 cycles
 SCF Done:  E(RB3LYP) =  -990.509193644     A.U. after   15 cycles
 SCF Done:  E(RB3LYP) =  -990.509517533     A.U. after   13 cycles
 SCF Done:  E(RB3LYP) =  -990.509586916     A.U. after   14 cycles
 SCF Done:  E(RB3LYP) =  -990.509871549     A.U. after   12 cycles
 SCF Done:  E(RB3LYP) =  -990.509926818     A.U. after   12 cycles
 SCF Done:  E(RB3LYP) =  -990.509955872     A.U. after   10 cycles
 SCF Done:  E(RB3LYP) =  -990.509965007     A.U. after    9 cycles
 SCF Done:  E(RB3LYP) =  -990.509975084     A.U. after   10 cycles
 SCF Done:  E(RB3LYP) =  -990.509981577     A.U. after    9 cycles
 SCF Done:  E(RB3LYP) =  -990.509986117     A.U. after   10 cycles
 SCF Done:  E(RB3LYP) =  -990.509987395     A.U. after    8 cycles
 SCF Done:  E(RB3LYP) =  -990.509987900     A.U. after    8 cycles
 SCF Done:  E(RB3LYP) =  -990.509988093     A.U. after    7 cycles
 SCF Done:  E(RB3LYP) =  -990.509988116     A.U. after    6 cycles
 Optimization completed.
    -- Stationary point found.

                         Standard orientation:
 ---------------------------------------------------------------------
 Center     Atomic      Atomic             Coordinates (Angstroms)
 Number     Number       Type             X           Y           Z
 ---------------------------------------------------------------------
      1          1           0        7.179013   -1.440905    1.514750
      2          6           0        6.939365   -1.041418    0.524348
      3          1           0        6.715370   -1.872264   -0.151792
      4          1           0        7.828938   -0.517133    0.161323
      5          6           0        5.800727   -0.040431    0.661886
      6          8           0        5.886742    0.946575    1.388178
      7          7           0        4.690463   -0.310583   -0.078091
      8          1           0        4.587811   -1.167648   -0.609747
      9          6           0        3.493260    0.503307   -0.000253
     10          1           0        3.326591    0.774539    1.049947
     11          6           0        3.621034    1.800984   -0.822006
     12          1           0        3.777435    1.569672   -1.880995
     13          1           0        2.723186    2.421949   -0.729470
     14          1           0        4.477216    2.369128   -0.450130
     15          6           0        2.328366   -0.370757   -0.499908
     16          8           0        2.531853   -1.423429   -1.108556
     17          7           0        1.095606    0.126282   -0.251483
     18          1           0        0.967845    0.992539    0.264290
     19          6           0       -0.150303   -0.533766   -0.606096
     20          1           0       -0.215271   -0.633163   -1.698647
     21          6           0       -0.277717   -1.933113    0.028196
     22          1           0       -0.284257   -1.858284    1.120770
     23          1           0       -1.198724   -2.432413   -0.290724
     24          1           0        0.570907   -2.544626   -0.281768
     25          6           0       -1.272708    0.410335   -0.123776
     26          8           0       -1.018406    1.472977    0.447460
     27          7           0       -2.534831   -0.011765   -0.354540
     28          1           0       -2.741563   -0.914771   -0.769145
     29          6           0       -3.701041    0.722683    0.102588
     30          1           0       -3.498349    1.094978    1.114468
     31          6           0       -4.025664    1.921358   -0.809390
     32          1           0       -4.247988    1.579874   -1.825502
     33          1           0       -4.889096    2.482774   -0.435333
     34          1           0       -3.163562    2.592293   -0.838046
     35          6           0       -4.861294   -0.288842    0.137789
     36          8           0       -4.786116   -1.362303   -0.456272
     37          7           0       -5.952774    0.109858    0.839685
     38          1           0       -5.917112    0.997359    1.321230
     39          6           0       -7.161715   -0.691402    0.948422
     40          1           0       -7.001727   -1.605557    0.376059
     41          1           0       -7.366223   -0.952807    1.992701
     42          1           0       -8.026142   -0.156269    0.539489
 ---------------------------------------------------------------------

 The electronic state is 1-A.
 Alpha  occ. eigenvalues --  -19.13752 -19.13160 -19.11800 -19.09144 -14.38669
 Alpha  occ. eigenvalues --  -14.37117 -14.35895 -14.34176 -10.30912 -10.30182
 Alpha  occ. eigenvalues --  -10.28844 -10.27156 -10.25384 -10.24555 -10.23602
 Alpha  occ. eigenvalues --  -10.22772 -10.19902 -10.18609 -10.17926 -10.17579
 Alpha  occ. eigenvalues --   -1.05903  -1.04955  -1.03562  -1.01115  -0.94453
 Alpha  occ. eigenvalues --   -0.93850  -0.92598  -0.90672  -0.80152  -0.77697
 Alpha  occ. eigenvalues --   -0.75278  -0.72604  -0.71396  -0.67876  -0.66392
 Alpha  occ. eigenvalues --   -0.63595  -0.61237  -0.59539  -0.57906  -0.56690
 Alpha  occ. eigenvalues --   -0.56134  -0.52395  -0.49852  -0.49161  -0.48245
 Alpha  occ. eigenvalues --   -0.47340  -0.47236  -0.46284  -0.45086  -0.44544
 Alpha  occ. eigenvalues --   -0.43976  -0.43833  -0.43390  -0.42348  -0.41838
 Alpha  occ. eigenvalues --   -0.41133  -0.40977  -0.40428  -0.39770  -0.39142
 Alpha  occ. eigenvalues --   -0.38893  -0.38188  -0.38099  -0.37671  -0.37259
 Alpha  occ. eigenvalues --   -0.36552  -0.35958  -0.35328  -0.33118  -0.28180
 Alpha  occ. eigenvalues --   -0.27885  -0.26921  -0.26846  -0.25718  -0.25574
 Alpha  occ. eigenvalues --   -0.23646  -0.23138
 Alpha virt. eigenvalues --    0.00260   0.01321   0.02516   0.04535   0.05274
 Alpha virt. eigenvalues --    0.08344   0.09883   0.10496   0.10656   0.12320
 Alpha virt. eigenvalues --    0.12789   0.13069   0.13973   0.14351   0.14567

 Mulliken atomic charges:
              1
     1  H    0.179958
     2  C   -0.532790
     3  H    0.146950
     4  H    0.180353
     5  C    0.595505
     6  O   -0.525833
     7  N   -0.604749
     8  H    0.345484
     9  C   -0.029180
    10  H    0.172739
    11  C   -0.447276
    12  H    0.152686
    13  H    0.144393
    14  H    0.188572
    15  C    0.617244
    16  O   -0.546660
    17  N   -0.635219
    18  H    0.359327
    19  C   -0.017563
    20  H    0.176488
    21  C   -0.465860
    22  H    0.155507
    23  H    0.147695
    24  H    0.203799
    25  C    0.615273
    26  O   -0.544782
    27  N   -0.625129
    28  H    0.360090
    29  C   -0.035001
    30  H    0.172719
    31  C   -0.444946
    32  H    0.163202
    33  H    0.139629
    34  H    0.191212
    35  C    0.607831
    36  O   -0.528872
    37  N   -0.592699
    38  H    0.333349
    39  C   -0.314927
    40  H    0.209545
    41  H    0.166449
    42  H    0.165492
 Sum of Mulliken atomic charges =   0.00000

 Dipole moment (field-independent basis, Debye):
    X=             -7.4816    Y=              0.1138    Z=              0.1074  Tot=              7.4832
 Quadrupole moment (field-independent basis, Debye-Ang):
   XX=            -99.9689   YY=           -124.1973   ZZ=           -121.0344
   XY=            -18.6851   XZ=            -18.6066   YZ=             -6.2395

 Normal termination of Gaussian 09 at Thu Dec 29 08:41:10 2016.
