 Gaussian 09, Revision A.02,
 Gaussian 09:  EM64L-G09RevA.02 11-Jun-2009

 ----------------------------------------------------------------------
 # b3lyp/6-31G* Opt=(ModRedundant, maxcycles=1000, calcfc) geom=nocrowd
 ----------------------------------------------------------------------

 ------------------
 Phi Psi fixed scan
 ------------------
 Symbolic Z-matrix:
 Charge =  0 Multiplicity = 1

 SCF Done:  E(RB3LYP) =  -990.491456462     A.U. after   14 cycles

  Exact polarizability:   0.000   0.000   0.000   0.000   0.000   0.000
 Approx polarizability: 242.489  -5.149 238.461  -1.042  36.723 184.919

 SCF Done:  E(RB3LYP) =  -990.499257172     A.U. after   12 cycles
 SCF Done:  E(RB3LYP) =  -990.506417969     A.U. after   13 cycles
 SCF Done:  E(RB3LYP) =  -990.507871220     A.U. after   12 cycles
 SCF Done:  E(RB3LYP) =  -990.509004357     A.U. after   14 cycles
 SCF Done:  E(RB3LYP) =  -990.509642392     A.U. after   13 cycles
 SCF Done:  E(RB3LYP) =  -990.509827948     A.U. after   15 cycles
 SCF Done:  E(RB3LYP) =  -990.509696637     A.U. after   12 cycles
 SCF Done:  E(RB3LYP) =  -990.509838436     A.U. after   15 cycles
 SCF Done:  E(RB3LYP) =  -990.509880624     A.U. after   15 cycles
 SCF Done:  E(RB3LYP) =  -990.509886848     A.U. after    8 cycles
 SCF Done:  E(RB3LYP) =  -990.509888725     A.U. after    9 cycles
 SCF Done:  E(RB3LYP) =  -990.509890965     A.U. after    8 cycles
 SCF Done:  E(RB3LYP) =  -990.509894969     A.U. after    9 cycles
 SCF Done:  E(RB3LYP) =  -990.509902075     A.U. after   15 cycles
 SCF Done:  E(RB3LYP) =  -990.509910936     A.U. after   10 cycles
 SCF Done:  E(RB3LYP) =  -990.509915328     A.U. after    9 cycles
 SCF Done:  E(RB3LYP) =  -990.509915888     A.U. after    9 cycles
 SCF Done:  E(RB3LYP) =  -990.509915920     A.U. after    6 cycles
 SCF Done:  E(RB3LYP) =  -990.509915931     A.U. after    6 cycles
 Optimization completed.
    -- Stationary point found.

                         Standard orientation:
 ---------------------------------------------------------------------
 Center     Atomic      Atomic             Coordinates (Angstroms)
 Number     Number       Type             X           Y           Z
 ---------------------------------------------------------------------
      1          1           0        7.830918   -0.398972   -0.366513
      2          6           0        7.007439   -0.897154    0.154661
      3          1           0        7.373564   -1.178410    1.147031
      4          1           0        6.734116   -1.802793   -0.395561
      5          6           0        5.859931    0.089803    0.317066
      6          8           0        5.997656    1.155594    0.911990
      7          7           0        4.679058   -0.286522   -0.246818
      8          1           0        4.543127   -1.202434   -0.659350
      9          6           0        3.472555    0.506240   -0.113057
     10          1           0        3.424483    0.891913    0.913681
     11          6           0        3.455828    1.705196   -1.081252
     12          1           0        3.487364    1.359084   -2.119746
     13          1           0        2.556158    2.314570   -0.943606
     14          1           0        4.332991    2.326197   -0.884155
     15          6           0        2.287445   -0.442774   -0.364001
     16          8           0        2.449637   -1.557206   -0.863093
     17          7           0        1.068471    0.062139   -0.051379
     18          1           0        0.993664    0.906980    0.507761
     19          6           0       -0.156544   -0.726394   -0.083420
     20          1           0       -0.319699   -1.083491   -1.106818
     21          6           0       -0.122949   -1.935381    0.873441
     22          1           0        0.005851   -1.594652    1.906072
     23          1           0       -1.057851   -2.502777    0.806961
     24          1           0        0.706879   -2.590738    0.602776
     25          6           0       -1.282867    0.230260    0.336372
     26          8           0       -1.067594    1.163415    1.111897
     27          7           0       -2.499444   -0.029269   -0.192047
     28          1           0       -2.669895   -0.835220   -0.786254
     29          6           0       -3.695491    0.690192    0.210089
     30          1           0       -3.651703    0.854223    1.294132
     31          6           0       -3.805449    2.057150   -0.492018
     32          1           0       -3.867663    1.926039   -1.577096
     33          1           0       -4.692036    2.607281   -0.157264
     34          1           0       -2.919815    2.651292   -0.253968
     35          6           0       -4.888177   -0.220797   -0.133960
     36          8           0       -4.757025   -1.182178   -0.888364
     37          7           0       -6.068568    0.136593    0.433726
     38          1           0       -6.080860    0.928855    1.060573
     39          6           0       -7.313689   -0.573772    0.188166
     40          1           0       -7.093666   -1.395221   -0.494290
     41          1           0       -7.722921   -0.980413    1.119703
     42          1           0       -8.059211    0.085681   -0.270416
 ---------------------------------------------------------------------

 The electronic state is 1-A.
 Alpha  occ. eigenvalues --  -19.13723 -19.12875 -19.12064 -19.09255 -14.38633
 Alpha  occ. eigenvalues --  -14.37144 -14.36121 -14.34295 -10.30886 -10.29944
 Alpha  occ. eigenvalues --  -10.29010 -10.27260 -10.25333 -10.24346 -10.23580
 Alpha  occ. eigenvalues --  -10.22942 -10.19856 -10.18539 -10.18004 -10.17663
 Alpha  occ. eigenvalues --   -1.05839  -1.04779  -1.03775  -1.01233  -0.94420
 Alpha  occ. eigenvalues --   -0.93757  -0.92730  -0.90798  -0.80046  -0.77767
 Alpha  occ. eigenvalues --   -0.75377  -0.72579  -0.71486  -0.67926  -0.66205
 Alpha  occ. eigenvalues --   -0.63568  -0.61161  -0.59362  -0.58239  -0.56798
 Alpha  occ. eigenvalues --   -0.56110  -0.52322  -0.49854  -0.49021  -0.48000
 Alpha  occ. eigenvalues --   -0.47430  -0.47161  -0.46229  -0.45250  -0.44585
 Alpha  occ. eigenvalues --   -0.44298  -0.43612  -0.43346  -0.42491  -0.42010
 Alpha  occ. eigenvalues --   -0.41108  -0.40995  -0.40589  -0.39377  -0.39185
 Alpha  occ. eigenvalues --   -0.38766  -0.38204  -0.37999  -0.37760  -0.37343
 Alpha  occ. eigenvalues --   -0.36379  -0.36062  -0.35492  -0.33221  -0.28063
 Alpha  occ. eigenvalues --   -0.27861  -0.27125  -0.26596  -0.25967  -0.25603
 Alpha  occ. eigenvalues --   -0.23759  -0.23249
 Alpha virt. eigenvalues --    0.00265   0.01273   0.02335   0.04425   0.05294
 Alpha virt. eigenvalues --    0.08530   0.09427   0.10415   0.10663   0.12336
 Alpha virt. eigenvalues --    0.12929   0.13335   0.14121   0.14334   0.14438

 Mulliken atomic charges:
              1
     1  H    0.180750
     2  C   -0.532907
     3  H    0.180369
     4  H    0.147126
     5  C    0.595600
     6  O   -0.525244
     7  N   -0.604907
     8  H    0.345633
     9  C   -0.029720
    10  H    0.171992
    11  C   -0.443734
    12  H    0.152907
    13  H    0.143430
    14  H    0.188392
    15  C    0.613690
    16  O   -0.542837
    17  N   -0.627585
    18  H    0.352885
    19  C   -0.011080
    20  H    0.166789
    21  C   -0.459549
    22  H    0.159874
    23  H    0.148597
    24  H    0.196638
    25  C    0.607287
    26  O   -0.545297
    27  N   -0.617076
    28  H    0.357241
    29  C   -0.038618
    30  H    0.172850
    31  C   -0.443980
    32  H    0.163715
    33  H    0.138796
    34  H    0.191549
    35  C    0.607263
    36  O   -0.527985
    37  N   -0.592418
    38  H    0.333283
    39  C   -0.314837
    40  H    0.209534
    41  H    0.166060
    42  H    0.165521
 Sum of Mulliken atomic charges =   0.00000

 Dipole moment (field-independent basis, Debye):
    X=             -7.4628    Y=             -0.0678    Z=              0.1788  Tot=              7.4652
 Quadrupole moment (field-independent basis, Debye-Ang):
   XX=            -98.1441   YY=           -123.9222   ZZ=           -122.1847
   XY=            -19.4344   XZ=            -15.6017   YZ=             -6.9286

 Normal termination of Gaussian 09 at Thu Dec 29 10:47:05 2016.
