 Gaussian 09, Revision A.02,
 Gaussian 09:  EM64L-G09RevA.02 11-Jun-2009

 ----------------------------------------------------------------------
 # b3lyp/6-31G* Opt=(ModRedundant, maxcycles=1000, calcfc) geom=nocrowd
 ----------------------------------------------------------------------

 ------------------
 Phi Psi fixed scan
 ------------------
 Symbolic Z-matrix:
 Charge =  0 Multiplicity = 1

 SCF Done:  E(RB3LYP) =  -990.487776979     A.U. after   14 cycles

  Exact polarizability:   0.000   0.000   0.000   0.000   0.000   0.000
 Approx polarizability: 239.149  -7.937 193.782  11.258 -22.191 234.051

 SCF Done:  E(RB3LYP) =  -990.494481442     A.U. after   12 cycles
 SCF Done:  E(RB3LYP) =  -990.501773789     A.U. after   13 cycles
 SCF Done:  E(RB3LYP) =  -990.503818588     A.U. after   13 cycles
 SCF Done:  E(RB3LYP) =  -990.505805210     A.U. after   15 cycles
 SCF Done:  E(RB3LYP) =  -990.506106502     A.U. after   15 cycles
 SCF Done:  E(RB3LYP) =  -990.506511682     A.U. after   12 cycles
 SCF Done:  E(RB3LYP) =  -990.494045590     A.U. after   15 cycles
 SCF Done:  E(RB3LYP) =  -990.506575277     A.U. after   15 cycles
 SCF Done:  E(RB3LYP) =  -990.506661359     A.U. after   11 cycles
 SCF Done:  E(RB3LYP) =  -990.506714836     A.U. after    9 cycles
 SCF Done:  E(RB3LYP) =  -990.506719538     A.U. after    9 cycles
 SCF Done:  E(RB3LYP) =  -990.506723144     A.U. after    9 cycles
 SCF Done:  E(RB3LYP) =  -990.506725943     A.U. after    9 cycles
 SCF Done:  E(RB3LYP) =  -990.506728276     A.U. after    9 cycles
 SCF Done:  E(RB3LYP) =  -990.506732693     A.U. after   10 cycles
 SCF Done:  E(RB3LYP) =  -990.506734560     A.U. after    9 cycles
 SCF Done:  E(RB3LYP) =  -990.506735214     A.U. after    8 cycles
 SCF Done:  E(RB3LYP) =  -990.506735233     A.U. after    7 cycles
 SCF Done:  E(RB3LYP) =  -990.506735230     A.U. after    7 cycles
 Optimization completed.
    -- Stationary point found.

                         Standard orientation:
 ---------------------------------------------------------------------
 Center     Atomic      Atomic             Coordinates (Angstroms)
 Number     Number       Type             X           Y           Z
 ---------------------------------------------------------------------
      1          1           0        7.680101    0.043708   -0.923928
      2          6           0        6.975791   -0.549905   -0.332605
      3          1           0        7.485527   -0.831191    0.594061
      4          1           0        6.719589   -1.456331   -0.889685
      5          6           0        5.772836    0.315682    0.013773
      6          8           0        5.882741    1.357024    0.655634
      7          7           0        4.572505   -0.137616   -0.443454
      8          1           0        4.470119   -1.040544   -0.892438
      9          6           0        3.326817    0.533449   -0.128962
     10          1           0        3.365556    0.858659    0.919204
     11          6           0        3.096487    1.775356   -1.012264
     12          1           0        3.043126    1.489107   -2.067897
     13          1           0        2.166498    2.287487   -0.743006
     14          1           0        3.930996    2.466488   -0.870828
     15          6           0        2.204056   -0.503568   -0.306235
     16          8           0        2.400048   -1.575625   -0.876042
     17          7           0        0.979417   -0.113217    0.145152
     18          1           0        0.944539    0.651788    0.811223
     19          6           0       -0.146285   -1.047664    0.257850
     20          1           0       -0.362185   -1.431717   -0.744464
     21          6           0        0.133562   -2.220489    1.211134
     22          1           0        0.309678   -1.842480    2.222510
     23          1           0       -0.727033   -2.898844    1.239378
     24          1           0        1.006405   -2.778755    0.867449
     25          6           0       -1.316688   -0.212636    0.797200
     26          8           0       -1.207726    0.396777    1.862017
     27          7           0       -2.417249   -0.148521    0.014202
     28          1           0       -2.510289   -0.696112   -0.835673
     29          6           0       -3.621835    0.553934    0.420886
     30          1           0       -3.785302    0.366092    1.489449
     31          6           0       -3.500186    2.074093    0.200321
     32          1           0       -3.349387    2.295560   -0.861107
     33          1           0       -4.399904    2.599018    0.540248
     34          1           0       -2.645785    2.448530    0.769382
     35          6           0       -4.777015   -0.045024   -0.401269
     36          8           0       -4.560235   -0.721523   -1.404053
     37          7           0       -6.021812    0.254400    0.051448
     38          1           0       -6.107941    0.794744    0.900798
     39          6           0       -7.235543   -0.183376   -0.619502
     40          1           0       -6.936272   -0.740834   -1.507533
     41          1           0       -7.830279   -0.835590    0.029968
     42          1           0       -7.848388    0.673555   -0.920951
 ---------------------------------------------------------------------

 The electronic state is 1-A.
 Alpha  occ. eigenvalues --  -19.13603 -19.12545 -19.12424 -19.09469 -14.38529
 Alpha  occ. eigenvalues --  -14.37077 -14.36607 -14.34532 -10.30772 -10.29644
 Alpha  occ. eigenvalues --  -10.29364 -10.27468 -10.25193 -10.24205 -10.23496
 Alpha  occ. eigenvalues --  -10.23254 -10.19784 -10.18162 -10.18087 -10.17915
 Alpha  occ. eigenvalues --   -1.05695  -1.04643  -1.04004  -1.01465  -0.94308
 Alpha  occ. eigenvalues --   -0.93521  -0.93005  -0.91046  -0.79829  -0.77860
 Alpha  occ. eigenvalues --   -0.75442  -0.72502  -0.71671  -0.67949  -0.66027
 Alpha  occ. eigenvalues --   -0.63573  -0.60968  -0.59165  -0.58575  -0.57027
 Alpha  occ. eigenvalues --   -0.56017  -0.52415  -0.49735  -0.48943  -0.47934
 Alpha  occ. eigenvalues --   -0.47438  -0.47088  -0.46272  -0.45281  -0.44909
 Alpha  occ. eigenvalues --   -0.44346  -0.43461  -0.43310  -0.42350  -0.42026
 Alpha  occ. eigenvalues --   -0.41030  -0.40974  -0.40777  -0.39457  -0.38957
 Alpha  occ. eigenvalues --   -0.38632  -0.38384  -0.37895  -0.37622  -0.37375
 Alpha  occ. eigenvalues --   -0.36347  -0.36073  -0.35813  -0.33438  -0.27972
 Alpha  occ. eigenvalues --   -0.27706  -0.27155  -0.26347  -0.26237  -0.25714
 Alpha  occ. eigenvalues --   -0.24001  -0.23466
 Alpha virt. eigenvalues --    0.00289   0.01196   0.01936   0.04191   0.05395
 Alpha virt. eigenvalues --    0.08433   0.08833   0.10256   0.10726   0.12501
 Alpha virt. eigenvalues --    0.12949   0.13600   0.13833   0.14353   0.14808

 Mulliken atomic charges:
              1
     1  H    0.181344
     2  C   -0.533084
     3  H    0.181273
     4  H    0.147555
     5  C    0.595696
     6  O   -0.524390
     7  N   -0.604816
     8  H    0.345959
     9  C   -0.031198
    10  H    0.172001
    11  C   -0.442140
    12  H    0.154116
    13  H    0.142026
    14  H    0.188895
    15  C    0.611536
    16  O   -0.534947
    17  N   -0.621619
    18  H    0.345379
    19  C   -0.002318
    20  H    0.162139
    21  C   -0.462120
    22  H    0.167846
    23  H    0.147920
    24  H    0.187226
    25  C    0.594319
    26  O   -0.544660
    27  N   -0.610012
    28  H    0.357298
    29  C   -0.038853
    30  H    0.172857
    31  C   -0.443915
    32  H    0.163947
    33  H    0.139198
    34  H    0.189761
    35  C    0.606858
    36  O   -0.527403
    37  N   -0.592421
    38  H    0.332988
    39  C   -0.314593
    40  H    0.209454
    41  H    0.165936
    42  H    0.164959
 Sum of Mulliken atomic charges =   0.00000

 Dipole moment (field-independent basis, Debye):
    X=             -6.9511    Y=              0.0070    Z=             -0.0562  Tot=              6.9513
 Quadrupole moment (field-independent basis, Debye-Ang):
   XX=            -95.3518   YY=           -122.0119   ZZ=           -126.3540
   XY=            -17.9010   XZ=            -13.9768   YZ=             -5.7135

 Normal termination of Gaussian 09 at Thu Dec 29 08:43:50 2016.
