 Gaussian 09, Revision A.02,
 Gaussian 09:  EM64L-G09RevA.02 11-Jun-2009

 ----------------------------------------------------------------------
 # b3lyp/6-31G* Opt=(ModRedundant, maxcycles=1000, calcfc) geom=nocrowd
 ----------------------------------------------------------------------

 ------------------
 Phi Psi fixed scan
 ------------------
 Symbolic Z-matrix:
 Charge =  0 Multiplicity = 1

 SCF Done:  E(RB3LYP) =  -990.484165525     A.U. after   15 cycles

  Exact polarizability:   0.000   0.000   0.000   0.000   0.000   0.000
 Approx polarizability: 237.621  -3.396 207.870  22.294  -3.229 221.829

 SCF Done:  E(RB3LYP) =  -990.491043851     A.U. after   12 cycles
 SCF Done:  E(RB3LYP) =  -990.498524841     A.U. after   13 cycles
 SCF Done:  E(RB3LYP) =  -990.500323074     A.U. after   12 cycles
 SCF Done:  E(RB3LYP) =  -990.501379480     A.U. after   14 cycles
 SCF Done:  E(RB3LYP) =  -990.501841778     A.U. after   12 cycles
 SCF Done:  E(RB3LYP) =  -990.500087231     A.U. after   12 cycles
 SCF Done:  E(RB3LYP) =  -990.502052942     A.U. after   12 cycles
 SCF Done:  E(RB3LYP) =  -990.502375483     A.U. after   12 cycles
 SCF Done:  E(RB3LYP) =  -990.502038731     A.U. after   13 cycles
 SCF Done:  E(RB3LYP) =  -990.502780972     A.U. after   10 cycles
 SCF Done:  E(RB3LYP) =  -990.502803344     A.U. after   10 cycles
 SCF Done:  E(RB3LYP) =  -990.502856533     A.U. after   11 cycles
 SCF Done:  E(RB3LYP) =  -990.502908114     A.U. after   11 cycles
 SCF Done:  E(RB3LYP) =  -990.502957697     A.U. after   12 cycles
 SCF Done:  E(RB3LYP) =  -990.502969497     A.U. after   10 cycles
 SCF Done:  E(RB3LYP) =  -990.502972785     A.U. after    9 cycles
 SCF Done:  E(RB3LYP) =  -990.502973370     A.U. after    9 cycles
 SCF Done:  E(RB3LYP) =  -990.502973477     A.U. after    7 cycles
 SCF Done:  E(RB3LYP) =  -990.502973491     A.U. after    6 cycles
 Optimization completed.
    -- Stationary point found.

                         Standard orientation:
 ---------------------------------------------------------------------
 Center     Atomic      Atomic             Coordinates (Angstroms)
 Number     Number       Type             X           Y           Z
 ---------------------------------------------------------------------
      1          1           0       -7.447667   -1.085076   -0.695197
      2          6           0       -6.824916   -0.205262   -0.506587
      3          1           0       -7.380701    0.446682    0.174825
      4          1           0       -6.658842    0.323384   -1.450223
      5          6           0       -5.541281   -0.650485    0.178603
      6          8           0       -5.549279   -1.280478    1.232766
      7          7           0       -4.386246   -0.307351   -0.457643
      8          1           0       -4.376432    0.287007   -1.278399
      9          6           0       -3.084228   -0.590205    0.112694
     10          1           0       -3.138870   -0.412252    1.194782
     11          6           0       -2.655264   -2.052872   -0.117054
     12          1           0       -2.583215   -2.265635   -1.188697
     13          1           0       -1.683879   -2.260433    0.344748
     14          1           0       -3.403963   -2.711893    0.329249
     15          6           0       -2.090728    0.395087   -0.526808
     16          8           0       -2.377342    1.037066   -1.534116
     17          7           0       -0.857836    0.437132    0.058615
     18          1           0       -0.795990    0.070110    1.001621
     19          6           0        0.127595    1.481822   -0.275613
     20          1           0        0.361602    1.370706   -1.339801
     21          6           0       -0.376098    2.902170   -0.002755
     22          1           0       -0.550111    3.037651    1.067775
     23          1           0        0.377490    3.632491   -0.317843
     24          1           0       -1.296024    3.086856   -0.560032
     25          6           0        1.371829    1.184124    0.585036
     26          8           0        1.478065    1.610569    1.732920
     27          7           0        2.286337    0.363417    0.013248
     28          1           0        2.208804    0.055008   -0.950724
     29          6           0        3.515901   -0.021377    0.681917
     30          1           0        3.915853    0.860295    1.198347
     31          6           0        3.284389   -1.136401    1.720218
     32          1           0        2.892992   -2.035931    1.234108
     33          1           0        4.214151   -1.398391    2.237350
     34          1           0        2.563462   -0.786434    2.463259
     35          6           0        4.490915   -0.474304   -0.419378
     36          8           0        4.090186   -0.766678   -1.543536
     37          7           0        5.793232   -0.548450   -0.040376
     38          1           0        6.039451   -0.256495    0.894947
     39          6           0        6.851876   -1.001803   -0.928331
     40          1           0        6.389560   -1.269314   -1.878925
     41          1           0        7.589084   -0.209013   -1.098702
     42          1           0        7.361867   -1.879355   -0.515293
 ---------------------------------------------------------------------

 The electronic state is 1-A.
 Alpha  occ. eigenvalues --  -19.13453 -19.12882 -19.12263 -19.09700 -14.38406
 Alpha  occ. eigenvalues --  -14.37163 -14.36745 -14.34792 -10.30629 -10.29686
 Alpha  occ. eigenvalues --  -10.29451 -10.27694 -10.25043 -10.24182 -10.23557
 Alpha  occ. eigenvalues --  -10.23397 -10.19730 -10.18333 -10.18211 -10.17509
 Alpha  occ. eigenvalues --   -1.05541  -1.04805  -1.03985  -1.01706  -0.94177
 Alpha  occ. eigenvalues --   -0.93581  -0.92994  -0.91302  -0.79701  -0.77912
 Alpha  occ. eigenvalues --   -0.75483  -0.72411  -0.71874  -0.67962  -0.65922
 Alpha  occ. eigenvalues --   -0.63508  -0.60720  -0.58971  -0.58878  -0.57317
 Alpha  occ. eigenvalues --   -0.55965  -0.52496  -0.49631  -0.48903  -0.48178
 Alpha  occ. eigenvalues --   -0.47410  -0.47070  -0.46404  -0.45245  -0.45070
 Alpha  occ. eigenvalues --   -0.44474  -0.43470  -0.43276  -0.42266  -0.41762
 Alpha  occ. eigenvalues --   -0.41160  -0.40911  -0.40777  -0.39560  -0.38884
 Alpha  occ. eigenvalues --   -0.38615  -0.38492  -0.38006  -0.37375  -0.37262
 Alpha  occ. eigenvalues --   -0.36579  -0.36317  -0.35575  -0.33664  -0.27892
 Alpha  occ. eigenvalues --   -0.27568  -0.27242  -0.26519  -0.25975  -0.25748
 Alpha  occ. eigenvalues --   -0.24234  -0.23697
 Alpha virt. eigenvalues --    0.00436   0.01035   0.01614   0.03965   0.05443
 Alpha virt. eigenvalues --    0.07514   0.09005   0.10088   0.10811   0.12526
 Alpha virt. eigenvalues --    0.12921   0.13543   0.13585   0.14467   0.14517

 Mulliken atomic charges:
              1
     1  H    0.182123
     2  C   -0.533247
     3  H    0.181937
     4  H    0.148114
     5  C    0.596045
     6  O   -0.524155
     7  N   -0.604460
     8  H    0.346216
     9  C   -0.032327
    10  H    0.170482
    11  C   -0.441314
    12  H    0.156283
    13  H    0.140267
    14  H    0.189133
    15  C    0.613117
    16  O   -0.529293
    17  N   -0.622197
    18  H    0.340247
    19  C   -0.007739
    20  H    0.163593
    21  C   -0.456028
    22  H    0.169452
    23  H    0.149019
    24  H    0.179815
    25  C    0.576795
    26  O   -0.527994
    27  N   -0.606509
    28  H    0.357119
    29  C   -0.034576
    30  H    0.171475
    31  C   -0.445275
    32  H    0.162668
    33  H    0.140095
    34  H    0.187171
    35  C    0.606409
    36  O   -0.527339
    37  N   -0.592668
    38  H    0.332590
    39  C   -0.314452
    40  H    0.209317
    41  H    0.165597
    42  H    0.164494
 Sum of Mulliken atomic charges =   0.00000

 Dipole moment (field-independent basis, Debye):
    X=              6.2490    Y=             -0.3367    Z=             -0.1680  Tot=              6.2603
 Quadrupole moment (field-independent basis, Debye-Ang):
   XX=            -92.0752   YY=           -123.1320   ZZ=           -129.3636
   XY=             -9.9250   XZ=             16.4748   YZ=             -1.2634

 Normal termination of Gaussian 09 at Thu Dec 29 11:54:22 2016.
