 Gaussian 09, Revision A.02,
 Gaussian 09:  EM64L-G09RevA.02 11-Jun-2009

 ----------------------------------------------------------------------
 # b3lyp/6-31G* Opt=(ModRedundant, maxcycles=1000, calcfc) geom=nocrowd
 ----------------------------------------------------------------------

 ------------------
 Phi Psi fixed scan
 ------------------
 Symbolic Z-matrix:
 Charge =  0 Multiplicity = 1

 SCF Done:  E(RB3LYP) =  -990.483933463     A.U. after   14 cycles

  Exact polarizability:   0.000   0.000   0.000   0.000   0.000   0.000
 Approx polarizability: 242.609   0.398 230.138  25.090  -5.535 194.693

 SCF Done:  E(RB3LYP) =  -990.491115669     A.U. after   12 cycles
 SCF Done:  E(RB3LYP) =  -990.498849509     A.U. after   13 cycles
 SCF Done:  E(RB3LYP) =  -990.500525036     A.U. after   13 cycles
 SCF Done:  E(RB3LYP) =  -990.501723173     A.U. after   13 cycles
 SCF Done:  E(RB3LYP) =  -990.502138246     A.U. after   14 cycles
 SCF Done:  E(RB3LYP) =  -990.502372351     A.U. after   12 cycles
 SCF Done:  E(RB3LYP) =  -990.385930955     A.U. after   16 cycles
 SCF Done:  E(RB3LYP) =  -990.502391758     A.U. after   15 cycles
 SCF Done:  E(RB3LYP) =  -990.502472609     A.U. after   12 cycles
 SCF Done:  E(RB3LYP) =  -990.502571695     A.U. after   10 cycles
 SCF Done:  E(RB3LYP) =  -990.502579374     A.U. after   10 cycles
 SCF Done:  E(RB3LYP) =  -990.502585450     A.U. after    9 cycles
 SCF Done:  E(RB3LYP) =  -990.502590516     A.U. after   10 cycles
 SCF Done:  E(RB3LYP) =  -990.502593605     A.U. after    9 cycles
 SCF Done:  E(RB3LYP) =  -990.502597123     A.U. after   10 cycles
 SCF Done:  E(RB3LYP) =  -990.502599311     A.U. after    9 cycles
 SCF Done:  E(RB3LYP) =  -990.502600434     A.U. after    9 cycles
 SCF Done:  E(RB3LYP) =  -990.502600708     A.U. after    8 cycles
 SCF Done:  E(RB3LYP) =  -990.502600747     A.U. after    6 cycles
 Optimization completed.
    -- Stationary point found.

                         Standard orientation:
 ---------------------------------------------------------------------
 Center     Atomic      Atomic             Coordinates (Angstroms)
 Number     Number       Type             X           Y           Z
 ---------------------------------------------------------------------
      1          1           0       -7.121456   -1.612929   -0.334751
      2          6           0       -6.612878   -0.660503   -0.154997
      3          1           0       -7.199868   -0.113741    0.589403
      4          1           0       -6.592622   -0.086986   -1.086715
      5          6           0       -5.232321   -0.941233    0.419902
      6          8           0       -5.075848   -1.554518    1.472426
      7          7           0       -4.184123   -0.474312   -0.314774
      8          1           0       -4.313248    0.102654   -1.137887
      9          6           0       -2.813542   -0.601681    0.138081
     10          1           0       -2.792067   -0.415874    1.220010
     11          6           0       -2.245053   -2.010476   -0.123994
     12          1           0       -2.241598   -2.227500   -1.197145
     13          1           0       -1.220606   -2.105898    0.252635
     14          1           0       -2.874758   -2.742545    0.387449
     15          6           0       -1.998720    0.479583   -0.592864
     16          8           0       -2.441820    1.064353   -1.577983
     17          7           0       -0.738438    0.679286   -0.110410
     18          1           0       -0.528454    0.282340    0.796925
     19          6           0        0.117109    1.795231   -0.555870
     20          1           0        0.305987    1.649441   -1.626649
     21          6           0       -0.516869    3.169743   -0.333704
     22          1           0       -0.691798    3.344099    0.731562
     23          1           0        0.160352    3.950991   -0.690271
     24          1           0       -1.459592    3.234335   -0.879093
     25          6           0        1.455953    1.688004    0.208471
     26          8           0        1.874110    2.579467    0.939141
     27          7           0        2.132491    0.527749   -0.003214
     28          1           0        1.805425   -0.175716   -0.658664
     29          6           0        3.440446    0.272593    0.571766
     30          1           0        4.037368    1.189976    0.489728
     31          6           0        3.353973   -0.124797    2.058351
     32          1           0        2.775818   -1.047536    2.173969
     33          1           0        4.349714   -0.285085    2.486555
     34          1           0        2.864696    0.679047    2.614140
     35          6           0        4.077721   -0.847281   -0.269809
     36          8           0        3.394906   -1.562000   -0.999829
     37          7           0        5.419670   -0.990630   -0.115800
     38          1           0        5.908244   -0.336223    0.479020
     39          6           0        6.188727   -2.023044   -0.792066
     40          1           0        5.489248   -2.624714   -1.373167
     41          1           0        6.930193   -1.582448   -1.468192
     42          1           0        6.703761   -2.665582   -0.069121
 ---------------------------------------------------------------------

 The electronic state is 1-A.
 Alpha  occ. eigenvalues --  -19.13445 -19.12950 -19.12293 -19.09773 -14.38402
 Alpha  occ. eigenvalues --  -14.37453 -14.36580 -14.34874 -10.30622 -10.29820
 Alpha  occ. eigenvalues --  -10.29477 -10.27769 -10.25039 -10.24270 -10.23671
 Alpha  occ. eigenvalues --  -10.23393 -10.19736 -10.18390 -10.18311 -10.17234
 Alpha  occ. eigenvalues --   -1.05532  -1.04876  -1.04023  -1.01781  -0.94189
 Alpha  occ. eigenvalues --   -0.94002  -0.92684  -0.91388  -0.79691  -0.77921
 Alpha  occ. eigenvalues --   -0.75527  -0.72412  -0.71939  -0.68018  -0.65847
 Alpha  occ. eigenvalues --   -0.63491  -0.60628  -0.59284  -0.58697  -0.57419
 Alpha  occ. eigenvalues --   -0.56004  -0.52612  -0.49702  -0.48973  -0.48393
 Alpha  occ. eigenvalues --   -0.47610  -0.47097  -0.46608  -0.45291  -0.44982
 Alpha  occ. eigenvalues --   -0.44451  -0.43419  -0.43227  -0.42338  -0.41486
 Alpha  occ. eigenvalues --   -0.41197  -0.40914  -0.40687  -0.39629  -0.38960
 Alpha  occ. eigenvalues --   -0.38688  -0.38405  -0.38121  -0.37291  -0.37141
 Alpha  occ. eigenvalues --   -0.36634  -0.36532  -0.35472  -0.33743  -0.27818
 Alpha  occ. eigenvalues --   -0.27593  -0.27264  -0.26674  -0.25947  -0.25724
 Alpha  occ. eigenvalues --   -0.24318  -0.23772
 Alpha virt. eigenvalues --    0.00268   0.00871   0.01854   0.03870   0.05374
 Alpha virt. eigenvalues --    0.07060   0.09583   0.10405   0.10846   0.12129
 Alpha virt. eigenvalues --    0.12892   0.12997   0.13720   0.14458   0.14575

 Mulliken atomic charges:
              1
     1  H    0.182198
     2  C   -0.533206
     3  H    0.182178
     4  H    0.148349
     5  C    0.596305
     6  O   -0.524507
     7  N   -0.604464
     8  H    0.346608
     9  C   -0.032690
    10  H    0.169207
    11  C   -0.442824
    12  H    0.157882
    13  H    0.139564
    14  H    0.190129
    15  C    0.616834
    16  O   -0.528462
    17  N   -0.630171
    18  H    0.336410
    19  C   -0.016776
    20  H    0.176764
    21  C   -0.443591
    22  H    0.155703
    23  H    0.158828
    24  H    0.178178
    25  C    0.567427
    26  O   -0.518210
    27  N   -0.610529
    28  H    0.357704
    29  C   -0.029643
    30  H    0.170009
    31  C   -0.447322
    32  H    0.159079
    33  H    0.140394
    34  H    0.189874
    35  C    0.605634
    36  O   -0.527818
    37  N   -0.592569
    38  H    0.332623
    39  C   -0.314521
    40  H    0.209241
    41  H    0.165750
    42  H    0.164428
 Sum of Mulliken atomic charges =   0.00000

 Dipole moment (field-independent basis, Debye):
    X=              5.8170    Y=             -0.6313    Z=             -0.3269  Tot=              5.8602
 Quadrupole moment (field-independent basis, Debye-Ang):
   XX=            -89.5776   YY=           -130.5784   ZZ=           -125.8176
   XY=            -11.8294   XZ=             11.5175   YZ=              0.4533

 Normal termination of Gaussian 09 at Thu Dec 29 11:22:27 2016.
