 Gaussian 09, Revision A.02,
 Gaussian 09:  EM64L-G09RevA.02 11-Jun-2009

 -------------------
 #SP MP2/aug-cc-pVDZ
 -------------------

 -------------------------------
 Single Point calculation at MP2
 -------------------------------
 Symbolic Z-matrix:
 Charge =  0 Multiplicity = 1

                         Standard orientation:
 ---------------------------------------------------------------------
 Center     Atomic      Atomic             Coordinates (Angstroms)
 Number     Number       Type             X           Y           Z
 ---------------------------------------------------------------------
      1          1           0        3.769201   -1.566095   -0.611703
      2          6           0        3.011901   -1.533694    0.175597
      3          1           0        3.537601   -1.546795    1.136997
      4          1           0        2.383100   -2.427194    0.107297
      5          6           0        2.238002   -0.226593    0.050697
      6          8           0        2.803003    0.838806   -0.151903
      7          7           0        0.874402   -0.348492    0.187197
      8          1           0        0.535701   -1.220592    0.571997
      9          6           0       -0.042297    0.796609    0.291097
     10          1           0        0.163904    1.364209    1.205497
     11          6           0        0.049404    1.748009   -0.915203
     12          1           0       -0.144696    1.213909   -1.852203
     13          1           0       -0.698895    2.539510   -0.804203
     14          1           0        1.043605    2.191208   -0.966603
     15          6           0       -1.486297    0.287011    0.431897
     16          8           0       -2.266397    0.784211    1.232197
     17          7           0       -1.825398   -0.723889   -0.427103
     18          1           0       -1.149898   -0.989290   -1.131103
     19          6           0       -3.182899   -1.232088   -0.531003
     20          1           0       -3.727598   -0.894887    0.351697
     21          1           0       -3.691798   -0.850287   -1.425203
     22          1           0       -3.183000   -2.326688   -0.564003
 ---------------------------------------------------------------------

 SCF Done:  E(RHF) =  -492.918945714     A.U. after   14 cycles
 E2 =    -0.1601894132D+01 EUMP2 =    -0.49452083984626D+03

 The electronic state is 1-A.
 Alpha  occ. eigenvalues --  -20.53899 -20.53878 -15.60743 -15.60339 -11.37207
 Alpha  occ. eigenvalues --  -11.36699 -11.29589 -11.27530 -11.25476 -11.23196
 Alpha  occ. eigenvalues --   -1.39504  -1.39007  -1.25558  -1.23064  -1.05988
 Alpha  occ. eigenvalues --   -0.99711  -0.96271  -0.88617  -0.80021  -0.78521
 Alpha  occ. eigenvalues --   -0.73478  -0.68458  -0.67404  -0.63862  -0.63050
 Alpha  occ. eigenvalues --   -0.62390  -0.59819  -0.59774  -0.57169  -0.56685
 Alpha  occ. eigenvalues --   -0.55478  -0.54703  -0.53153  -0.51855  -0.50268
 Alpha  occ. eigenvalues --   -0.44204  -0.41849  -0.40850  -0.39887
 Alpha virt. eigenvalues --    0.02278   0.03711   0.04285   0.04622   0.05583
 Alpha virt. eigenvalues --    0.06015   0.06340   0.06828   0.07045   0.08107
 Alpha virt. eigenvalues --    0.08351   0.08924   0.10961   0.11869   0.12894

 Mulliken atomic charges:
              1
     1  H    0.025016
     2  C    0.391518
     3  H    0.058356
     4  H   -0.143438
     5  C    0.586314
     6  O   -0.839535
     7  N   -0.201510
     8  H   -0.078872
     9  C    0.076530
    10  H   -0.245080
    11  C    0.736427
    12  H   -0.084011
    13  H   -0.042095
    14  H   -0.027371
    15  C    0.869810
    16  O   -0.816712
    17  N   -0.610961
    18  H   -0.059087
    19  C    0.734362
    20  H   -0.128661
    21  H   -0.078142
    22  H   -0.122858
 Sum of Mulliken atomic charges =   0.00000

 Dipole moment (field-independent basis, Debye):
    X=             -0.3087    Y=             -4.7439    Z=             -2.0099  Tot=              5.1614
 Quadrupole moment (field-independent basis, Debye-Ang):
   XX=            -70.6248   YY=            -58.9605   ZZ=            -62.5704
   XY=             -2.8710   XZ=              8.8420   YZ=             -1.6580

 Normal termination of Gaussian 09 at Mon Feb 13 01:29:28 2017.
