 Gaussian 09, Revision A.02,
 Gaussian 09:  EM64L-G09RevA.02 11-Jun-2009

 -------------------
 #SP MP2/aug-cc-pVDZ
 -------------------

 -------------------------------
 Single Point calculation at MP2
 -------------------------------
 Symbolic Z-matrix:
 Charge =  0 Multiplicity = 1

                         Standard orientation:
 ---------------------------------------------------------------------
 Center     Atomic      Atomic             Coordinates (Angstroms)
 Number     Number       Type             X           Y           Z
 ---------------------------------------------------------------------
      1          1           0       -3.958804   -1.528487   -0.106192
      2          6           0       -3.011603   -1.430692    0.427508
      3          1           0       -2.474009   -2.383995    0.398208
      4          1           0       -3.238502   -1.194691    1.474608
      5          6           0       -2.218097   -0.287397   -0.188992
      6          8           0       -2.753091    0.671506   -0.721292
      7          7           0       -0.838097   -0.437805   -0.130692
      8          1           0       -0.549001   -1.059107    0.620008
      9          6           0        0.030410    0.747090   -0.254292
     10          1           0       -0.143588    1.163891   -1.251792
     11          6           0       -0.268184    1.837391    0.789408
     12          1           0       -0.137186    1.445091    1.805408
     13          1           0        0.426821    2.668387    0.652508
     14          1           0       -1.293082    2.194097    0.672008
     15          6           0        1.521107    0.374481   -0.165092
     16          8           0        2.378513    1.246676   -0.159292
     17          7           0        1.820499   -0.955421    0.010008
     18          1           0        1.149995   -1.616217   -0.362392
     19          6           0        3.215297   -1.379329    0.031808
     20          1           0        3.774601   -0.700833    0.677608
     21          1           0        3.273891   -2.394830    0.432108
     22          1           0        3.675097   -1.355432   -0.964692
 ---------------------------------------------------------------------

 SCF Done:  E(RHF) =  -492.918433923     A.U. after   14 cycles
 E2 =    -0.1602502723D+01 EUMP2 =    -0.49452093664580D+03

 The electronic state is 1-A.
 Alpha  occ. eigenvalues --  -20.54624 -20.53899 -15.60639 -15.60401 -11.37363
 Alpha  occ. eigenvalues --  -11.36704 -11.29477 -11.27418 -11.25735 -11.22709
 Alpha  occ. eigenvalues --   -1.39928  -1.39270  -1.25588  -1.22899  -1.05548
 Alpha  occ. eigenvalues --   -0.99748  -0.96313  -0.87927  -0.80117  -0.78316
 Alpha  occ. eigenvalues --   -0.73596  -0.67973  -0.65531  -0.64625  -0.63326
 Alpha  occ. eigenvalues --   -0.62866  -0.59744  -0.59393  -0.58024  -0.56672
 Alpha  occ. eigenvalues --   -0.55425  -0.54434  -0.52655  -0.51508  -0.49776
 Alpha  occ. eigenvalues --   -0.44156  -0.43444  -0.40784  -0.40430
 Alpha virt. eigenvalues --    0.02223   0.03742   0.04249   0.04798   0.05505
 Alpha virt. eigenvalues --    0.05920   0.06513   0.07012   0.07075   0.08362
 Alpha virt. eigenvalues --    0.08598   0.08796   0.10684   0.12129   0.13230

 Mulliken atomic charges:
              1
     1  H   -0.019335
     2  C    0.330611
     3  H   -0.063276
     4  H    0.050179
     5  C    0.547700
     6  O   -0.842408
     7  N   -0.317155
     8  H    0.017623
     9  C   -0.191536
    10  H   -0.082482
    11  C    0.617931
    12  H   -0.042200
    13  H   -0.042997
    14  H   -0.018624
    15  C    1.043522
    16  O   -0.855185
    17  N   -0.562524
    18  H   -0.067534
    19  C    0.798561
    20  H   -0.092105
    21  H   -0.174876
    22  H   -0.033890
 Sum of Mulliken atomic charges =   0.00000

 Dipole moment (field-independent basis, Debye):
    X=             -0.1239    Y=             -5.2448    Z=              1.8396  Tot=              5.5595
 Quadrupole moment (field-independent basis, Debye-Ang):
   XX=            -70.3096   YY=            -59.8263   ZZ=            -61.3075
   XY=             -1.5181   XZ=             -5.2061   YZ=              1.0467

 Normal termination of Gaussian 09 at Mon Feb 13 00:21:48 2017.
