 Gaussian 09, Revision A.02,
 Gaussian 09:  EM64L-G09RevA.02 11-Jun-2009

 -------------------
 #SP MP2/aug-cc-pVDZ
 -------------------

 -------------------------------
 Single Point calculation at MP2
 -------------------------------
 Symbolic Z-matrix:
 Charge =  0 Multiplicity = 1

                         Standard orientation:
 ---------------------------------------------------------------------
 Center     Atomic      Atomic             Coordinates (Angstroms)
 Number     Number       Type             X           Y           Z
 ---------------------------------------------------------------------
      1          1           0       -3.918703   -1.585076   -0.017995
      2          6           0       -2.991603   -1.413680    0.532405
      3          1           0       -2.435606   -2.353182    0.615905
      4          1           0       -3.257101   -1.079679    1.543005
      5          6           0       -2.200099   -0.319783   -0.170395
      6          8           0       -2.735395    0.569919   -0.812295
      7          7           0       -0.822599   -0.430288   -0.052895
      8          1           0       -0.527901   -0.994489    0.738705
      9          6           0        0.037105    0.745609   -0.281195
     10          1           0       -0.102194    1.038309   -1.328695
     11          6           0       -0.312190    1.945210    0.611705
     12          1           0       -0.224391    1.676810    1.671205
     13          1           0        0.385313    2.761208    0.412705
     14          1           0       -1.332289    2.275214    0.407905
     15          6           0        1.523204    0.381103   -0.094995
     16          8           0        2.371107    1.247200    0.069205
     17          7           0        1.818099   -0.958198   -0.079995
     18          1           0        1.131797   -1.578395   -0.490295
     19          6           0        3.201897   -1.408603   -0.036295
     20          1           0        3.757800   -0.745605    0.628005
     21          1           0        3.239394   -2.430403    0.351505
     22          1           0        3.679797   -1.381405   -1.024395
 ---------------------------------------------------------------------

 SCF Done:  E(RHF) =  -492.920030694     A.U. after   14 cycles
 E2 =    -0.1602332667D+01 EUMP2 =    -0.49452236336112D+03

 The electronic state is 1-A.
 Alpha  occ. eigenvalues --  -20.54512 -20.53811 -15.60615 -15.60265 -11.37316
 Alpha  occ. eigenvalues --  -11.36672 -11.29528 -11.27408 -11.25697 -11.22406
 Alpha  occ. eigenvalues --   -1.39843  -1.39180  -1.25586  -1.22845  -1.05500
 Alpha  occ. eigenvalues --   -0.99664  -0.96439  -0.87762  -0.80068  -0.78426
 Alpha  occ. eigenvalues --   -0.73551  -0.67892  -0.65554  -0.65010  -0.62989
 Alpha  occ. eigenvalues --   -0.62750  -0.60016  -0.59441  -0.57914  -0.56389
 Alpha  occ. eigenvalues --   -0.55455  -0.54124  -0.52634  -0.51562  -0.49809
 Alpha  occ. eigenvalues --   -0.44036  -0.43148  -0.40778  -0.40248
 Alpha virt. eigenvalues --    0.02272   0.03729   0.04270   0.04697   0.05522
 Alpha virt. eigenvalues --    0.05945   0.06532   0.06989   0.07008   0.08285
 Alpha virt. eigenvalues --    0.08549   0.08909   0.10759   0.12003   0.13263

 Mulliken atomic charges:
              1
     1  H   -0.012550
     2  C    0.323241
     3  H   -0.066393
     4  H    0.050109
     5  C    0.520084
     6  O   -0.836212
     7  N   -0.320686
     8  H    0.015840
     9  C   -0.190554
    10  H   -0.089308
    11  C    0.638336
    12  H   -0.051544
    13  H   -0.042866
    14  H   -0.013363
    15  C    1.043551
    16  O   -0.836258
    17  N   -0.541114
    18  H   -0.073314
    19  C    0.790432
    20  H   -0.098647
    21  H   -0.164130
    22  H   -0.044655
 Sum of Mulliken atomic charges =   0.00000

 Dipole moment (field-independent basis, Debye):
    X=             -0.0930    Y=             -5.0523    Z=              1.6168  Tot=              5.3055
 Quadrupole moment (field-independent basis, Debye-Ang):
   XX=            -70.4512   YY=            -59.8031   ZZ=            -61.1155
   XY=             -2.0894   XZ=             -7.2008   YZ=              0.2581

 Normal termination of Gaussian 09 at Mon Feb 13 01:14:30 2017.
