 Gaussian 09, Revision A.02,
 Gaussian 09:  EM64L-G09RevA.02 11-Jun-2009

 -------------------
 #SP MP2/aug-cc-pVDZ
 -------------------

 -------------------------------
 Single Point calculation at MP2
 -------------------------------
 Symbolic Z-matrix:
 Charge =  0 Multiplicity = 1

                         Standard orientation:
 ---------------------------------------------------------------------
 Center     Atomic      Atomic             Coordinates (Angstroms)
 Number     Number       Type             X           Y           Z
 ---------------------------------------------------------------------
      1          1           0        3.747908   -1.160110   -1.289492
      2          6           0        3.066907   -1.428008   -0.477392
      3          1           0        3.680606   -1.732010    0.377608
      4          1           0        2.451805   -2.277507   -0.790292
      5          6           0        2.261510   -0.192506   -0.092392
      6          8           0        2.797712    0.894492    0.080908
      7          7           0        0.911609   -0.404803    0.036608
      8          1           0        0.606807   -1.367203    0.102508
      9          6           0       -0.034888    0.593999    0.558908
     10          1           0        0.166112    0.771398    1.622608
     11          6           0        0.044215    1.929999   -0.191992
     12          1           0       -0.023986    1.788799   -1.277892
     13          1           0       -0.768184    2.589600    0.132108
     14          1           0        1.001616    2.410196    0.007208
     15          6           0       -1.422790   -0.082598    0.519108
     16          8           0       -1.797091   -0.782597    1.454608
     17          7           0       -2.139690    0.079003   -0.627692
     18          1           0       -1.769088    0.679003   -1.349392
     19          6           0       -3.443591   -0.528694   -0.828692
     20          1           0       -3.675792   -1.105893    0.067108
     21          1           0       -4.217389    0.233808   -0.976592
     22          1           0       -3.436992   -1.197794   -1.697292
 ---------------------------------------------------------------------

 SCF Done:  E(RHF) =  -492.917040406     A.U. after   14 cycles
 E2 =    -0.1602090497D+01 EUMP2 =    -0.49451913090301D+03

 The electronic state is 1-A.
 Alpha  occ. eigenvalues --  -20.53901 -20.53386 -15.60422 -15.60322 -11.36761
 Alpha  occ. eigenvalues --  -11.36753 -11.29726 -11.27488 -11.24959 -11.23551
 Alpha  occ. eigenvalues --   -1.39386  -1.38622  -1.24768  -1.23525  -1.05886
 Alpha  occ. eigenvalues --   -0.99432  -0.95999  -0.89344  -0.79876  -0.78360
 Alpha  occ. eigenvalues --   -0.73058  -0.68334  -0.66990  -0.64944  -0.62563
 Alpha  occ. eigenvalues --   -0.62131  -0.59470  -0.58889  -0.56830  -0.56225
 Alpha  occ. eigenvalues --   -0.55805  -0.54515  -0.53835  -0.52270  -0.50219
 Alpha  occ. eigenvalues --   -0.43776  -0.41855  -0.40736  -0.39375
 Alpha virt. eigenvalues --    0.02676   0.03629   0.04416   0.04657   0.05599
 Alpha virt. eigenvalues --    0.06035   0.06175   0.06844   0.07155   0.07952
 Alpha virt. eigenvalues --    0.08820   0.09800   0.11233   0.11789   0.12875

 Mulliken atomic charges:
              1
     1  H    0.026253
     2  C    0.403149
     3  H    0.056276
     4  H   -0.143562
     5  C    0.575239
     6  O   -0.859645
     7  N   -0.411674
     8  H   -0.086102
     9  C    0.378143
    10  H   -0.148514
    11  C    0.649937
    12  H    0.010561
    13  H   -0.072556
    14  H   -0.070197
    15  C    0.889266
    16  O   -0.895293
    17  N   -0.600962
    18  H   -0.090929
    19  C    0.738097
    20  H   -0.152723
    21  H   -0.096827
    22  H   -0.097938
 Sum of Mulliken atomic charges =   0.00000

 Dipole moment (field-independent basis, Debye):
    X=             -1.6274    Y=             -1.1009    Z=             -3.4512  Tot=              3.9712
 Quadrupole moment (field-independent basis, Debye-Ang):
   XX=            -64.7907   YY=            -59.9183   ZZ=            -63.6999
   XY=            -11.6972   XZ=              6.3382   YZ=              2.5622

 Normal termination of Gaussian 09 at Mon Feb 13 02:32:00 2017.
