 Gaussian 09, Revision A.02,
 Gaussian 09:  EM64L-G09RevA.02 11-Jun-2009

 -------------------
 #SP MP2/aug-cc-pVDZ
 -------------------

 -------------------------------
 Single Point calculation at MP2
 -------------------------------
 Symbolic Z-matrix:
 Charge =  0 Multiplicity = 1

                         Standard orientation:
 ---------------------------------------------------------------------
 Center     Atomic      Atomic             Coordinates (Angstroms)
 Number     Number       Type             X           Y           Z
 ---------------------------------------------------------------------
      1          1           0       -4.000197   -1.314907   -0.807399
      2          6           0       -3.287797   -1.237508    0.018201
      3          1           0       -2.813398   -2.210508    0.178801
      4          1           0       -3.854997   -0.969607    0.916601
      5          6           0       -2.298696   -0.122809   -0.292799
      6          8           0       -2.659995    0.969392   -0.717599
      7          7           0       -0.981796   -0.437610   -0.091099
      8          1           0       -0.748397   -1.261010    0.453201
      9          6           0        0.065404    0.578690   -0.094499
     10          1           0        0.068505    1.059390   -1.079699
     11          6           0       -0.128895    1.655290    0.990501
     12          1           0       -0.105895    1.192790    1.982201
     13          1           0        0.671506    2.402689    0.937701
     14          1           0       -1.087695    2.154891    0.840201
     15          6           0        1.380804   -0.168811    0.162901
     16          8           0        1.449403   -1.030411    1.036301
     17          7           0        2.424004    0.182388   -0.634999
     18          1           0        2.271005    0.887888   -1.341299
     19          6           0        3.755304   -0.381913   -0.487999
     20          1           0        3.707403   -1.125813    0.308101
     21          1           0        4.078303   -0.867613   -1.415699
     22          1           0        4.486404    0.388886   -0.217499
 ---------------------------------------------------------------------

 SCF Done:  E(RHF) =  -492.926683654     A.U. after   14 cycles
 E2 =    -0.1601064966D+01 EUMP2 =    -0.49452774861910D+03

 The electronic state is 1-A.
 Alpha  occ. eigenvalues --  -20.54132 -20.52799 -15.60940 -15.59208 -11.37049
 Alpha  occ. eigenvalues --  -11.36036 -11.29464 -11.27708 -11.24404 -11.23085
 Alpha  occ. eigenvalues --   -1.39702  -1.38046  -1.24561  -1.23527  -1.05458
 Alpha  occ. eigenvalues --   -0.99054  -0.96493  -0.88304  -0.80400  -0.78276
 Alpha  occ. eigenvalues --   -0.73036  -0.67468  -0.66145  -0.63963  -0.63443
 Alpha  occ. eigenvalues --   -0.61902  -0.60411  -0.58449  -0.56834  -0.56475
 Alpha  occ. eigenvalues --   -0.55637  -0.54484  -0.52274  -0.52115  -0.49618
 Alpha  occ. eigenvalues --   -0.43640  -0.42274  -0.40454  -0.39220
 Alpha virt. eigenvalues --    0.02813   0.03914   0.04406   0.04480   0.05679
 Alpha virt. eigenvalues --    0.06048   0.06452   0.06933   0.07626   0.08122
 Alpha virt. eigenvalues --    0.09056   0.09230   0.11132   0.12086   0.12936

 Mulliken atomic charges:
              1
     1  H    0.024933
     2  C    0.340147
     3  H   -0.139693
     4  H    0.053794
     5  C    0.570190
     6  O   -0.864609
     7  N   -0.201426
     8  H   -0.035230
     9  C   -0.243332
    10  H   -0.289496
    11  C    0.747254
    12  H    0.001548
    13  H   -0.067028
    14  H   -0.025693
    15  C    1.221116
    16  O   -0.884589
    17  N   -0.503660
    18  H   -0.104934
    19  C    0.729417
    20  H   -0.145253
    21  H   -0.090056
    22  H   -0.093401
 Sum of Mulliken atomic charges =   0.00000

 Dipole moment (field-independent basis, Debye):
    X=              2.6196    Y=             -0.3857    Z=             -0.9953  Tot=              2.8288
 Quadrupole moment (field-independent basis, Debye-Ang):
   XX=            -57.3801   YY=            -62.5123   ZZ=            -62.9610
   XY=             12.4416   XZ=            -10.2404   YZ=              2.5982

 Normal termination of Gaussian 09 at Mon Feb 13 08:17:46 2017.
