 Gaussian 09, Revision A.02,
 Gaussian 09:  EM64L-G09RevA.02 11-Jun-2009

 -------------------
 #SP MP2/aug-cc-pVDZ
 -------------------

 -------------------------------
 Single Point calculation at MP2
 -------------------------------
 Symbolic Z-matrix:
 Charge =  0 Multiplicity = 1

                         Standard orientation:
 ---------------------------------------------------------------------
 Center     Atomic      Atomic             Coordinates (Angstroms)
 Number     Number       Type             X           Y           Z
 ---------------------------------------------------------------------
      1          1           0       -3.787284   -0.908709    1.402795
      2          6           0       -3.168084   -1.264508    0.574295
      3          1           0       -3.844684   -1.563909   -0.233005
      4          1           0       -2.598283   -2.138408    0.904195
      5          6           0       -2.300485   -0.110708    0.085395
      6          8           0       -2.787485    0.974792   -0.210105
      7          7           0       -0.961584   -0.391807    0.018895
      8          1           0       -0.681584   -1.365207    0.031595
      9          6           0        0.048515    0.502894   -0.556605
     10          1           0       -0.114385    0.595294   -1.640805
     11          6           0        0.011814    1.903394    0.065895
     12          1           0        0.155314    1.857194    1.152095
     13          1           0        0.787914    2.538394   -0.378305
     14          1           0       -0.960086    2.358593   -0.121205
     15          6           0        1.378916   -0.267006   -0.389805
     16          8           0        1.479816   -1.398005   -0.861505
     17          7           0        2.353515    0.319895    0.351495
     18          1           0        2.199315    1.250995    0.706695
     19          6           0        3.640516   -0.311704    0.590095
     20          1           0        3.600916   -1.310704    0.154795
     21          1           0        4.454515    0.253596    0.120995
     22          1           0        3.839016   -0.392204    1.664695
 ---------------------------------------------------------------------

 SCF Done:  E(RHF) =  -492.919697413     A.U. after   14 cycles
 E2 =    -0.1602255908D+01 EUMP2 =    -0.49452195332106D+03

 The electronic state is 1-A.
 Alpha  occ. eigenvalues --  -20.53848 -20.52933 -15.60793 -15.59623 -11.37035
 Alpha  occ. eigenvalues --  -11.36304 -11.29851 -11.27626 -11.24477 -11.23523
 Alpha  occ. eigenvalues --   -1.39525  -1.38169  -1.24537  -1.23666  -1.05791
 Alpha  occ. eigenvalues --   -0.99148  -0.96020  -0.89497  -0.80321  -0.77734
 Alpha  occ. eigenvalues --   -0.73002  -0.68104  -0.66689  -0.65432  -0.62628
 Alpha  occ. eigenvalues --   -0.61837  -0.59209  -0.58801  -0.56543  -0.55984
 Alpha  occ. eigenvalues --   -0.55729  -0.54411  -0.53850  -0.52645  -0.49882
 Alpha  occ. eigenvalues --   -0.43579  -0.41894  -0.40257  -0.39512
 Alpha virt. eigenvalues --    0.02815   0.03784   0.04348   0.04592   0.05720
 Alpha virt. eigenvalues --    0.06084   0.06216   0.06897   0.07086   0.08011
 Alpha virt. eigenvalues --    0.09412   0.09554   0.11200   0.11656   0.13194

 Mulliken atomic charges:
              1
     1  H    0.034486
     2  C    0.406658
     3  H    0.051995
     4  H   -0.160971
     5  C    0.508554
     6  O   -0.865502
     7  N   -0.411131
     8  H   -0.067619
     9  C    0.126045
    10  H   -0.045740
    11  C    0.752758
    12  H    0.060140
    13  H   -0.034606
    14  H   -0.159789
    15  C    1.047870
    16  O   -0.923273
    17  N   -0.600114
    18  H   -0.118830
    19  C    0.737986
    20  H   -0.147278
    21  H   -0.086870
    22  H   -0.104769
 Sum of Mulliken atomic charges =   0.00000

 Dipole moment (field-independent basis, Debye):
    X=              2.6304    Y=              0.3032    Z=              2.2505  Tot=              3.4750
 Quadrupole moment (field-independent basis, Debye-Ang):
   XX=            -60.4035   YY=            -63.2407   ZZ=            -61.6937
   XY=             14.3026   XZ=              1.8444   YZ=             -2.4251

 Normal termination of Gaussian 09 at Mon Feb 13 02:32:07 2017.
