 Gaussian 09, Revision A.02,
 Gaussian 09:  EM64L-G09RevA.02 11-Jun-2009

 -------------------
 #SP MP2/aug-cc-pVDZ
 -------------------

 -------------------------------
 Single Point calculation at MP2
 -------------------------------
 Symbolic Z-matrix:
 Charge =  0 Multiplicity = 1

                         Standard orientation:
 ---------------------------------------------------------------------
 Center     Atomic      Atomic             Coordinates (Angstroms)
 Number     Number       Type             X           Y           Z
 ---------------------------------------------------------------------
      1          1           0       -4.020294   -1.287222   -0.655710
      2          6           0       -3.341095   -1.157220    0.192190
      3          1           0       -2.870692   -2.117518    0.424690
      4          1           0       -3.946296   -0.841622    1.048190
      5          6           0       -2.348299   -0.051317   -0.141210
      6          8           0       -2.720102    1.071182   -0.474510
      7          7           0       -1.036797   -0.406312   -0.054510
      8          1           0       -0.754094   -1.341011    0.219590
      9          6           0        0.069500    0.508391   -0.265010
     10          1           0        0.043798    0.883591   -1.298710
     11          6           0        0.024696    1.713491    0.697190
     12          1           0        0.128797    1.378391    1.734490
     13          1           0        0.825593    2.430194    0.483190
     14          1           0       -0.932806    2.222588    0.578490
     15          6           0        1.354502   -0.324505   -0.066810
     16          8           0        1.308906   -1.515905    0.232890
     17          7           0        2.518900    0.358299   -0.223010
     18          1           0        2.475397    1.329299   -0.496410
     19          6           0        3.824802   -0.265196   -0.086510
     20          1           0        3.666406   -1.286997    0.259290
     21          1           0        4.356502   -0.290895   -1.045210
     22          1           0        4.437900    0.273206    0.644690
 ---------------------------------------------------------------------

 SCF Done:  E(RHF) =  -492.926104149     A.U. after   14 cycles
 E2 =    -0.1601103893D+01 EUMP2 =    -0.49452720804222D+03

 The electronic state is 1-A.
 Alpha  occ. eigenvalues --  -20.54620 -20.52188 -15.60790 -15.58729 -11.37412
 Alpha  occ. eigenvalues --  -11.35698 -11.29816 -11.27793 -11.24053 -11.23576
 Alpha  occ. eigenvalues --   -1.40123  -1.37524  -1.24670  -1.23392  -1.05609
 Alpha  occ. eigenvalues --   -0.98899  -0.96143  -0.89011  -0.80824  -0.77763
 Alpha  occ. eigenvalues --   -0.73087  -0.67736  -0.66116  -0.65084  -0.63135
 Alpha  occ. eigenvalues --   -0.61706  -0.59860  -0.58549  -0.56532  -0.56301
 Alpha  occ. eigenvalues --   -0.55620  -0.54726  -0.53066  -0.52282  -0.49376
 Alpha  occ. eigenvalues --   -0.43773  -0.41686  -0.40940  -0.38613
 Alpha virt. eigenvalues --    0.02750   0.04000   0.04232   0.04440   0.05812
 Alpha virt. eigenvalues --    0.06033   0.06474   0.06802   0.07451   0.07985
 Alpha virt. eigenvalues --    0.09311   0.09636   0.11060   0.12400   0.13116

 Mulliken atomic charges:
              1
     1  H    0.044380
     2  C    0.354511
     3  H   -0.175435
     4  H    0.052956
     5  C    0.477290
     6  O   -0.883428
     7  N   -0.232591
     8  H   -0.058121
     9  C    0.012329
    10  H   -0.125320
    11  C    0.688340
    12  H   -0.024637
    13  H   -0.116673
    14  H   -0.041247
    15  C    1.189094
    16  O   -0.881585
    17  N   -0.526845
    18  H   -0.116441
    19  C    0.696883
    20  H   -0.140605
    21  H   -0.084155
    22  H   -0.108702
 Sum of Mulliken atomic charges =   0.00000

 Dipole moment (field-independent basis, Debye):
    X=              3.2913    Y=              0.3541    Z=              0.2303  Tot=              3.3183
 Quadrupole moment (field-independent basis, Debye-Ang):
   XX=            -57.0778   YY=            -64.7761   ZZ=            -61.3224
   XY=             14.7027   XZ=             -5.1141   YZ=              1.0558

 Normal termination of Gaussian 09 at Mon Feb 13 00:48:12 2017.
