 Gaussian 09, Revision A.02,
 Gaussian 09:  EM64L-G09RevA.02 11-Jun-2009

 -------------------
 #SP MP2/aug-cc-pVDZ
 -------------------

 -------------------------------
 Single Point calculation at MP2
 -------------------------------
 Symbolic Z-matrix:
 Charge =  0 Multiplicity = 1

                         Standard orientation:
 ---------------------------------------------------------------------
 Center     Atomic      Atomic             Coordinates (Angstroms)
 Number     Number       Type             X           Y           Z
 ---------------------------------------------------------------------
      1          1           0        3.771799   -0.990185   -1.388296
      2          6           0        3.110900   -1.329888   -0.586096
      3          1           0        3.746201   -1.670386    0.238704
      4          1           0        2.514803   -2.174089   -0.945896
      5          6           0        2.277497   -0.145990   -0.109696
      6          8           0        2.790993    0.934911    0.151704
      7          7           0        0.932297   -0.397194   -0.010496
      8          1           0        0.647401   -1.368695    0.007904
      9          6           0       -0.040106    0.527702    0.589604
     10          1           0        0.148694    0.614403    1.668304
     11          6           0        0.016190    1.925703   -0.037596
     12          1           0       -0.079410    1.877102   -1.129496
     13          1           0       -0.785712    2.553200    0.368304
     14          1           0        0.977189    2.389406    0.181604
     15          6           0       -1.397703   -0.199502    0.463504
     16          8           0       -1.613400   -1.196403    1.148404
     17          7           0       -2.254905    0.248995   -0.491796
     18          1           0       -2.014207    1.081896   -1.007296
     19          6           0       -3.545503   -0.372009   -0.736796
     20          1           0       -3.614400   -1.248109   -0.091096
     21          1           0       -4.368205    0.313789   -0.501796
     22          1           0       -3.634302   -0.685109   -1.783296
 ---------------------------------------------------------------------

 SCF Done:  E(RHF) =  -492.918192250     A.U. after   14 cycles
 E2 =    -0.1602240551D+01 EUMP2 =    -0.49452043280082D+03

 The electronic state is 1-A.
 Alpha  occ. eigenvalues --  -20.53823 -20.53203 -15.60617 -15.59977 -11.36873
 Alpha  occ. eigenvalues --  -11.36540 -11.29779 -11.27541 -11.24710 -11.23539
 Alpha  occ. eigenvalues --   -1.39415  -1.38423  -1.24562  -1.23666  -1.05830
 Alpha  occ. eigenvalues --   -0.99284  -0.95988  -0.89450  -0.80056  -0.77995
 Alpha  occ. eigenvalues --   -0.72983  -0.68271  -0.66837  -0.65202  -0.62563
 Alpha  occ. eigenvalues --   -0.61974  -0.59322  -0.58809  -0.56630  -0.55964
 Alpha  occ. eigenvalues --   -0.55895  -0.54298  -0.54010  -0.52469  -0.50076
 Alpha  occ. eigenvalues --   -0.43618  -0.41967  -0.40417  -0.39498
 Alpha virt. eigenvalues --    0.02796   0.03698   0.04378   0.04639   0.05663
 Alpha virt. eigenvalues --    0.06033   0.06188   0.06932   0.07059   0.07999
 Alpha virt. eigenvalues --    0.09197   0.09619   0.11203   0.11595   0.13060

 Mulliken atomic charges:
              1
     1  H    0.027037
     2  C    0.407795
     3  H    0.055304
     4  H   -0.147816
     5  C    0.533748
     6  O   -0.860385
     7  N   -0.444470
     8  H   -0.075720
     9  C    0.280422
    10  H   -0.089586
    11  C    0.701501
    12  H    0.056602
    13  H   -0.061443
    14  H   -0.125417
    15  C    0.976549
    16  O   -0.921048
    17  N   -0.600764
    18  H   -0.107071
    19  C    0.739961
    20  H   -0.149022
    21  H   -0.089719
    22  H   -0.106458
 Sum of Mulliken atomic charges =   0.00000

 Dipole moment (field-independent basis, Debye):
    X=             -2.1669    Y=             -0.1154    Z=             -2.8448  Tot=              3.5780
 Quadrupole moment (field-independent basis, Debye-Ang):
   XX=            -62.2763   YY=            -61.8603   ZZ=            -62.4635
   XY=            -13.5550   XZ=              3.8291   YZ=              2.9258

 Normal termination of Gaussian 09 at Mon Feb 13 01:27:03 2017.
