 Gaussian 09, Revision A.02,
 Gaussian 09:  EM64L-G09RevA.02 11-Jun-2009

 -------------------------------------------------------------------
 # HF/6-31G* Opt=(ModRedundant, maxcycles=1000, calcfc) geom=nocrowd
 -------------------------------------------------------------------

 ------------------
 Phi Psi fixed scan
 ------------------
 Symbolic Z-matrix:
 Charge =  0 Multiplicity = 1

 SCF Done:  E(RHF) =  -984.531543520     A.U. after   15 cycles

  Exact polarizability:   0.000   0.000   0.000   0.000   0.000   0.000
 Approx polarizability: 131.781  -6.730 130.043  -0.133   8.741 127.265

 SCF Done:  E(RHF) =  -984.541485131     A.U. after   13 cycles
 SCF Done:  E(RHF) =  -984.552448070     A.U. after   13 cycles
 SCF Done:  E(RHF) =  -984.555232106     A.U. after   13 cycles
 SCF Done:  E(RHF) =  -984.557548999     A.U. after   14 cycles
 SCF Done:  E(RHF) =  -984.558283779     A.U. after   13 cycles
 SCF Done:  E(RHF) =  -984.379043331     A.U. after   17 cycles
 SCF Done:  E(RHF) =  -984.486736297     A.U. after   15 cycles
 SCF Done:  E(RHF) =  -984.513312843     A.U. after   12 cycles
 SCF Done:  E(RHF) =  -984.558285695     A.U. after   15 cycles
 SCF Done:  E(RHF) =  -984.558975542     A.U. after   10 cycles
 SCF Done:  E(RHF) =  -984.558976089     A.U. after    9 cycles
 SCF Done:  E(RHF) =  -984.558976312     A.U. after    8 cycles
 SCF Done:  E(RHF) =  -984.558976434     A.U. after    7 cycles
 SCF Done:  E(RHF) =  -984.558976571     A.U. after    7 cycles
 SCF Done:  E(RHF) =  -984.558976886     A.U. after    8 cycles
 SCF Done:  E(RHF) =  -984.558977399     A.U. after   10 cycles
 SCF Done:  E(RHF) =  -984.558977603     A.U. after    8 cycles
 SCF Done:  E(RHF) =  -984.558977628     A.U. after    7 cycles
 SCF Done:  E(RHF) =  -984.558977635     A.U. after    7 cycles
 Optimization completed.
    -- Stationary point found.

                         Standard orientation:
 ---------------------------------------------------------------------
 Center     Atomic      Atomic             Coordinates (Angstroms)
 Number     Number       Type             X           Y           Z
 ---------------------------------------------------------------------
      1          1           0        7.203538    0.974525    1.078696
      2          6           0        6.693847    0.586233    0.207083
      3          1           0        6.767760   -0.494365    0.193895
      4          1           0        7.191755    0.980438   -0.672315
      5          6           0        5.265909    1.087160    0.217363
      6          8           0        4.998114    2.226294    0.500050
      7          7           0        4.325256    0.185624   -0.129026
      8          1           0        4.564723   -0.756030   -0.344258
      9          6           0        2.923037    0.517939   -0.178590
     10          1           0        2.701655    1.173414    0.654347
     11          6           0        2.539435    1.224185   -1.486477
     12          1           0        2.742961    0.580921   -2.335247
     13          1           0        1.486657    1.486787   -1.500849
     14          1           0        3.121523    2.131184   -1.582441
     15          6           0        2.138349   -0.782466   -0.035836
     16          8           0        2.624056   -1.843509   -0.323914
     17          7           0        0.871378   -0.639217    0.410984
     18          1           0        0.557556    0.270878    0.664852
     19          6           0       -0.081109   -1.735781    0.470355
     20          1           0        0.390802   -2.569609   -0.022098
     21          6           0       -0.413175   -2.114560    1.912778
     22          1           0       -0.770527   -1.267228    2.490243
     23          1           0       -1.166863   -2.894376    1.947728
     24          1           0        0.482341   -2.483485    2.397848
     25          6           0       -1.279750   -1.372358   -0.414210
     26          8           0       -1.277598   -1.630286   -1.587952
     27          7           0       -2.290806   -0.709782    0.181800
     28          1           0       -2.303893   -0.540114    1.162110
     29          6           0       -3.453967   -0.262527   -0.547475
     30          1           0       -3.124989    0.124479   -1.503640
     31          6           0       -4.461181   -1.395451   -0.786747
     32          1           0       -4.815407   -1.790397    0.159262
     33          1           0       -5.317006   -1.047151   -1.355528
     34          1           0       -3.980119   -2.189227   -1.342390
     35          6           0       -4.095068    0.854182    0.272035
     36          8           0       -3.906135    0.947389    1.458040
     37          7           0       -4.905308    1.684735   -0.405023
     38          1           0       -4.953490    1.612762   -1.394698
     39          6           0       -5.599406    2.775138    0.250134
     40          1           0       -6.118686    2.411895    1.125370
     41          1           0       -4.912992    3.555541    0.556793
     42          1           0       -6.319965    3.190348   -0.441082
 ---------------------------------------------------------------------

 The electronic state is 1-A.
 Alpha  occ. eigenvalues --  -20.54354 -20.53724 -20.52906 -20.51369 -15.60451
 Alpha  occ. eigenvalues --  -15.60087 -15.59197 -15.57805 -11.36295 -11.35873
 Alpha  occ. eigenvalues --  -11.35250 -11.34248 -11.29106 -11.28435 -11.28063
 Alpha  occ. eigenvalues --  -11.27182 -11.23462 -11.23197 -11.22699 -11.22178
 Alpha  occ. eigenvalues --   -1.41362  -1.40805  -1.39718  -1.38260  -1.25621
 Alpha  occ. eigenvalues --   -1.25218  -1.24423  -1.23422  -1.07799  -1.05317
 Alpha  occ. eigenvalues --   -1.02877  -0.98587  -0.97206  -0.92167  -0.90140
 Alpha  occ. eigenvalues --   -0.87411  -0.81556  -0.81251  -0.79720  -0.78567
 Alpha  occ. eigenvalues --   -0.75990  -0.71672  -0.68781  -0.68042  -0.67041
 Alpha  occ. eigenvalues --   -0.65481  -0.65172  -0.64383  -0.64157  -0.63235
 Alpha  occ. eigenvalues --   -0.61864  -0.61233  -0.60736  -0.59878  -0.59055
 Alpha  occ. eigenvalues --   -0.58275  -0.57064  -0.56942  -0.56533  -0.56029
 Alpha  occ. eigenvalues --   -0.55880  -0.54463  -0.54157  -0.53826  -0.53212
 Alpha  occ. eigenvalues --   -0.52492  -0.52011  -0.50978  -0.49428  -0.44236
 Alpha  occ. eigenvalues --   -0.43665  -0.42885  -0.41176  -0.41127  -0.39412
 Alpha  occ. eigenvalues --   -0.39294  -0.38074
 Alpha virt. eigenvalues --    0.17435   0.18634   0.19587   0.20370   0.21326
 Alpha virt. eigenvalues --    0.22229   0.23801   0.24238   0.25472   0.27268
 Alpha virt. eigenvalues --    0.27806   0.28686   0.28923   0.29414   0.29860

 Mulliken atomic charges:
              1
     1  H    0.207447
     2  C   -0.575790
     3  H    0.173771
     4  H    0.202573
     5  C    0.756358
     6  O   -0.623586
     7  N   -0.822730
     8  H    0.418815
     9  C   -0.036231
    10  H    0.215316
    11  C   -0.485508
    12  H    0.183596
    13  H    0.159990
    14  H    0.209427
    15  C    0.795560
    16  O   -0.625716
    17  N   -0.820076
    18  H    0.392303
    19  C   -0.051765
    20  H    0.266468
    21  C   -0.497373
    22  H    0.160093
    23  H    0.180398
    24  H    0.198308
    25  C    0.772133
    26  O   -0.616297
    27  N   -0.841882
    28  H    0.428297
    29  C   -0.033070
    30  H    0.214702
    31  C   -0.487059
    32  H    0.178854
    33  H    0.161646
    34  H    0.213779
    35  C    0.777544
    36  O   -0.632699
    37  N   -0.799550
    38  H    0.391647
    39  C   -0.273113
    40  H    0.203065
    41  H    0.186359
    42  H    0.173994
 Sum of Mulliken atomic charges =   0.00000

 Dipole moment (field-independent basis, Debye):
    X=             -4.4582    Y=              0.7673    Z=             -0.3413  Tot=              4.5366
 Quadrupole moment (field-independent basis, Debye-Ang):
   XX=            -99.3098   YY=           -129.0682   ZZ=           -125.1895
   XY=            -17.3132   XZ=              7.2697   YZ=            -13.6780

 Normal termination of Gaussian 09 at Tue Dec 27 03:00:50 2016.
