 Gaussian 09, Revision A.02,
 Gaussian 09:  EM64L-G09RevA.02 11-Jun-2009

 -------------------------------------------------------------------
 # HF/6-31G* Opt=(ModRedundant, maxcycles=1000, calcfc) geom=nocrowd
 -------------------------------------------------------------------

 ------------------
 Phi Psi fixed scan
 ------------------
 Symbolic Z-matrix:
 Charge =  0 Multiplicity = 1

 SCF Done:  E(RHF) =  -984.546210152     A.U. after   15 cycles

  Exact polarizability:   0.000   0.000   0.000   0.000   0.000   0.000
 Approx polarizability: 131.130  -1.702 112.931  -3.269   4.504 144.046

 SCF Done:  E(RHF) =  -984.554026648     A.U. after   13 cycles
 SCF Done:  E(RHF) =  -984.562226399     A.U. after   13 cycles
 SCF Done:  E(RHF) =  -984.564245120     A.U. after   16 cycles
 SCF Done:  E(RHF) =  -984.566776187     A.U. after   16 cycles
 SCF Done:  E(RHF) =  -984.566877724     A.U. after   13 cycles
 SCF Done:  E(RHF) =  -984.567424469     A.U. after   14 cycles
 SCF Done:  E(RHF) =  -984.449274671     A.U. after   16 cycles
 SCF Done:  E(RHF) =  -984.567631579     A.U. after   16 cycles
 SCF Done:  E(RHF) =  -984.567682330     A.U. after   12 cycles
 SCF Done:  E(RHF) =  -984.567965481     A.U. after   10 cycles
 SCF Done:  E(RHF) =  -984.567965754     A.U. after    9 cycles
 SCF Done:  E(RHF) =  -984.567965858     A.U. after    8 cycles
 SCF Done:  E(RHF) =  -984.567965959     A.U. after    8 cycles
 SCF Done:  E(RHF) =  -984.567966192     A.U. after    9 cycles
 SCF Done:  E(RHF) =  -984.567966571     A.U. after    9 cycles
 SCF Done:  E(RHF) =  -984.567966842     A.U. after    8 cycles
 SCF Done:  E(RHF) =  -984.567967028     A.U. after    9 cycles
 SCF Done:  E(RHF) =  -984.567967091     A.U. after    8 cycles
 SCF Done:  E(RHF) =  -984.567967100     A.U. after    7 cycles
 Optimization completed on the basis of negligible forces.
    -- Stationary point found.

                         Standard orientation:
 ---------------------------------------------------------------------
 Center     Atomic      Atomic             Coordinates (Angstroms)
 Number     Number       Type             X           Y           Z
 ---------------------------------------------------------------------
      1          1           0       -7.559532    0.754534   -0.611100
      2          6           0       -6.791703    0.218327   -1.153266
      3          1           0       -6.416873    0.838435   -1.958396
      4          1           0       -7.245738   -0.670397   -1.577567
      5          6           0       -5.718548   -0.209517   -0.175401
      6          8           0       -5.995037   -0.724242    0.877091
      7          7           0       -4.447017    0.005574   -0.567098
      8          1           0       -4.241080    0.456729   -1.429767
      9          6           0       -3.316879   -0.343130    0.258387
     10          1           0       -3.557080   -0.103634    1.286361
     11          6           0       -2.965617   -1.834740    0.161831
     12          1           0       -2.716738   -2.096677   -0.861056
     13          1           0       -2.122845   -2.086426    0.797465
     14          1           0       -3.819483   -2.419993    0.476092
     15          6           0       -2.134522    0.504248   -0.200121
     16          8           0       -2.094481    0.983075   -1.304926
     17          7           0       -1.154740    0.656787    0.713060
     18          1           0       -1.193332    0.121428    1.552982
     19          6           0        0.144716    1.200473    0.387533
     20          1           0        0.145248    1.416928   -0.670289
     21          6           0        0.429622    2.483646    1.175179
     22          1           0        0.408637    2.287455    2.241656
     23          1           0        1.402780    2.890038    0.920233
     24          1           0       -0.325642    3.225052    0.945129
     25          6           0        1.200614    0.146337    0.713469
     26          8           0        1.041040   -0.627145    1.625798
     27          7           0        2.307416    0.174327   -0.042603
     28          1           0        2.404937    0.823009   -0.792964
     29          6           0        3.436654   -0.693337    0.199606
     30          1           0        3.567222   -0.787457    1.270428
     31          6           0        3.230752   -2.088535   -0.404776
     32          1           0        3.108726   -2.018613   -1.479992
     33          1           0        4.075522   -2.736285   -0.195303
     34          1           0        2.342105   -2.534968    0.021390
     35          6           0        4.662440   -0.021167   -0.413894
     36          8           0        4.554069    0.800236   -1.287170
     37          7           0        5.851213   -0.438892    0.053286
     38          1           0        5.875350   -1.048224    0.837559
     39          6           0        7.099141    0.098215   -0.450906
     40          1           0        7.247420    1.124015   -0.134389
     41          1           0        7.912416   -0.508177   -0.076259
     42          1           0        7.105132    0.068343   -1.530915
 ---------------------------------------------------------------------

 The electronic state is 1-A.
 Alpha  occ. eigenvalues --  -20.54332 -20.53643 -20.53508 -20.51086 -15.60428
 Alpha  occ. eigenvalues --  -15.59518 -15.59086 -15.57545 -11.36305 -11.35724
 Alpha  occ. eigenvalues --  -11.35549 -11.33993 -11.29263 -11.28507 -11.27692
 Alpha  occ. eigenvalues --  -11.27154 -11.23294 -11.23082 -11.22519 -11.21921
 Alpha  occ. eigenvalues --   -1.41443  -1.40716  -1.40033  -1.37986  -1.25266
 Alpha  occ. eigenvalues --   -1.25130  -1.24819  -1.23151  -1.07808  -1.05363
 Alpha  occ. eigenvalues --   -1.02752  -0.98359  -0.97207  -0.92028  -0.90146
 Alpha  occ. eigenvalues --   -0.86797  -0.81871  -0.80328  -0.79749  -0.78226
 Alpha  occ. eigenvalues --   -0.76185  -0.71575  -0.68782  -0.67824  -0.67333
 Alpha  occ. eigenvalues --   -0.65327  -0.65180  -0.64824  -0.63980  -0.62294
 Alpha  occ. eigenvalues --   -0.62176  -0.61131  -0.60919  -0.60106  -0.59563
 Alpha  occ. eigenvalues --   -0.58156  -0.56948  -0.56854  -0.56398  -0.55898
 Alpha  occ. eigenvalues --   -0.55384  -0.54459  -0.53963  -0.53729  -0.53302
 Alpha  occ. eigenvalues --   -0.52269  -0.52032  -0.50597  -0.49125  -0.43959
 Alpha  occ. eigenvalues --   -0.43530  -0.42811  -0.41206  -0.40916  -0.40044
 Alpha  occ. eigenvalues --   -0.39304  -0.37928
 Alpha virt. eigenvalues --    0.17673   0.18997   0.19928   0.20335   0.21545
 Alpha virt. eigenvalues --    0.23281   0.23633   0.24418   0.25581   0.27277
 Alpha virt. eigenvalues --    0.27880   0.28557   0.29071   0.29993   0.30439

 Mulliken atomic charges:
              1
     1  H    0.206551
     2  C   -0.574973
     3  H    0.172159
     4  H    0.202253
     5  C    0.757018
     6  O   -0.623129
     7  N   -0.824674
     8  H    0.418183
     9  C   -0.033275
    10  H    0.221812
    11  C   -0.494689
    12  H    0.174194
    13  H    0.171133
    14  H    0.212059
    15  C    0.782644
    16  O   -0.636536
    17  N   -0.805487
    18  H    0.413616
    19  C   -0.070597
    20  H    0.239513
    21  C   -0.479221
    22  H    0.180822
    23  H    0.173759
    24  H    0.193478
    25  C    0.797392
    26  O   -0.646826
    27  N   -0.831815
    28  H    0.426354
    29  C   -0.037501
    30  H    0.214603
    31  C   -0.484663
    32  H    0.183113
    33  H    0.161743
    34  H    0.210014
    35  C    0.778179
    36  O   -0.628797
    37  N   -0.799763
    38  H    0.390834
    39  C   -0.273385
    40  H    0.185976
    41  H    0.173605
    42  H    0.204324
 Sum of Mulliken atomic charges =   0.00000

 Dipole moment (field-independent basis, Debye):
    X=              5.8706    Y=             -0.3983    Z=             -0.0044  Tot=              5.8841
 Quadrupole moment (field-independent basis, Debye-Ang):
   XX=           -104.5035   YY=           -119.4687   ZZ=           -127.6552
   XY=            -15.0610   XZ=             21.7831   YZ=              7.0258

 Normal termination of Gaussian 09 at Tue Dec 27 00:38:57 2016.
