 Gaussian 09, Revision A.02,
 Gaussian 09:  EM64L-G09RevA.02 11-Jun-2009

 -------------------------------------------------------------------
 # HF/6-31G* Opt=(ModRedundant, maxcycles=1000, calcfc) geom=nocrowd
 -------------------------------------------------------------------

 ------------------
 Phi Psi fixed scan
 ------------------
 Symbolic Z-matrix:
 Charge =  0 Multiplicity = 1

 SCF Done:  E(RHF) =  -984.543595525     A.U. after   15 cycles

  Exact polarizability:   0.000   0.000   0.000   0.000   0.000   0.000
 Approx polarizability: 129.131   3.959 124.434   4.000  12.719 135.152

 SCF Done:  E(RHF) =  -984.551456946     A.U. after   13 cycles
 SCF Done:  E(RHF) =  -984.559697724     A.U. after   13 cycles
 SCF Done:  E(RHF) =  -984.561549579     A.U. after   13 cycles
 SCF Done:  E(RHF) =  -984.563547812     A.U. after   14 cycles
 SCF Done:  E(RHF) =  -984.563632092     A.U. after   13 cycles
 SCF Done:  E(RHF) =  -984.564129482     A.U. after   14 cycles
 SCF Done:  E(RHF) =  -984.446925205     A.U. after   16 cycles
 SCF Done:  E(RHF) =  -984.564325969     A.U. after   16 cycles
 SCF Done:  E(RHF) =  -984.564436034     A.U. after   12 cycles
 SCF Done:  E(RHF) =  -984.564713652     A.U. after   10 cycles
 SCF Done:  E(RHF) =  -984.564715351     A.U. after   10 cycles
 SCF Done:  E(RHF) =  -984.564716229     A.U. after   10 cycles
 SCF Done:  E(RHF) =  -984.564716714     A.U. after    8 cycles
 SCF Done:  E(RHF) =  -984.564717267     A.U. after    9 cycles
 SCF Done:  E(RHF) =  -984.564717927     A.U. after   10 cycles
 SCF Done:  E(RHF) =  -984.564719116     A.U. after   10 cycles
 SCF Done:  E(RHF) =  -984.564719722     A.U. after    9 cycles
 SCF Done:  E(RHF) =  -984.564719717     A.U. after    9 cycles
 SCF Done:  E(RHF) =  -984.564719816     A.U. after    9 cycles
 Optimization completed.
    -- Stationary point found.

                         Standard orientation:
 ---------------------------------------------------------------------
 Center     Atomic      Atomic             Coordinates (Angstroms)
 Number     Number       Type             X           Y           Z
 ---------------------------------------------------------------------
      1          1           0       -6.310214   -2.572322   -0.582137
      2          6           0       -6.114788   -1.565610   -0.935562
      3          1           0       -7.054732   -1.030214   -0.947384
      4          1           0       -5.715178   -1.620830   -1.940834
      5          6           0       -5.181703   -0.884643    0.041870
      6          8           0       -5.561842   -0.505506    1.119121
      7          7           0       -3.902041   -0.752212   -0.362781
      8          1           0       -3.610605   -1.053357   -1.265384
      9          6           0       -2.896660   -0.130303    0.462640
     10          1           0       -3.347393    0.714980    0.967143
     11          6           0       -2.331081   -1.095065    1.514373
     12          1           0       -1.862818   -1.945941    1.031524
     13          1           0       -1.594523   -0.607089    2.144465
     14          1           0       -3.139175   -1.447109    2.141587
     15          6           0       -1.782738    0.355047   -0.460030
     16          8           0       -1.610921   -0.132215   -1.547597
     17          7           0       -0.995267    1.323329    0.050644
     18          1           0       -1.223991    1.715704    0.937143
     19          6           0        0.124334    1.910748   -0.668266
     20          1           0        0.183072    1.387674   -1.609944
     21          6           0       -0.081141    3.400779   -0.910258
     22          1           0       -0.158055    3.936615    0.027246
     23          1           0        0.756281    3.814964   -1.461108
     24          1           0       -0.985560    3.557064   -1.486772
     25          6           0        1.385150    1.648093    0.158076
     26          8           0        1.732077    2.403596    1.030175
     27          7           0        2.028436    0.503046   -0.122450
     28          1           0        1.703654   -0.108494   -0.839897
     29          6           0        3.190905    0.070718    0.616896
     30          1           0        3.800768    0.941459    0.821560
     31          6           0        2.816934   -0.601233    1.944849
     32          1           0        2.209512   -1.480966    1.762774
     33          1           0        3.702072   -0.901953    2.495624
     34          1           0        2.255315    0.095607    2.553276
     35          6           0        3.958187   -0.906036   -0.269372
     36          8           0        3.403502   -1.537926   -1.129894
     37          7           0        5.266306   -1.043447    0.011878
     38          1           0        5.688729   -0.418140    0.658009
     39          6           0        6.114849   -1.947360   -0.737686
     40          1           0        5.644653   -2.917128   -0.811718
     41          1           0        6.303413   -1.579551   -1.739737
     42          1           0        7.056728   -2.050374   -0.216089
 ---------------------------------------------------------------------

 The electronic state is 1-A.
 Alpha  occ. eigenvalues --  -20.54113 -20.53821 -20.53077 -20.51537 -15.60275
 Alpha  occ. eigenvalues --  -15.60010 -15.58871 -15.58000 -11.36255 -11.35809
 Alpha  occ. eigenvalues --  -11.35145 -11.34410 -11.28758 -11.28472 -11.28341
 Alpha  occ. eigenvalues --  -11.26805 -11.23005 -11.22829 -11.22523 -11.22391
 Alpha  occ. eigenvalues --   -1.41181  -1.40865  -1.39726  -1.38444  -1.25711
 Alpha  occ. eigenvalues --   -1.24777  -1.24294  -1.23620  -1.07575  -1.05340
 Alpha  occ. eigenvalues --   -1.02936  -0.98750  -0.96867  -0.92162  -0.90042
 Alpha  occ. eigenvalues --   -0.86638  -0.81676  -0.80742  -0.79340  -0.78778
 Alpha  occ. eigenvalues --   -0.75878  -0.71630  -0.68646  -0.68150  -0.67453
 Alpha  occ. eigenvalues --   -0.65423  -0.65001  -0.64613  -0.63811  -0.63381
 Alpha  occ. eigenvalues --   -0.62040  -0.60991  -0.60706  -0.59700  -0.59269
 Alpha  occ. eigenvalues --   -0.58484  -0.56966  -0.56581  -0.56518  -0.55793
 Alpha  occ. eigenvalues --   -0.54831  -0.54412  -0.53988  -0.53540  -0.52837
 Alpha  occ. eigenvalues --   -0.52686  -0.51970  -0.51022  -0.49642  -0.44196
 Alpha  occ. eigenvalues --   -0.43334  -0.43215  -0.41346  -0.40687  -0.39755
 Alpha  occ. eigenvalues --   -0.39079  -0.38235
 Alpha virt. eigenvalues --    0.17517   0.18705   0.19881   0.20721   0.21722
 Alpha virt. eigenvalues --    0.22255   0.23724   0.24776   0.25893   0.26290
 Alpha virt. eigenvalues --    0.27765   0.28673   0.29148   0.29614   0.30221

 Mulliken atomic charges:
              1
     1  H    0.202959
     2  C   -0.575824
     3  H    0.208140
     4  H    0.173807
     5  C    0.756087
     6  O   -0.622208
     7  N   -0.823702
     8  H    0.419230
     9  C   -0.031826
    10  H    0.217870
    11  C   -0.488123
    12  H    0.178621
    13  H    0.161050
    14  H    0.213007
    15  C    0.787130
    16  O   -0.633476
    17  N   -0.819324
    18  H    0.400261
    19  C   -0.067448
    20  H    0.243780
    21  C   -0.477178
    22  H    0.189476
    23  H    0.176259
    24  H    0.178093
    25  C    0.798345
    26  O   -0.633692
    27  N   -0.834361
    28  H    0.431114
    29  C   -0.033667
    30  H    0.213191
    31  C   -0.486520
    32  H    0.181922
    33  H    0.163014
    34  H    0.204972
    35  C    0.776468
    36  O   -0.625314
    37  N   -0.799879
    38  H    0.389517
    39  C   -0.273557
    40  H    0.204817
    41  H    0.184674
    42  H    0.172296
 Sum of Mulliken atomic charges =   0.00000

 Dipole moment (field-independent basis, Debye):
    X=              4.4689    Y=             -0.4455    Z=             -0.0562  Tot=              4.4914
 Quadrupole moment (field-independent basis, Debye-Ang):
   XX=           -103.9543   YY=           -122.4731   ZZ=           -126.3958
   XY=             -1.8666   XZ=             16.4758   YZ=             -6.1998

 Normal termination of Gaussian 09 at Tue Dec 27 03:54:29 2016.
