 Gaussian 09, Revision A.02,
 Gaussian 09:  EM64L-G09RevA.02 11-Jun-2009

 -------------------------------------------------------------------
 # HF/6-31G* Opt=(ModRedundant, maxcycles=1000, calcfc) geom=nocrowd
 -------------------------------------------------------------------

 ------------------
 Phi Psi fixed scan
 ------------------
 Symbolic Z-matrix:
 Charge =  0 Multiplicity = 1

 SCF Done:  E(RHF) =  -984.541417969     A.U. after   15 cycles

  Exact polarizability:   0.000   0.000   0.000   0.000   0.000   0.000
 Approx polarizability: 135.457   4.278 130.462  -0.852 -11.809 123.300

 SCF Done:  E(RHF) =  -984.550116165     A.U. after   13 cycles
 SCF Done:  E(RHF) =  -984.559466429     A.U. after   13 cycles
 SCF Done:  E(RHF) =  -984.561894610     A.U. after   13 cycles
 SCF Done:  E(RHF) =  -984.564286937     A.U. after   15 cycles
 SCF Done:  E(RHF) =  -984.564779516     A.U. after   15 cycles
 SCF Done:  E(RHF) =  -984.564625548     A.U. after   14 cycles
 SCF Done:  E(RHF) =  -984.565327361     A.U. after   13 cycles
 SCF Done:  E(RHF) =  -984.565416677     A.U. after   13 cycles
 SCF Done:  E(RHF) =  -984.565331856     A.U. after   13 cycles
 SCF Done:  E(RHF) =  -984.565596454     A.U. after   10 cycles
 SCF Done:  E(RHF) =  -984.565597294     A.U. after    9 cycles
 SCF Done:  E(RHF) =  -984.565597495     A.U. after    8 cycles
 SCF Done:  E(RHF) =  -984.565597557     A.U. after    8 cycles
 SCF Done:  E(RHF) =  -984.565597569     A.U. after    7 cycles
 SCF Done:  E(RHF) =  -984.565597580     A.U. after    7 cycles
 SCF Done:  E(RHF) =  -984.565597596     A.U. after    7 cycles
 SCF Done:  E(RHF) =  -984.565597621     A.U. after    6 cycles
 SCF Done:  E(RHF) =  -984.565597645     A.U. after    7 cycles
 SCF Done:  E(RHF) =  -984.565597649     A.U. after    6 cycles
 Optimization completed.
    -- Stationary point found.

                         Standard orientation:
 ---------------------------------------------------------------------
 Center     Atomic      Atomic             Coordinates (Angstroms)
 Number     Number       Type             X           Y           Z
 ---------------------------------------------------------------------
      1          1           0       -7.021696   -0.610860    0.092189
      2          6           0       -6.198538   -0.924542   -0.535232
      3          1           0       -6.149315   -0.293593   -1.414465
      4          1           0       -6.388936   -1.945101   -0.850424
      5          6           0       -4.926976   -0.902020    0.284815
      6          8           0       -4.905958   -1.268556    1.430811
      7          7           0       -3.823431   -0.467174   -0.358068
      8          1           0       -3.862907   -0.169065   -1.306607
      9          6           0       -2.529785   -0.422319    0.278926
     10          1           0       -2.676593   -0.129514    1.310479
     11          6           0       -1.815065   -1.780509    0.240378
     12          1           0       -1.664502   -2.095545   -0.786267
     13          1           0       -0.848622   -1.742214    0.731320
     14          1           0       -2.427885   -2.514987    0.746541
     15          6           0       -1.698655    0.628338   -0.449832
     16          8           0       -1.897209    0.891614   -1.605244
     17          7           0       -0.701350    1.186078    0.280894
     18          1           0       -0.726343    1.046643    1.267282
     19          6           0        0.130241    2.267282   -0.218475
     20          1           0       -0.170130    2.437615   -1.241492
     21          6           0       -0.076543    3.550605    0.588086
     22          1           0        0.180685    3.400217    1.633407
     23          1           0        0.549591    4.339652    0.196784
     24          1           0       -1.114315    3.858249    0.532210
     25          6           0        1.619583    1.920266   -0.275567
     26          8           0        2.409084    2.745374   -0.659285
     27          7           0        1.978519    0.692462    0.130205
     28          1           0        1.286746    0.005913    0.328281
     29          6           0        3.340449    0.223786    0.043230
     30          1           0        3.777675    0.596785   -0.875509
     31          6           0        4.187852    0.705331    1.228121
     32          1           0        3.782347    0.325890    2.159695
     33          1           0        5.216555    0.372230    1.139235
     34          1           0        4.178995    1.786775    1.254786
     35          6           0        3.290602   -1.301933    0.003794
     36          8           0        2.324789   -1.910888    0.388240
     37          7           0        4.401304   -1.908971   -0.447224
     38          1           0        5.125624   -1.356446   -0.843589
     39          6           0        4.498394   -3.351981   -0.535827
     40          1           0        4.205583   -3.800831    0.402358
     41          1           0        3.861867   -3.746355   -1.319270
     42          1           0        5.525276   -3.616396   -0.748259
 ---------------------------------------------------------------------

 The electronic state is 1-A.
 Alpha  occ. eigenvalues --  -20.54387 -20.54182 -20.52393 -20.51589 -15.60389
 Alpha  occ. eigenvalues --  -15.60185 -15.58533 -15.58055 -11.36371 -11.36087
 Alpha  occ. eigenvalues --  -11.34843 -11.34455 -11.28769 -11.28388 -11.28292
 Alpha  occ. eigenvalues --  -11.26960 -11.22978 -11.22875 -11.22829 -11.22072
 Alpha  occ. eigenvalues --   -1.41382  -1.41101  -1.39307  -1.38495  -1.26231
 Alpha  occ. eigenvalues --   -1.24973  -1.23839  -1.23596  -1.07406  -1.05229
 Alpha  occ. eigenvalues --   -1.03054  -0.98715  -0.96968  -0.91979  -0.89826
 Alpha  occ. eigenvalues --   -0.86980  -0.81639  -0.81051  -0.79020  -0.78847
 Alpha  occ. eigenvalues --   -0.75956  -0.71745  -0.69158  -0.68049  -0.67314
 Alpha  occ. eigenvalues --   -0.65650  -0.65031  -0.64491  -0.63531  -0.63193
 Alpha  occ. eigenvalues --   -0.61931  -0.61404  -0.60415  -0.59671  -0.58609
 Alpha  occ. eigenvalues --   -0.58164  -0.57081  -0.56724  -0.56670  -0.56091
 Alpha  occ. eigenvalues --   -0.55631  -0.54433  -0.53988  -0.53424  -0.52820
 Alpha  occ. eigenvalues --   -0.52488  -0.52159  -0.49865  -0.49609  -0.44509
 Alpha  occ. eigenvalues --   -0.43595  -0.43346  -0.41381  -0.40900  -0.39652
 Alpha  occ. eigenvalues --   -0.39023  -0.38238
 Alpha virt. eigenvalues --    0.17980   0.18269   0.19959   0.20570   0.20914
 Alpha virt. eigenvalues --    0.21408   0.23775   0.25367   0.26300   0.26565
 Alpha virt. eigenvalues --    0.27911   0.28869   0.29245   0.29754   0.30356

 Mulliken atomic charges:
              1
     1  H    0.208791
     2  C   -0.577078
     3  H    0.174036
     4  H    0.202642
     5  C    0.755775
     6  O   -0.621103
     7  N   -0.821124
     8  H    0.416301
     9  C   -0.035770
    10  H    0.214537
    11  C   -0.494204
    12  H    0.179448
    13  H    0.182354
    14  H    0.207841
    15  C    0.783640
    16  O   -0.619759
    17  N   -0.846779
    18  H    0.392052
    19  C   -0.045432
    20  H    0.264223
    21  C   -0.492973
    22  H    0.158165
    23  H    0.215878
    24  H    0.180754
    25  C    0.783294
    26  O   -0.635683
    27  N   -0.844371
    28  H    0.440184
    29  C   -0.028312
    30  H    0.214557
    31  C   -0.483990
    32  H    0.177296
    33  H    0.159398
    34  H    0.212197
    35  C    0.775385
    36  O   -0.634195
    37  N   -0.798601
    38  H    0.391203
    39  C   -0.273079
    40  H    0.203064
    41  H    0.186203
    42  H    0.173236
 Sum of Mulliken atomic charges =   0.00000

 Dipole moment (field-independent basis, Debye):
    X=              3.5215    Y=             -1.1231    Z=             -0.5282  Tot=              3.7338
 Quadrupole moment (field-independent basis, Debye-Ang):
   XX=           -101.3403   YY=           -126.2856   ZZ=           -125.9345
   XY=            -18.6844   XZ=              9.1195   YZ=             13.8719

 Normal termination of Gaussian 09 at Tue Dec 27 00:52:24 2016.
