 Gaussian 09, Revision A.02,
 Gaussian 09:  EM64L-G09RevA.02 11-Jun-2009

 -------------------------------------------------------------------
 # HF/6-31G* Opt=(ModRedundant, maxcycles=1000, calcfc) geom=nocrowd
 -------------------------------------------------------------------

 ------------------
 Phi Psi fixed scan
 ------------------
 Symbolic Z-matrix:
 Charge =  0 Multiplicity = 1

 SCF Done:  E(RHF) =  -984.530237178     A.U. after   15 cycles

  Exact polarizability:   0.000   0.000   0.000   0.000   0.000   0.000
 Approx polarizability: 133.710   2.297 126.159   4.838   1.224 129.115

 SCF Done:  E(RHF) =  -984.540704656     A.U. after   13 cycles
 SCF Done:  E(RHF) =  -984.552361053     A.U. after   13 cycles
 SCF Done:  E(RHF) =  -984.555475492     A.U. after   16 cycles
 SCF Done:  E(RHF) =  -984.557948815     A.U. after   13 cycles
 SCF Done:  E(RHF) =  -984.558842474     A.U. after   13 cycles
 SCF Done:  E(RHF) =  -984.444820086     A.U. after   16 cycles
 SCF Done:  E(RHF) =  -984.559241728     A.U. after   16 cycles
 SCF Done:  E(RHF) =  -984.543648147     A.U. after   15 cycles
 SCF Done:  E(RHF) =  -984.559515798     A.U. after   15 cycles
 SCF Done:  E(RHF) =  -984.559593356     A.U. after    9 cycles
 SCF Done:  E(RHF) =  -984.559593674     A.U. after    9 cycles
 SCF Done:  E(RHF) =  -984.559593754     A.U. after    7 cycles
 SCF Done:  E(RHF) =  -984.559593832     A.U. after    7 cycles
 SCF Done:  E(RHF) =  -984.559593956     A.U. after    8 cycles
 SCF Done:  E(RHF) =  -984.559594141     A.U. after    8 cycles
 SCF Done:  E(RHF) =  -984.559594396     A.U. after    9 cycles
 SCF Done:  E(RHF) =  -984.559594682     A.U. after    8 cycles
 SCF Done:  E(RHF) =  -984.559594816     A.U. after    8 cycles
 SCF Done:  E(RHF) =  -984.559594837     A.U. after    8 cycles
 Optimization completed.
    -- Stationary point found.

                         Standard orientation:
 ---------------------------------------------------------------------
 Center     Atomic      Atomic             Coordinates (Angstroms)
 Number     Number       Type             X           Y           Z
 ---------------------------------------------------------------------
      1          1           0       -7.424297    0.595732   -1.272646
      2          6           0       -6.908730    0.224413   -0.397141
      3          1           0       -6.872280   -0.857777   -0.428240
      4          1           0       -7.475011    0.528986    0.476541
      5          6           0       -5.539685    0.866269   -0.331949
      6          8           0       -5.378815    2.035564   -0.568790
      7          7           0       -4.526875    0.051820    0.025819
      8          1           0       -4.680746   -0.913618    0.211686
      9          6           0       -3.169292    0.521319    0.154960
     10          1           0       -2.983183    1.235035   -0.637373
     11          6           0       -2.911435    1.194869    1.510331
     12          1           0       -3.108098    0.498317    2.317483
     13          1           0       -1.883864    1.531826    1.596764
     14          1           0       -3.568144    2.048975    1.612281
     15          6           0       -2.248258   -0.682195   -0.004834
     16          8           0       -2.619910   -1.796833    0.251658
     17          7           0       -0.999932   -0.396480   -0.434804
     18          1           0       -0.763874    0.559895   -0.576453
     19          6           0        0.081168   -1.362810   -0.385359
     20          1           0       -0.300273   -2.212882    0.160340
     21          6           0        0.484971   -1.813158   -1.788291
     22          1           0        0.822924   -0.982396   -2.400209
     23          1           0        1.269400   -2.562535   -1.754584
     24          1           0       -0.375970   -2.253561   -2.275258
     25          6           0        1.193293   -0.779147    0.499869
     26          8           0        0.953930   -0.475742    1.639851
     27          7           0        2.400434   -0.594077   -0.060228
     28          1           0        2.586604   -0.838158   -1.006415
     29          6           0        3.514240   -0.050601    0.681367
     30          1           0        3.147378    0.759604    1.298955
     31          6           0        4.180615   -1.101275    1.579786
     32          1           0        4.570068   -1.916840    0.980298
     33          1           0        4.998848   -0.670599    2.147350
     34          1           0        3.449870   -1.492240    2.275060
     35          6           0        4.512992    0.487228   -0.339843
     36          8           0        4.524583    0.086411   -1.475435
     37          7           0        5.390514    1.393090    0.123195
     38          1           0        5.277315    1.749589    1.043529
     39          6           0        6.409724    1.971703   -0.729100
     40          1           0        6.950099    1.190567   -1.244341
     41          1           0        5.978618    2.636570   -1.468225
     42          1           0        7.099702    2.530141   -0.111466
 ---------------------------------------------------------------------

 The electronic state is 1-A.
 Alpha  occ. eigenvalues --  -20.54377 -20.53500 -20.52875 -20.51183 -15.60464
 Alpha  occ. eigenvalues --  -15.59649 -15.59356 -15.57622 -11.36323 -11.35533
 Alpha  occ. eigenvalues --  -11.35448 -11.34073 -11.29165 -11.28515 -11.27738
 Alpha  occ. eigenvalues --  -11.27197 -11.23246 -11.23191 -11.22568 -11.21713
 Alpha  occ. eigenvalues --   -1.41400  -1.40618  -1.39721  -1.38067  -1.25249
 Alpha  occ. eigenvalues --   -1.25172  -1.24708  -1.23219  -1.07731  -1.05249
 Alpha  occ. eigenvalues --   -1.02656  -0.98380  -0.97219  -0.91994  -0.90122
 Alpha  occ. eigenvalues --   -0.87201  -0.81584  -0.80867  -0.79771  -0.78372
 Alpha  occ. eigenvalues --   -0.76048  -0.71598  -0.68470  -0.68180  -0.67092
 Alpha  occ. eigenvalues --   -0.65397  -0.65088  -0.64469  -0.64301  -0.62849
 Alpha  occ. eigenvalues --   -0.61534  -0.60943  -0.60622  -0.59672  -0.59190
 Alpha  occ. eigenvalues --   -0.58075  -0.56961  -0.56737  -0.56304  -0.56049
 Alpha  occ. eigenvalues --   -0.55682  -0.54852  -0.54029  -0.53888  -0.53090
 Alpha  occ. eigenvalues --   -0.52194  -0.51993  -0.50582  -0.49148  -0.43951
 Alpha  occ. eigenvalues --   -0.43215  -0.42557  -0.41168  -0.40995  -0.39869
 Alpha  occ. eigenvalues --   -0.39239  -0.37975
 Alpha virt. eigenvalues --    0.17328   0.18894   0.19528   0.20347   0.21635
 Alpha virt. eigenvalues --    0.22833   0.23843   0.24339   0.25515   0.27281
 Alpha virt. eigenvalues --    0.28405   0.28586   0.29228   0.29929   0.30143

 Mulliken atomic charges:
              1
     1  H    0.207108
     2  C   -0.575982
     3  H    0.173214
     4  H    0.202096
     5  C    0.756818
     6  O   -0.623769
     7  N   -0.821927
     8  H    0.417070
     9  C   -0.039181
    10  H    0.215951
    11  C   -0.488376
    12  H    0.182527
    13  H    0.171724
    14  H    0.205569
    15  C    0.796872
    16  O   -0.631341
    17  N   -0.801607
    18  H    0.391160
    19  C   -0.045245
    20  H    0.258555
    21  C   -0.507574
    22  H    0.169381
    23  H    0.174489
    24  H    0.202995
    25  C    0.761578
    26  O   -0.622820
    27  N   -0.847052
    28  H    0.437663
    29  C   -0.030570
    30  H    0.214231
    31  C   -0.487492
    32  H    0.179950
    33  H    0.161698
    34  H    0.214058
    35  C    0.777052
    36  O   -0.630736
    37  N   -0.799916
    38  H    0.391446
    39  C   -0.273055
    40  H    0.203136
    41  H    0.186451
    42  H    0.173853
 Sum of Mulliken atomic charges =   0.00000

 Dipole moment (field-independent basis, Debye):
    X=              5.0192    Y=              0.5870    Z=              0.4176  Tot=              5.0706
 Quadrupole moment (field-independent basis, Debye-Ang):
   XX=           -101.4525   YY=           -124.5276   ZZ=           -126.3419
   XY=             22.1829   XZ=              7.7814   YZ=              6.0462

 Normal termination of Gaussian 09 at Tue Dec 27 01:30:23 2016.
