 Gaussian 09, Revision A.02,
 Gaussian 09:  EM64L-G09RevA.02 11-Jun-2009

 -------------------------------------------------------------------
 # HF/6-31G* Opt=(ModRedundant, maxcycles=1000, calcfc) geom=nocrowd
 -------------------------------------------------------------------

 ------------------
 Phi Psi fixed scan
 ------------------
 Symbolic Z-matrix:
 Charge =  0 Multiplicity = 1

 SCF Done:  E(RHF) =  -984.537593302     A.U. after   15 cycles

  Exact polarizability:   0.000   0.000   0.000   0.000   0.000   0.000
 Approx polarizability: 132.196  -0.662 132.808  -2.785 -15.011 123.551

 SCF Done:  E(RHF) =  -984.545673355     A.U. after   13 cycles
 SCF Done:  E(RHF) =  -984.555961741     A.U. after   16 cycles
 SCF Done:  E(RHF) =  -984.559291678     A.U. after   13 cycles
 SCF Done:  E(RHF) =  -984.559717610     A.U. after   16 cycles
 SCF Done:  E(RHF) =  -984.555970758     A.U. after   13 cycles
 SCF Done:  E(RHF) =  -984.561193512     A.U. after   13 cycles
 SCF Done:  E(RHF) =  -984.561794446     A.U. after   13 cycles
 SCF Done:  E(RHF) =  -984.499855448     A.U. after   16 cycles
 SCF Done:  E(RHF) =  -984.562118240     A.U. after   16 cycles
 SCF Done:  E(RHF) =  -984.562860857     A.U. after    8 cycles
 SCF Done:  E(RHF) =  -984.562861225     A.U. after    9 cycles
 SCF Done:  E(RHF) =  -984.562861603     A.U. after    9 cycles
 SCF Done:  E(RHF) =  -984.562862286     A.U. after   10 cycles
 SCF Done:  E(RHF) =  -984.562863541     A.U. after    9 cycles
 SCF Done:  E(RHF) =  -984.562865640     A.U. after   10 cycles
 SCF Done:  E(RHF) =  -984.562866196     A.U. after   10 cycles
 SCF Done:  E(RHF) =  -984.562866262     A.U. after    8 cycles
 SCF Done:  E(RHF) =  -984.562866327     A.U. after    8 cycles
 SCF Done:  E(RHF) =  -984.562866338     A.U. after    7 cycles
 Optimization completed.
    -- Stationary point found.

                         Standard orientation:
 ---------------------------------------------------------------------
 Center     Atomic      Atomic             Coordinates (Angstroms)
 Number     Number       Type             X           Y           Z
 ---------------------------------------------------------------------
      1          1           0       -7.102235   -0.568271    0.333086
      2          6           0       -6.347790   -0.757410   -0.418530
      3          1           0       -6.351754    0.043269   -1.148174
      4          1           0       -6.601720   -1.685547   -0.919517
      5          6           0       -5.010842   -0.930726    0.268760
      6          8           0       -4.902535   -1.549814    1.295086
      7          7           0       -3.954427   -0.368800   -0.353949
      8          1           0       -4.068237    0.157635   -1.190663
      9          6           0       -2.614473   -0.462876    0.170487
     10          1           0       -2.670297   -0.387794    1.249275
     11          6           0       -1.934482   -1.788419   -0.201408
     12          1           0       -1.866972   -1.885025   -1.279647
     13          1           0       -0.934658   -1.855764    0.213814
     14          1           0       -2.524379   -2.607769    0.187785
     15          6           0       -1.818777    0.712044   -0.389999
     16          8           0       -2.143663    1.263264   -1.406139
     17          7           0       -0.700140    1.030802    0.309913
     18          1           0       -0.642370    0.671780    1.238033
     19          6           0        0.118742    2.189156   -0.007262
     20          1           0       -0.303279    2.638427   -0.891174
     21          6           0        0.120627    3.208378    1.135162
     22          1           0        0.520628    2.774307    2.047261
     23          1           0        0.731819    4.061461    0.869351
     24          1           0       -0.889722    3.549455    1.329655
     25          6           0        1.559812    1.832336   -0.368688
     26          8           0        2.208856    2.578734   -1.053088
     27          7           0        2.073889    0.727564    0.208426
     28          1           0        1.463544    0.033068    0.576961
     29          6           0        3.406095    0.263914   -0.101226
     30          1           0        3.628425    0.506737   -1.133926
     31          6           0        4.455838    0.924682    0.800485
     32          1           0        4.269594    0.678739    1.840157
     33          1           0        5.460279    0.604066    0.545046
     34          1           0        4.399646    1.998483    0.679325
     35          6           0        3.408870   -1.254864    0.067823
     36          8           0        2.517525   -1.828100    0.641566
     37          7           0        4.476133   -1.895199   -0.438224
     38          1           0        5.129751   -1.385256   -0.985723
     39          6           0        4.606256   -3.336448   -0.362493
     40          1           0        3.890173   -3.835179   -1.005120
     41          1           0        5.606629   -3.609006   -0.669787
     42          1           0        4.446238   -3.669650    0.652756
 ---------------------------------------------------------------------

 The electronic state is 1-A.
 Alpha  occ. eigenvalues --  -20.54448 -20.54328 -20.52695 -20.51558 -15.60344
 Alpha  occ. eigenvalues --  -15.60248 -15.58485 -15.58007 -11.36368 -11.36196
 Alpha  occ. eigenvalues --  -11.34828 -11.34423 -11.28768 -11.28320 -11.28318
 Alpha  occ. eigenvalues --  -11.27024 -11.23401 -11.23092 -11.22847 -11.22171
 Alpha  occ. eigenvalues --   -1.41424  -1.41223  -1.39483  -1.38467  -1.26172
 Alpha  occ. eigenvalues --   -1.25053  -1.23850  -1.23586  -1.07600  -1.05217
 Alpha  occ. eigenvalues --   -1.03137  -0.98716  -0.97004  -0.91982  -0.89905
 Alpha  occ. eigenvalues --   -0.87212  -0.81656  -0.81147  -0.78943  -0.78717
 Alpha  occ. eigenvalues --   -0.75917  -0.71748  -0.69226  -0.67914  -0.67183
 Alpha  occ. eigenvalues --   -0.65716  -0.65244  -0.64491  -0.63315  -0.63192
 Alpha  occ. eigenvalues --   -0.62579  -0.61568  -0.60395  -0.59347  -0.58763
 Alpha  occ. eigenvalues --   -0.58027  -0.57401  -0.56814  -0.56707  -0.56084
 Alpha  occ. eigenvalues --   -0.55985  -0.54551  -0.54078  -0.53658  -0.53035
 Alpha  occ. eigenvalues --   -0.52553  -0.52087  -0.49962  -0.49666  -0.44692
 Alpha  occ. eigenvalues --   -0.43642  -0.43353  -0.41354  -0.41039  -0.39741
 Alpha  occ. eigenvalues --   -0.39164  -0.38209
 Alpha virt. eigenvalues --    0.17975   0.18251   0.19846   0.19999   0.20651
 Alpha virt. eigenvalues --    0.21256   0.23917   0.25380   0.25931   0.27219
 Alpha virt. eigenvalues --    0.27905   0.28658   0.29347   0.29514   0.30298

 Mulliken atomic charges:
              1
     1  H    0.208327
     2  C   -0.576392
     3  H    0.173877
     4  H    0.202855
     5  C    0.755296
     6  O   -0.621369
     7  N   -0.822475
     8  H    0.417798
     9  C   -0.035305
    10  H    0.214029
    11  C   -0.491304
    12  H    0.176240
    13  H    0.179116
    14  H    0.209790
    15  C    0.783155
    16  O   -0.616078
    17  N   -0.836911
    18  H    0.389384
    19  C   -0.052233
    20  H    0.265185
    21  C   -0.498846
    22  H    0.164179
    23  H    0.206873
    24  H    0.185858
    25  C    0.777333
    26  O   -0.623628
    27  N   -0.831044
    28  H    0.428875
    29  C   -0.040574
    30  H    0.218994
    31  C   -0.478471
    32  H    0.177492
    33  H    0.156935
    34  H    0.209174
    35  C    0.775696
    36  O   -0.635653
    37  N   -0.797619
    38  H    0.391612
    39  C   -0.272886
    40  H    0.186039
    41  H    0.173482
    42  H    0.203195
 Sum of Mulliken atomic charges =   0.00000

 Dipole moment (field-independent basis, Debye):
    X=              3.7872    Y=             -0.9663    Z=             -0.1666  Tot=              3.9120
 Quadrupole moment (field-independent basis, Debye-Ang):
   XX=            -98.6344   YY=           -127.9262   ZZ=           -126.2004
   XY=            -18.7545   XZ=              7.0352   YZ=             17.7584

 Normal termination of Gaussian 09 at Tue Dec 27 04:27:04 2016.
