 Gaussian 09, Revision A.02,
 Gaussian 09:  EM64L-G09RevA.02 11-Jun-2009

 -------------------------------------------------------------------
 # HF/6-31G* Opt=(ModRedundant, maxcycles=1000, calcfc) geom=nocrowd
 -------------------------------------------------------------------

 ------------------
 Phi Psi fixed scan
 ------------------
 Symbolic Z-matrix:
 Charge =  0 Multiplicity = 1

 SCF Done:  E(RHF) =  -984.524566826     A.U. after   15 cycles

  Exact polarizability:   0.000   0.000   0.000   0.000   0.000   0.000
 Approx polarizability: 131.386  -7.655 132.644   1.255   8.421 124.974

 SCF Done:  E(RHF) =  -984.535902727     A.U. after   13 cycles
 SCF Done:  E(RHF) =  -984.549089649     A.U. after   13 cycles
 SCF Done:  E(RHF) =  -984.553566420     A.U. after   13 cycles
 SCF Done:  E(RHF) =  -984.556403192     A.U. after   13 cycles
 SCF Done:  E(RHF) =  -984.557456904     A.U. after   16 cycles
 SCF Done:  E(RHF) =  -984.511506717     A.U. after   16 cycles
 SCF Done:  E(RHF) =  -984.557696965     A.U. after   15 cycles
 SCF Done:  E(RHF) =  -984.483936846     A.U. after   16 cycles
 SCF Done:  E(RHF) =  -984.557966485     A.U. after   16 cycles
 SCF Done:  E(RHF) =  -984.558080114     A.U. after   10 cycles
 SCF Done:  E(RHF) =  -984.558080197     A.U. after    7 cycles
 SCF Done:  E(RHF) =  -984.558086127     A.U. after   11 cycles
 SCF Done:  E(RHF) =  -984.558086267     A.U. after    9 cycles
 SCF Done:  E(RHF) =  -984.558086826     A.U. after   11 cycles
 SCF Done:  E(RHF) =  -984.558087312     A.U. after    9 cycles
 SCF Done:  E(RHF) =  -984.558086505     A.U. after    9 cycles
 SCF Done:  E(RHF) =  -984.558087443     A.U. after   10 cycles
 SCF Done:  E(RHF) =  -984.558087449     A.U. after    7 cycles
 SCF Done:  E(RHF) =  -984.558087450     A.U. after    5 cycles
 Optimization completed.
    -- Stationary point found.

                         Standard orientation:
 ---------------------------------------------------------------------
 Center     Atomic      Atomic             Coordinates (Angstroms)
 Number     Number       Type             X           Y           Z
 ---------------------------------------------------------------------
      1          1           0       -4.696472    3.408353   -0.552184
      2          6           0       -3.865114    3.186314    0.108181
      3          1           0       -4.001536    3.757967    1.016430
      4          1           0       -2.944927    3.488033   -0.377151
      5          6           0       -3.903765    1.713366    0.452550
      6          8           0       -4.717468    1.263872    1.216946
      7          7           0       -2.987397    0.941298   -0.166754
      8          1           0       -2.306208    1.334780   -0.776417
      9          6           0       -2.906322   -0.480567    0.057441
     10          1           0       -3.083763   -0.668103    1.109188
     11          6           0       -3.940801   -1.258297   -0.768305
     12          1           0       -3.773784   -1.098610   -1.828016
     13          1           0       -3.888352   -2.323055   -0.567428
     14          1           0       -4.931710   -0.908327   -0.511741
     15          6           0       -1.492681   -0.922436   -0.311500
     16          8           0       -0.802204   -0.259731   -1.042550
     17          7           0       -1.116883   -2.122431    0.179239
     18          1           0       -1.680411   -2.502473    0.905882
     19          6           0        0.226099   -2.691774    0.063749
     20          1           0        0.211921   -3.572165    0.688303
     21          6           0        0.545268   -3.114541   -1.370147
     22          1           0        0.512748   -2.280830   -2.057185
     23          1           0        1.531639   -3.563253   -1.417292
     24          1           0       -0.181203   -3.850142   -1.696514
     25          6           0        1.299381   -1.808672    0.725817
     26          8           0        1.591876   -2.017633    1.877242
     27          7           0        1.900140   -0.868113   -0.018935
     28          1           0        1.495125   -0.578945   -0.883473
     29          6           0        2.896577    0.006972    0.556851
     30          1           0        2.595661    0.261839    1.566261
     31          6           0        4.276128   -0.662941    0.606207
     32          1           0        4.607180   -0.910601   -0.396132
     33          1           0        5.013332   -0.010899    1.063162
     34          1           0        4.212455   -1.570756    1.191169
     35          6           0        2.959072    1.272135   -0.293023
     36          8           0        2.601463    1.284280   -1.440593
     37          7           0        3.484858    2.351182    0.318596
     38          1           0        3.662419    2.313816    1.295181
     39          6           0        3.622095    3.619670   -0.365812
     40          1           0        4.101710    3.473109   -1.322854
     41          1           0        2.659788    4.089946   -0.533484
     42          1           0        4.234411    4.275079    0.238869
 ---------------------------------------------------------------------

 The electronic state is 1-A.
 Alpha  occ. eigenvalues --  -20.54784 -20.53116 -20.52350 -20.51712 -15.60563
 Alpha  occ. eigenvalues --  -15.59332 -15.58172 -15.57631 -11.36614 -11.35091
 Alpha  occ. eigenvalues --  -11.34580 -11.34547 -11.28979 -11.28591 -11.27906
 Alpha  occ. eigenvalues --  -11.26367 -11.22993 -11.22674 -11.22523 -11.22212
 Alpha  occ. eigenvalues --   -1.41738  -1.40181  -1.39005  -1.38626  -1.25667
 Alpha  occ. eigenvalues --   -1.24108  -1.23844  -1.23380  -1.07538  -1.04961
 Alpha  occ. eigenvalues --   -1.02697  -0.98926  -0.96243  -0.91650  -0.89763
 Alpha  occ. eigenvalues --   -0.87493  -0.81802  -0.79586  -0.78952  -0.77864
 Alpha  occ. eigenvalues --   -0.74676  -0.73188  -0.68597  -0.67742  -0.66454
 Alpha  occ. eigenvalues --   -0.66143  -0.64668  -0.64047  -0.63441  -0.63103
 Alpha  occ. eigenvalues --   -0.61834  -0.61539  -0.59945  -0.59506  -0.58700
 Alpha  occ. eigenvalues --   -0.57312  -0.57016  -0.56585  -0.56048  -0.55346
 Alpha  occ. eigenvalues --   -0.55109  -0.54696  -0.53699  -0.53505  -0.52898
 Alpha  occ. eigenvalues --   -0.52679  -0.51991  -0.50036  -0.49808  -0.44548
 Alpha  occ. eigenvalues --   -0.43601  -0.42447  -0.41514  -0.40048  -0.39519
 Alpha  occ. eigenvalues --   -0.38552  -0.38002
 Alpha virt. eigenvalues --    0.17235   0.18814   0.19908   0.20748   0.21332
 Alpha virt. eigenvalues --    0.21708   0.23831   0.25772   0.26261   0.27333
 Alpha virt. eigenvalues --    0.28079   0.28647   0.29423   0.29584   0.30598

 Mulliken atomic charges:
              1
     1  H    0.203560
     2  C   -0.576084
     3  H    0.207768
     4  H    0.174053
     5  C    0.755895
     6  O   -0.621513
     7  N   -0.824632
     8  H    0.421070
     9  C   -0.032428
    10  H    0.218165
    11  C   -0.485178
    12  H    0.177860
    13  H    0.161734
    14  H    0.213211
    15  C    0.787520
    16  O   -0.637126
    17  N   -0.819325
    18  H    0.397364
    19  C   -0.037877
    20  H    0.221934
    21  C   -0.491802
    22  H    0.203544
    23  H    0.176445
    24  H    0.174804
    25  C    0.764851
    26  O   -0.633450
    27  N   -0.821638
    28  H    0.460359
    29  C   -0.027875
    30  H    0.207018
    31  C   -0.484810
    32  H    0.181324
    33  H    0.158059
    34  H    0.207598
    35  C    0.767950
    36  O   -0.619621
    37  N   -0.800463
    38  H    0.388351
    39  C   -0.270925
    40  H    0.202661
    41  H    0.181557
    42  H    0.170089
 Sum of Mulliken atomic charges =   0.00000

 Dipole moment (field-independent basis, Debye):
    X=              2.0802    Y=              0.8560    Z=             -0.2352  Tot=              2.2617
 Quadrupole moment (field-independent basis, Debye-Ang):
   XX=           -125.6185   YY=           -100.2740   ZZ=           -131.9967
   XY=             13.4494   XZ=             13.7357   YZ=              6.7624

 Normal termination of Gaussian 09 at Tue Dec 27 17:10:40 2016.
