 Gaussian 09, Revision A.02,
 Gaussian 09:  EM64L-G09RevA.02 11-Jun-2009

 -------------------------------------------------------------------
 # HF/6-31G* Opt=(ModRedundant, maxcycles=1000, calcfc) geom=nocrowd
 -------------------------------------------------------------------

 ------------------
 Phi Psi fixed scan
 ------------------
 Symbolic Z-matrix:
 Charge =  0 Multiplicity = 1

 SCF Done:  E(RHF) =  -984.534331911     A.U. after   15 cycles

  Exact polarizability:   0.000   0.000   0.000   0.000   0.000   0.000
 Approx polarizability: 122.349   1.591 120.903   6.608   6.574 145.094

 SCF Done:  E(RHF) =  -984.543525614     A.U. after   13 cycles
 SCF Done:  E(RHF) =  -984.553377198     A.U. after   13 cycles
 SCF Done:  E(RHF) =  -984.555604239     A.U. after   13 cycles
 SCF Done:  E(RHF) =  -984.557858353     A.U. after   13 cycles
 SCF Done:  E(RHF) =  -984.558874466     A.U. after   13 cycles
 SCF Done:  E(RHF) =  -984.555927707     A.U. after   13 cycles
 SCF Done:  E(RHF) =  -984.559040030     A.U. after   14 cycles
 SCF Done:  E(RHF) =  -984.559344268     A.U. after   13 cycles
 SCF Done:  E(RHF) =  -984.559375976     A.U. after   12 cycles
 SCF Done:  E(RHF) =  -984.559593699     A.U. after   10 cycles
 SCF Done:  E(RHF) =  -984.559595375     A.U. after   10 cycles
 SCF Done:  E(RHF) =  -984.559596230     A.U. after    9 cycles
 SCF Done:  E(RHF) =  -984.559596932     A.U. after   10 cycles
 SCF Done:  E(RHF) =  -984.559597698     A.U. after    9 cycles
 SCF Done:  E(RHF) =  -984.559599690     A.U. after   10 cycles
 SCF Done:  E(RHF) =  -984.559600498     A.U. after   10 cycles
 SCF Done:  E(RHF) =  -984.559600614     A.U. after    8 cycles
 SCF Done:  E(RHF) =  -984.559600674     A.U. after    8 cycles
 SCF Done:  E(RHF) =  -984.559600680     A.U. after    7 cycles
 Optimization completed.
    -- Stationary point found.

                         Standard orientation:
 ---------------------------------------------------------------------
 Center     Atomic      Atomic             Coordinates (Angstroms)
 Number     Number       Type             X           Y           Z
 ---------------------------------------------------------------------
      1          1           0       -4.242310   -3.908249    0.858452
      2          6           0       -4.400903   -2.887402    1.180114
      3          1           0       -3.834474   -2.699891    2.084078
      4          1           0       -5.456725   -2.768757    1.397515
      5          6           0       -4.036802   -1.959819    0.041533
      6          8           0       -4.405180   -2.167789   -1.085222
      7          7           0       -3.294980   -0.883242    0.373350
      8          1           0       -2.982030   -0.737525    1.306744
      9          6           0       -2.870809    0.085684   -0.605981
     10          1           0       -2.587034   -0.442695   -1.507616
     11          6           0       -3.981169    1.090881   -0.944465
     12          1           0       -4.271767    1.644819   -0.058518
     13          1           0       -3.660929    1.798129   -1.703378
     14          1           0       -4.840748    0.553554   -1.321681
     15          6           0       -1.658278    0.813668   -0.034292
     16          8           0       -1.447750    0.857437    1.147796
     17          7           0       -0.851355    1.401954   -0.946598
     18          1           0       -1.140621    1.376623   -1.898183
     19          6           0        0.194071    2.363452   -0.604196
     20          1           0        0.714155    2.563981   -1.534319
     21          6           0       -0.361319    3.669002   -0.045433
     22          1           0       -0.862569    3.497811    0.896318
     23          1           0        0.440391    4.376125    0.123824
     24          1           0       -1.062636    4.099870   -0.753072
     25          6           0        1.236968    1.745771    0.340462
     26          8           0        1.540628    2.261796    1.378914
     27          7           0        1.877153    0.669161   -0.162492
     28          1           0        1.521548    0.205433   -0.969255
     29          6           0        2.842830   -0.072054    0.613308
     30          1           0        3.505370    0.640264    1.087614
     31          6           0        2.188248   -0.946533    1.692015
     32          1           0        1.539439   -1.684611    1.233164
     33          1           0        2.937521   -1.465714    2.281293
     34          1           0        1.598198   -0.323886    2.350902
     35          6           0        3.622736   -0.947793   -0.361442
     36          8           0        3.119992   -1.352735   -1.377946
     37          7           0        4.871313   -1.275163    0.015875
     38          1           0        5.264643   -0.834085    0.814261
     39          6           0        5.715062   -2.125668   -0.797846
     40          1           0        5.174846   -3.016198   -1.085282
     41          1           0        6.043475   -1.618129   -1.697560
     42          1           0        6.582010   -2.410649   -0.217250
 ---------------------------------------------------------------------

 The electronic state is 1-A.
 Alpha  occ. eigenvalues --  -20.54498 -20.53335 -20.52322 -20.51659 -15.60561
 Alpha  occ. eigenvalues --  -15.59634 -15.58169 -15.57841 -11.36364 -11.35310
 Alpha  occ. eigenvalues --  -11.34604 -11.34539 -11.29039 -11.28558 -11.28019
 Alpha  occ. eigenvalues --  -11.26540 -11.22926 -11.22849 -11.22016 -11.21589
 Alpha  occ. eigenvalues --   -1.41559  -1.40345  -1.39094  -1.38581  -1.25922
 Alpha  occ. eigenvalues --   -1.24364  -1.23818  -1.23352  -1.07331  -1.04846
 Alpha  occ. eigenvalues --   -1.02694  -0.98908  -0.96451  -0.91793  -0.89918
 Alpha  occ. eigenvalues --   -0.86588  -0.82109  -0.79799  -0.78938  -0.78308
 Alpha  occ. eigenvalues --   -0.74459  -0.72568  -0.68645  -0.67357  -0.66804
 Alpha  occ. eigenvalues --   -0.66276  -0.64414  -0.64349  -0.63720  -0.63041
 Alpha  occ. eigenvalues --   -0.61741  -0.61230  -0.60191  -0.59275  -0.58782
 Alpha  occ. eigenvalues --   -0.58519  -0.57129  -0.56373  -0.56231  -0.55334
 Alpha  occ. eigenvalues --   -0.54905  -0.54001  -0.53412  -0.53156  -0.52747
 Alpha  occ. eigenvalues --   -0.52101  -0.52013  -0.50399  -0.49711  -0.43939
 Alpha  occ. eigenvalues --   -0.43011  -0.42622  -0.41463  -0.40240  -0.39892
 Alpha  occ. eigenvalues --   -0.38633  -0.38242
 Alpha virt. eigenvalues --    0.17524   0.18430   0.19275   0.20909   0.21167
 Alpha virt. eigenvalues --    0.22456   0.23875   0.25811   0.26100   0.27165
 Alpha virt. eigenvalues --    0.27800   0.28600   0.29541   0.29863   0.30136

 Mulliken atomic charges:
              1
     1  H    0.208518
     2  C   -0.575549
     3  H    0.173635
     4  H    0.203568
     5  C    0.757246
     6  O   -0.621913
     7  N   -0.824634
     8  H    0.419799
     9  C   -0.034803
    10  H    0.220777
    11  C   -0.489323
    12  H    0.180619
    13  H    0.153510
    14  H    0.216674
    15  C    0.787397
    16  O   -0.619009
    17  N   -0.830221
    18  H    0.393614
    19  C   -0.060223
    20  H    0.205930
    21  C   -0.472351
    22  H    0.215159
    23  H    0.185320
    24  H    0.151793
    25  C    0.819722
    26  O   -0.619162
    27  N   -0.824764
    28  H    0.415300
    29  C   -0.036053
    30  H    0.209710
    31  C   -0.491388
    32  H    0.177634
    33  H    0.157844
    34  H    0.222223
    35  C    0.781638
    36  O   -0.633419
    37  N   -0.800085
    38  H    0.389965
    39  C   -0.272439
    40  H    0.202841
    41  H    0.183522
    42  H    0.171377
 Sum of Mulliken atomic charges =   0.00000

 Dipole moment (field-independent basis, Debye):
    X=              3.0265    Y=              0.4332    Z=             -0.0211  Tot=              3.0574
 Quadrupole moment (field-independent basis, Debye-Ang):
   XX=           -102.3797   YY=           -123.1215   ZZ=           -124.8263
   XY=            -13.2846   XZ=             -3.8364   YZ=            -21.5226

 Normal termination of Gaussian 09 at Tue Dec 27 15:32:10 2016.
