 Gaussian 09, Revision A.02,
 Gaussian 09:  EM64L-G09RevA.02 11-Jun-2009

 -------------------------------------------------------------------
 # HF/6-31G* Opt=(ModRedundant, maxcycles=1000, calcfc) geom=nocrowd
 -------------------------------------------------------------------

 ------------------
 Phi Psi fixed scan
 ------------------
 Symbolic Z-matrix:
 Charge =  0 Multiplicity = 1

 SCF Done:  E(RHF) =  -984.526112548     A.U. after   15 cycles

  Exact polarizability:   0.000   0.000   0.000   0.000   0.000   0.000
 Approx polarizability: 125.068  -0.228 115.798   0.697   1.462 147.980

 SCF Done:  E(RHF) =  -984.536334731     A.U. after   13 cycles
 SCF Done:  E(RHF) =  -984.547334322     A.U. after   13 cycles
 SCF Done:  E(RHF) =  -984.549826858     A.U. after   13 cycles
 SCF Done:  E(RHF) =  -984.551934408     A.U. after   13 cycles
 SCF Done:  E(RHF) =  -984.552548627     A.U. after   16 cycles
 SCF Done:  E(RHF) =  -984.552322249     A.U. after   16 cycles
 SCF Done:  E(RHF) =  -984.553017014     A.U. after   16 cycles
 SCF Done:  E(RHF) =  -984.553128598     A.U. after   12 cycles
 SCF Done:  E(RHF) =  -984.553141999     A.U. after   12 cycles
 SCF Done:  E(RHF) =  -984.553190622     A.U. after   10 cycles
 SCF Done:  E(RHF) =  -984.553191770     A.U. after   10 cycles
 SCF Done:  E(RHF) =  -984.553191786     A.U. after    9 cycles
 SCF Done:  E(RHF) =  -984.553192566     A.U. after   10 cycles
 SCF Done:  E(RHF) =  -984.553193327     A.U. after   10 cycles
 SCF Done:  E(RHF) =  -984.553193670     A.U. after    8 cycles
 SCF Done:  E(RHF) =  -984.553193853     A.U. after    9 cycles
 SCF Done:  E(RHF) =  -984.553193887     A.U. after    7 cycles
 SCF Done:  E(RHF) =  -984.553193900     A.U. after    7 cycles
 SCF Done:  E(RHF) =  -984.553193909     A.U. after    7 cycles
 Optimization completed.
    -- Stationary point found.

                         Standard orientation:
 ---------------------------------------------------------------------
 Center     Atomic      Atomic             Coordinates (Angstroms)
 Number     Number       Type             X           Y           Z
 ---------------------------------------------------------------------
      1          1           0       -6.107160   -2.351301    1.083729
      2          6           0       -5.040502   -2.548238    1.082452
      3          1           0       -4.899258   -3.606252    0.906172
      4          1           0       -4.636263   -2.283969    2.051976
      5          6           0       -4.410163   -1.778645   -0.057893
      6          8           0       -4.548787   -2.121232   -1.203784
      7          7           0       -3.708903   -0.681606    0.291157
      8          1           0       -3.577383   -0.432335    1.245808
      9          6           0       -3.049909    0.151403   -0.683738
     10          1           0       -2.624672   -0.491143   -1.444854
     11          6           0       -4.018382    1.138655   -1.349632
     12          1           0       -4.447024    1.803139   -0.607349
     13          1           0       -3.517551    1.739979   -2.101451
     14          1           0       -4.815069    0.584991   -1.828377
     15          6           0       -1.935428    0.906195    0.041997
     16          8           0       -1.969179    1.073793    1.228408
     17          7           0       -0.970521    1.398287   -0.771828
     18          1           0       -1.003833    1.108724   -1.722366
     19          6           0        0.240287    2.109549   -0.362724
     20          1           0        0.780891    2.289728   -1.283827
     21          6           0       -0.071566    3.448816    0.297870
     22          1           0       -0.588269    3.295447    1.232725
     23          1           0        0.847803    3.988926    0.497184
     24          1           0       -0.688136    4.047259   -0.363640
     25          6           0        1.133137    1.253818    0.552791
     26          8           0        1.067102    1.290493    1.748632
     27          7           0        2.046707    0.505947   -0.102847
     28          1           0        2.088597    0.483746   -1.097097
     29          6           0        2.961180   -0.372211    0.585823
     30          1           0        3.343923    0.151778    1.452927
     31          6           0        2.288899   -1.673380    1.045160
     32          1           0        1.913911   -2.225462    0.190120
     33          1           0        2.985829   -2.306770    1.584203
     34          1           0        1.462531   -1.435860    1.701727
     35          6           0        4.102087   -0.678410   -0.380221
     36          8           0        3.954116   -0.592779   -1.572623
     37          7           0        5.250866   -1.088025    0.184064
     38          1           0        5.343188   -1.050529    1.172477
     39          6           0        6.410233   -1.434805   -0.612428
     40          1           0        6.130354   -2.128718   -1.392022
     41          1           0        6.851988   -0.559381   -1.073942
     42          1           0        7.143337   -1.902906    0.030242
 ---------------------------------------------------------------------

 The electronic state is 1-A.
 Alpha  occ. eigenvalues --  -20.53952 -20.53678 -20.52477 -20.51360 -15.60145
 Alpha  occ. eigenvalues --  -15.60079 -15.58553 -15.57765 -11.35895 -11.35749
 Alpha  occ. eigenvalues --  -11.34730 -11.34232 -11.29180 -11.28578 -11.28079
 Alpha  occ. eigenvalues --  -11.26899 -11.22691 -11.22674 -11.22343 -11.21438
 Alpha  occ. eigenvalues --   -1.40995  -1.40768  -1.39296  -1.38241  -1.25411
 Alpha  occ. eigenvalues --   -1.24847  -1.23904  -1.23384  -1.07323  -1.05079
 Alpha  occ. eigenvalues --   -1.02630  -0.98572  -0.96861  -0.91694  -0.89910
 Alpha  occ. eigenvalues --   -0.86628  -0.81911  -0.79898  -0.78946  -0.78433
 Alpha  occ. eigenvalues --   -0.74479  -0.72518  -0.68648  -0.67929  -0.66624
 Alpha  occ. eigenvalues --   -0.66008  -0.64829  -0.64219  -0.63724  -0.62674
 Alpha  occ. eigenvalues --   -0.61910  -0.61266  -0.60660  -0.59097  -0.58861
 Alpha  occ. eigenvalues --   -0.58110  -0.56778  -0.56633  -0.56368  -0.55299
 Alpha  occ. eigenvalues --   -0.54637  -0.54037  -0.53606  -0.53175  -0.52670
 Alpha  occ. eigenvalues --   -0.52065  -0.51875  -0.50675  -0.49362  -0.44359
 Alpha  occ. eigenvalues --   -0.43261  -0.42398  -0.41145  -0.40726  -0.39297
 Alpha  occ. eigenvalues --   -0.38650  -0.37903
 Alpha virt. eigenvalues --    0.17326   0.18608   0.19746   0.20677   0.21068
 Alpha virt. eigenvalues --    0.21624   0.24222   0.25097   0.25873   0.27557
 Alpha virt. eigenvalues --    0.27667   0.28703   0.29201   0.29712   0.30719

 Mulliken atomic charges:
              1
     1  H    0.202477
     2  C   -0.575618
     3  H    0.206843
     4  H    0.174695
     5  C    0.755522
     6  O   -0.624123
     7  N   -0.823375
     8  H    0.420942
     9  C   -0.033957
    10  H    0.212254
    11  C   -0.484459
    12  H    0.178811
    13  H    0.157082
    14  H    0.211599
    15  C    0.787053
    16  O   -0.604140
    17  N   -0.837959
    18  H    0.389818
    19  C   -0.036895
    20  H    0.192855
    21  C   -0.485279
    22  H    0.236446
    23  H    0.167013
    24  H    0.163836
    25  C    0.808545
    26  O   -0.602498
    27  N   -0.845338
    28  H    0.415286
    29  C   -0.029465
    30  H    0.213048
    31  C   -0.489965
    32  H    0.177664
    33  H    0.160056
    34  H    0.217307
    35  C    0.778146
    36  O   -0.634115
    37  N   -0.799463
    38  H    0.391186
    39  C   -0.272588
    40  H    0.202681
    41  H    0.185155
    42  H    0.172913
 Sum of Mulliken atomic charges =   0.00000

 Dipole moment (field-independent basis, Debye):
    X=              4.1394    Y=              0.1308    Z=              0.1730  Tot=              4.1451
 Quadrupole moment (field-independent basis, Debye-Ang):
   XX=           -100.9496   YY=           -119.9317   ZZ=           -129.1318
   XY=            -11.5039   XZ=              0.9442   YZ=            -17.8435

 Normal termination of Gaussian 09 at Tue Dec 27 15:51:18 2016.
