 Gaussian 09, Revision A.02,
 Gaussian 09:  EM64L-G09RevA.02 11-Jun-2009

 -------------------------------------------------------------------
 # HF/6-31G* Opt=(ModRedundant, maxcycles=1000, calcfc) geom=nocrowd
 -------------------------------------------------------------------

 ------------------
 Phi Psi fixed scan
 ------------------
 Symbolic Z-matrix:
 Charge =  0 Multiplicity = 1

 SCF Done:  E(RHF) =  -984.526040351     A.U. after   15 cycles

  Exact polarizability:   0.000   0.000   0.000   0.000   0.000   0.000
 Approx polarizability: 136.060   5.208 128.481 -11.322   3.523 124.621

 SCF Done:  E(RHF) =  -984.536729781     A.U. after   13 cycles
 SCF Done:  E(RHF) =  -984.550345102     A.U. after   14 cycles
 SCF Done:  E(RHF) =  -984.555362663     A.U. after   13 cycles
 SCF Done:  E(RHF) =  -984.557354804     A.U. after   13 cycles
 SCF Done:  E(RHF) =  -984.544299724     A.U. after   16 cycles
 SCF Done:  E(RHF) =  -984.558696597     A.U. after   15 cycles
 SCF Done:  E(RHF) =  -984.558789912     A.U. after   14 cycles
 SCF Done:  E(RHF) =  -984.559232889     A.U. after   16 cycles
 SCF Done:  E(RHF) =  -984.106478439     A.U. after   15 cycles
 SCF Done:  E(RHF) =  -984.565771216     A.U. after   13 cycles
 SCF Done:  E(RHF) =  -984.565941610     A.U. after   11 cycles
 SCF Done:  E(RHF) =  -984.566052008     A.U. after   12 cycles
 SCF Done:  E(RHF) =  -984.566082031     A.U. after   11 cycles
 SCF Done:  E(RHF) =  -984.566092914     A.U. after   11 cycles
 SCF Done:  E(RHF) =  -984.566096279     A.U. after   11 cycles
 SCF Done:  E(RHF) =  -984.566097818     A.U. after    9 cycles
 SCF Done:  E(RHF) =  -984.566098418     A.U. after    9 cycles
 SCF Done:  E(RHF) =  -984.566098543     A.U. after    8 cycles
 SCF Done:  E(RHF) =  -984.566098613     A.U. after    8 cycles
 Optimization completed.
    -- Stationary point found.

                         Standard orientation:
 ---------------------------------------------------------------------
 Center     Atomic      Atomic             Coordinates (Angstroms)
 Number     Number       Type             X           Y           Z
 ---------------------------------------------------------------------
      1          1           0       -0.188675   -3.363426   -2.433898
      2          6           0       -0.292779   -3.318775   -1.359694
      3          1           0        0.641553   -3.009970   -0.907112
      4          1           0       -0.542689   -4.307526   -0.987777
      5          6           0       -1.407029   -2.358073   -1.016889
      6          8           0       -2.184621   -1.946017   -1.842554
      7          7           0       -1.493262   -2.013524    0.289561
      8          1           0       -0.724959   -2.228873    0.887635
      9          6           0       -2.527878   -1.127328    0.804963
     10          1           0       -3.391194   -1.256114    0.168103
     11          6           0       -2.876894   -1.492619    2.240027
     12          1           0       -2.017525   -1.381561    2.889481
     13          1           0       -3.656554   -0.841993    2.616624
     14          1           0       -3.226155   -2.517925    2.282064
     15          6           0       -2.037265    0.322309    0.695262
     16          8           0       -1.631144    0.928161    1.651904
     17          7           0       -2.041712    0.818658   -0.561592
     18          1           0       -2.280711    0.173083   -1.285004
     19          6           0       -1.392870    2.054244   -0.976181
     20          1           0       -1.509730    2.091229   -2.052434
     21          6           0       -2.071154    3.294902   -0.386364
     22          1           0       -1.979563    3.307729    0.690978
     23          1           0       -1.617192    4.188375   -0.791592
     24          1           0       -3.124071    3.283389   -0.644330
     25          6           0        0.127867    2.139193   -0.772265
     26          8           0        0.708102    3.122682   -1.157362
     27          7           0        0.767785    1.088069   -0.231905
     28          1           0        0.260008    0.367365    0.220605
     29          6           0        2.181869    1.110067    0.044180
     30          1           0        2.682718    1.559564   -0.803072
     31          6           0        2.520517    1.907059    1.312367
     32          1           0        2.017035    1.477798    2.171201
     33          1           0        3.589480    1.911208    1.501296
     34          1           0        2.188621    2.928982    1.187919
     35          6           0        2.631211   -0.339450    0.203997
     36          8           0        1.873102   -1.201326    0.582206
     37          7           0        3.925382   -0.581047   -0.054648
     38          1           0        4.485611    0.148556   -0.429878
     39          6           0        4.506760   -1.898673    0.099253
     40          1           0        4.265648   -2.301656    1.072711
     41          1           0        4.142359   -2.583555   -0.657548
     42          1           0        5.580984   -1.814907    0.008621
 ---------------------------------------------------------------------

 The electronic state is 1-A.
 Alpha  occ. eigenvalues --  -20.54514 -20.53339 -20.53063 -20.51623 -15.60575
 Alpha  occ. eigenvalues --  -15.59298 -15.58219 -15.57785 -11.36353 -11.35710
 Alpha  occ. eigenvalues --  -11.34741 -11.34202 -11.28423 -11.28138 -11.27755
 Alpha  occ. eigenvalues --  -11.27413 -11.23012 -11.22321 -11.22186 -11.20549
 Alpha  occ. eigenvalues --   -1.41208  -1.40330  -1.39579  -1.38536  -1.25315
 Alpha  occ. eigenvalues --   -1.25030  -1.24126  -1.22774  -1.06551  -1.05011
 Alpha  occ. eigenvalues --   -1.02380  -0.99149  -0.97228  -0.90998  -0.89512
 Alpha  occ. eigenvalues --   -0.85993  -0.81584  -0.80241  -0.79021  -0.78595
 Alpha  occ. eigenvalues --   -0.73613  -0.72985  -0.69261  -0.67923  -0.67318
 Alpha  occ. eigenvalues --   -0.66732  -0.65099  -0.64035  -0.63353  -0.62297
 Alpha  occ. eigenvalues --   -0.61539  -0.60689  -0.60197  -0.59325  -0.58619
 Alpha  occ. eigenvalues --   -0.57468  -0.57153  -0.57039  -0.55963  -0.55212
 Alpha  occ. eigenvalues --   -0.54571  -0.53576  -0.53528  -0.52460  -0.51874
 Alpha  occ. eigenvalues --   -0.51820  -0.51616  -0.51273  -0.49037  -0.44213
 Alpha  occ. eigenvalues --   -0.43834  -0.43314  -0.42535  -0.41127  -0.39056
 Alpha  occ. eigenvalues --   -0.38502  -0.37384
 Alpha virt. eigenvalues --    0.17858   0.18060   0.20387   0.20554   0.20879
 Alpha virt. eigenvalues --    0.22803   0.24583   0.25568   0.26426   0.27407
 Alpha virt. eigenvalues --    0.28266   0.29250   0.30083   0.30378   0.30877

 Mulliken atomic charges:
              1
     1  H    0.208260
     2  C   -0.598770
     3  H    0.220169
     4  H    0.195368
     5  C    0.750028
     6  O   -0.635857
     7  N   -0.802861
     8  H    0.413166
     9  C   -0.065594
    10  H    0.230911
    11  C   -0.477417
    12  H    0.186895
    13  H    0.185130
    14  H    0.173928
    15  C    0.749627
    16  O   -0.620807
    17  N   -0.840727
    18  H    0.442127
    19  C   -0.024770
    20  H    0.216070
    21  C   -0.492520
    22  H    0.205768
    23  H    0.197608
    24  H    0.166761
    25  C    0.795349
    26  O   -0.639334
    27  N   -0.843680
    28  H    0.440226
    29  C   -0.041261
    30  H    0.214575
    31  C   -0.490095
    32  H    0.190072
    33  H    0.155942
    34  H    0.215251
    35  C    0.791121
    36  O   -0.656136
    37  N   -0.795732
    38  H    0.394524
    39  C   -0.273542
    40  H    0.200694
    41  H    0.183465
    42  H    0.176065
 Sum of Mulliken atomic charges =   0.00000

 Dipole moment (field-independent basis, Debye):
    X=              4.0324    Y=             -3.6435    Z=              0.4387  Tot=              5.4523
 Quadrupole moment (field-independent basis, Debye-Ang):
   XX=            -96.7580   YY=           -126.3133   ZZ=           -128.2082
   XY=             -5.4819   XZ=             -3.8911   YZ=             -1.7669

 Normal termination of Gaussian 09 at Tue Dec 27 15:53:34 2016.
