 Gaussian 09, Revision A.02,
 Gaussian 09:  EM64L-G09RevA.02 11-Jun-2009

 -------------------------------------------------------------------
 # HF/6-31G* Opt=(ModRedundant, maxcycles=1000, calcfc) geom=nocrowd
 -------------------------------------------------------------------

 ------------------
 Phi Psi fixed scan
 ------------------
 Symbolic Z-matrix:
 Charge =  0 Multiplicity = 1

 SCF Done:  E(RHF) =  -984.538344388     A.U. after   14 cycles

  Exact polarizability:   0.000   0.000   0.000   0.000   0.000   0.000
 Approx polarizability: 126.565   5.025 126.323  12.617   4.449 135.855

 SCF Done:  E(RHF) =  -984.547144182     A.U. after   13 cycles
 SCF Done:  E(RHF) =  -984.556579204     A.U. after   13 cycles
 SCF Done:  E(RHF) =  -984.558721502     A.U. after   13 cycles
 SCF Done:  E(RHF) =  -984.560825071     A.U. after   13 cycles
 SCF Done:  E(RHF) =  -984.561636134     A.U. after   13 cycles
 SCF Done:  E(RHF) =  -984.475142952     A.U. after   16 cycles
 SCF Done:  E(RHF) =  -984.561331436     A.U. after   15 cycles
 SCF Done:  E(RHF) =  -984.561642987     A.U. after   13 cycles
 SCF Done:  E(RHF) =  -984.561808761     A.U. after   13 cycles
 SCF Done:  E(RHF) =  -984.562187084     A.U. after   11 cycles
 SCF Done:  E(RHF) =  -984.562197641     A.U. after   11 cycles
 SCF Done:  E(RHF) =  -984.562196498     A.U. after   11 cycles
 SCF Done:  E(RHF) =  -984.562201374     A.U. after   10 cycles
 SCF Done:  E(RHF) =  -984.562199916     A.U. after   11 cycles
 SCF Done:  E(RHF) =  -984.562204033     A.U. after   10 cycles
 SCF Done:  E(RHF) =  -984.562204810     A.U. after    9 cycles
 SCF Done:  E(RHF) =  -984.562204924     A.U. after   10 cycles
 SCF Done:  E(RHF) =  -984.562204988     A.U. after    8 cycles
 SCF Done:  E(RHF) =  -984.562204993     A.U. after    6 cycles
 Optimization completed.
    -- Stationary point found.

                         Standard orientation:
 ---------------------------------------------------------------------
 Center     Atomic      Atomic             Coordinates (Angstroms)
 Number     Number       Type             X           Y           Z
 ---------------------------------------------------------------------
      1          1           0       -4.624085   -3.615717    1.197155
      2          6           0       -3.666935   -3.116218    1.256505
      3          1           0       -2.890395   -3.857519    1.099067
      4          1           0       -3.539755   -2.686817    2.243039
      5          6           0       -3.583827   -2.088504    0.149342
      6          8           0       -4.045310   -2.292113   -0.942948
      7          7           0       -2.936074   -0.945635    0.459470
      8          1           0       -2.541587   -0.803588    1.362036
      9          6           0       -2.702151    0.089062   -0.516407
     10          1           0       -2.453757   -0.381319   -1.459789
     11          6           0       -3.932384    0.986230   -0.714757
     12          1           0       -4.191341    1.481611    0.214568
     13          1           0       -3.754691    1.743825   -1.471727
     14          1           0       -4.766426    0.375344   -1.032507
     15          6           0       -1.520139    0.921084   -0.029796
     16          8           0       -1.209727    0.960603    1.131398
     17          7           0       -0.868248    1.619847   -0.985922
     18          1           0       -1.203205    1.560956   -1.920306
     19          6           0        0.165461    2.607988   -0.700847
     20          1           0        0.557000    2.900394   -1.670099
     21          6           0       -0.383885    3.850491   -0.002272
     22          1           0       -0.776044    3.598111    0.973399
     23          1           0        0.399702    4.583728    0.123186
     24          1           0       -1.179322    4.281364   -0.601544
     25          6           0        1.374450    2.033844    0.050125
     26          8           0        2.063768    2.751422    0.725673
     27          7           0        1.664311    0.743542   -0.180680
     28          1           0        1.039755    0.164031   -0.693110
     29          6           0        2.762410    0.076618    0.474657
     30          1           0        3.619851    0.737252    0.455107
     31          6           0        2.438533   -0.284972    1.931022
     32          1           0        1.583573   -0.950180    1.970058
     33          1           0        3.281780   -0.772706    2.409867
     34          1           0        2.202013    0.616477    2.479674
     35          6           0        3.060331   -1.188150   -0.324254
     36          8           0        2.208579   -1.732474   -0.978793
     37          7           0        4.309344   -1.672514   -0.206822
     38          1           0        4.992790   -1.133533    0.271782
     39          6           0        4.724305   -2.882607   -0.885809
     40          1           0        4.795653   -2.733653   -1.956994
     41          1           0        5.692838   -3.177831   -0.505509
     42          1           0        4.014820   -3.675614   -0.697384
 ---------------------------------------------------------------------

 The electronic state is 1-A.
 Alpha  occ. eigenvalues --  -20.54601 -20.53398 -20.52080 -20.51652 -15.60646
 Alpha  occ. eigenvalues --  -15.59639 -15.58071 -15.57722 -11.36476 -11.35343
 Alpha  occ. eigenvalues --  -11.34623 -11.34463 -11.29055 -11.28549 -11.28011
 Alpha  occ. eigenvalues --  -11.26559 -11.22836 -11.22757 -11.21931 -11.21494
 Alpha  occ. eigenvalues --   -1.41634  -1.40382  -1.38947  -1.38549  -1.26066
 Alpha  occ. eigenvalues --   -1.24380  -1.23767  -1.23276  -1.07273  -1.04766
 Alpha  occ. eigenvalues --   -1.02759  -0.98823  -0.96429  -0.91685  -0.89840
 Alpha  occ. eigenvalues --   -0.86765  -0.82091  -0.79858  -0.78878  -0.78526
 Alpha  occ. eigenvalues --   -0.74581  -0.72757  -0.68915  -0.67278  -0.66897
 Alpha  occ. eigenvalues --   -0.66268  -0.64334  -0.64244  -0.63473  -0.63170
 Alpha  occ. eigenvalues --   -0.61688  -0.61203  -0.60088  -0.59260  -0.58673
 Alpha  occ. eigenvalues --   -0.58287  -0.56967  -0.56295  -0.56257  -0.55349
 Alpha  occ. eigenvalues --   -0.54962  -0.54480  -0.53298  -0.53191  -0.52729
 Alpha  occ. eigenvalues --   -0.52026  -0.51899  -0.50000  -0.49592  -0.43887
 Alpha  occ. eigenvalues --   -0.43289  -0.42756  -0.41414  -0.40225  -0.39801
 Alpha  occ. eigenvalues --   -0.38553  -0.38143
 Alpha virt. eigenvalues --    0.17864   0.18356   0.19297   0.21068   0.21145
 Alpha virt. eigenvalues --    0.22340   0.23874   0.25954   0.26615   0.27238
 Alpha virt. eigenvalues --    0.27946   0.28489   0.29317   0.30012   0.30492

 Mulliken atomic charges:
              1
     1  H    0.208542
     2  C   -0.577040
     3  H    0.205191
     4  H    0.173556
     5  C    0.756591
     6  O   -0.620451
     7  N   -0.822792
     8  H    0.418624
     9  C   -0.031464
    10  H    0.220275
    11  C   -0.487764
    12  H    0.180151
    13  H    0.154337
    14  H    0.216800
    15  C    0.783211
    16  O   -0.625564
    17  N   -0.844947
    18  H    0.397060
    19  C   -0.038348
    20  H    0.210156
    21  C   -0.478625
    22  H    0.205663
    23  H    0.200736
    24  H    0.154401
    25  C    0.816159
    26  O   -0.636801
    27  N   -0.828065
    28  H    0.424148
    29  C   -0.034797
    30  H    0.209192
    31  C   -0.483968
    32  H    0.182612
    33  H    0.154831
    34  H    0.216728
    35  C    0.778901
    36  O   -0.632569
    37  N   -0.800305
    38  H    0.390069
    39  C   -0.271832
    40  H    0.184111
    41  H    0.171260
    42  H    0.202026
 Sum of Mulliken atomic charges =   0.00000

 Dipole moment (field-independent basis, Debye):
    X=              2.8417    Y=             -0.0810    Z=             -0.3316  Tot=              2.8621
 Quadrupole moment (field-independent basis, Debye-Ang):
   XX=           -106.6574   YY=           -125.7129   ZZ=           -119.8149
   XY=            -20.0541   XZ=             -7.0446   YZ=            -19.5147

 Normal termination of Gaussian 09 at Tue Dec 27 17:23:50 2016.
