 Gaussian 09, Revision A.02,
 Gaussian 09:  EM64L-G09RevA.02 11-Jun-2009

 ----------------------------------------------------------------------
 #MP2/cc-pvTZ density=MP2, maxdisk=16GB, pop=(minimal, MK), 5d, punch=m
 o
 ----------------------------------------------------------------------

 -----------------
 Generated by mdgx
 -----------------
 Symbolic Z-matrix:
 Charge =  0 Multiplicity = 1

                         Standard orientation:
 ---------------------------------------------------------------------
 Center     Atomic      Atomic             Coordinates (Angstroms)
 Number     Number       Type             X           Y           Z
 ---------------------------------------------------------------------
      1          1           0       -2.921600   -2.122316    0.518559
      2          6           0       -2.978331   -1.196251   -0.053530
      3          1           0       -3.777224   -0.608427    0.398503
      4          1           0       -3.173977   -1.348240   -1.115001
      5          6           0       -1.672985   -0.402240    0.226249
      6          8           0       -1.021728   -0.656278    1.210194
      7          7           0       -1.191347    0.431720   -0.741804
      8          1           0       -1.712761    0.564060   -1.596622
      9          6           0        0.097836    1.175243   -0.637767
     10          1           0        0.349020    1.556115   -1.627688
     11          6           0       -0.146285    2.451354    0.209593
     12          1           0       -0.411670    2.298343    1.255661
     13          1           0        0.705460    3.131135    0.232571
     14          1           0       -0.969746    3.017083   -0.226254
     15          6           0        1.218035    0.320087   -0.134213
     16          8           0        2.053340    0.810767    0.706674
     17          7           0        1.342077   -0.970379   -0.573331
     18          1           0        0.776031   -1.186048   -1.381526
     19          6           0        2.445832   -1.816976   -0.080448
     20          1           0        2.312508   -2.890543   -0.213785
     21          1           0        3.353431   -1.430900   -0.544462
     22          1           0        2.377905   -1.632862    0.991741
 ---------------------------------------------------------------------

 SCF Done:  E(RHF) =  -493.000784904     A.U. after   15 cycles
 E2 =    -0.1892397249D+01 EUMP2 =    -0.49489318215310D+03

 The electronic state is 1-A.
 Alpha  occ. eigenvalues --  -20.51632 -20.49952 -15.59545 -15.57801 -11.35439
 Alpha  occ. eigenvalues --  -11.34663 -11.29796 -11.25428 -11.24556 -11.21577
 Alpha  occ. eigenvalues --   -1.39197  -1.33381  -1.23595  -1.20580  -1.04789
 Alpha  occ. eigenvalues --   -0.98887  -0.95195  -0.87848  -0.80915  -0.75949
 Alpha  occ. eigenvalues --   -0.71006  -0.69370  -0.64762  -0.63261  -0.62269
 Alpha  occ. eigenvalues --   -0.61050  -0.59020  -0.58074  -0.57596  -0.55169
 Alpha  occ. eigenvalues --   -0.53125  -0.52479  -0.51763  -0.51039  -0.48598
 Alpha  occ. eigenvalues --   -0.42027  -0.41914  -0.39689  -0.37709
 Alpha virt. eigenvalues --    0.10459   0.14522   0.15050   0.16376   0.17938
 Alpha virt. eigenvalues --    0.18736   0.19119   0.19776   0.20845   0.22223
 Alpha virt. eigenvalues --    0.22684   0.23537   0.24705   0.25343   0.27912

 Mulliken atomic charges:
              1
     1  H    0.151167
     2  C   -0.379038
     3  H    0.138101
     4  H    0.110525
     5  C    0.162836
     6  O   -0.289101
     7  N   -0.211003
     8  H    0.188217
     9  C   -0.049480
    10  H    0.161152
    11  C   -0.370803
    12  H    0.150609
    13  H    0.141341
    14  H    0.106726
    15  C    0.178465
    16  O   -0.346545
    17  N   -0.145416
    18  H    0.164647
    19  C   -0.258440
    20  H    0.125554
    21  H    0.122838
    22  H    0.147650
 Sum of Mulliken atomic charges =   0.00000

 Dipole moment (field-independent basis, Debye):
    X=             -2.7414    Y=             -1.1204    Z=             -5.0584  Tot=              5.8615
 Quadrupole moment (field-independent basis, Debye-Ang):
   XX=            -60.0833   YY=            -57.1459   ZZ=            -60.7990
   XY=             -5.3854   XZ=             -0.4225   YZ=             -0.2881

 Normal termination of Gaussian 09 at Sun Mar 19 23:12:59 2017.
