 Gaussian 09, Revision A.02,
 Gaussian 09:  EM64L-G09RevA.02 11-Jun-2009

 -------------------
 #SP MP2/aug-cc-pVDZ
 -------------------

 -------------------------------
 Single Point calculation at MP2
 -------------------------------
 Symbolic Z-matrix:
 Charge =  0 Multiplicity = 1

                         Standard orientation:
 ---------------------------------------------------------------------
 Center     Atomic      Atomic             Coordinates (Angstroms)
 Number     Number       Type             X           Y           Z
 ---------------------------------------------------------------------
      1          1           0        3.918987   -1.339813   -0.691999
      2          6           0        3.035287   -1.537011   -0.079299
      3          1           0        3.385886   -1.852712    0.909301
      4          1           0        2.463385   -2.355609   -0.527899
      5          6           0        2.243990   -0.245309    0.068401
      6          8           0        2.773293    0.812790    0.382901
      7          7           0        0.898490   -0.344805   -0.181399
      8          1           0        0.493088   -1.265704   -0.277199
      9          6           0       -0.008607    0.768897    0.128101
     10          1           0        0.352794    1.253796    1.038201
     11          6           0       -0.040904    1.811698   -1.000399
     12          1           0       -0.357305    1.374298   -1.954899
     13          1           0       -0.725202    2.629299   -0.748199
     14          1           0        0.962997    2.223695   -1.130199
     15          6           0       -1.397208    0.210201    0.476201
     16          8           0       -1.915608    0.383803    1.569101
     17          7           0       -1.989610   -0.521097   -0.524299
     18          1           0       -1.598610   -0.454298   -1.454399
     19          6           0       -3.342212   -1.040894   -0.392699
     20          1           0       -3.542712   -1.183893    0.669701
     21          1           0       -4.091110   -0.346992   -0.796299
     22          1           0       -3.427914   -1.998993   -0.914099
 ---------------------------------------------------------------------

 SCF Done:  E(RHF) =  -492.919617482     A.U. after   14 cycles
 E2 =    -0.1601426730D+01 EUMP2 =    -0.49452104421262D+03

 The electronic state is 1-A.
 Alpha  occ. eigenvalues --  -20.54245 -20.53437 -15.60562 -15.60403 -11.36837
 Alpha  occ. eigenvalues --  -11.36751 -11.29318 -11.27666 -11.25200 -11.23924
 Alpha  occ. eigenvalues --   -1.39601  -1.38771  -1.25252  -1.23157  -1.05893
 Alpha  occ. eigenvalues --   -0.99629  -0.96322  -0.88778  -0.79933  -0.79405
 Alpha  occ. eigenvalues --   -0.73406  -0.67872  -0.66567  -0.64254  -0.63200
 Alpha  occ. eigenvalues --   -0.62298  -0.59593  -0.59311  -0.57668  -0.57033
 Alpha  occ. eigenvalues --   -0.55751  -0.54757  -0.53161  -0.52144  -0.49770
 Alpha  occ. eigenvalues --   -0.44217  -0.42596  -0.40322  -0.39868
 Alpha virt. eigenvalues --    0.02213   0.03660   0.04196   0.04772   0.05615
 Alpha virt. eigenvalues --    0.05972   0.06214   0.06689   0.07446   0.08082
 Alpha virt. eigenvalues --    0.08264   0.09466   0.11128   0.12146   0.12356

 Mulliken atomic charges:
              1
     1  H    0.031839
     2  C    0.389115
     3  H    0.057854
     4  H   -0.159320
     5  C    0.532459
     6  O   -0.854206
     7  N   -0.155277
     8  H   -0.063661
     9  C   -0.008267
    10  H   -0.148367
    11  C    0.776138
    12  H   -0.122088
    13  H   -0.031079
    14  H   -0.065338
    15  C    0.874899
    16  O   -0.811224
    17  N   -0.556433
    18  H   -0.082317
    19  C    0.738640
    20  H   -0.115249
    21  H   -0.079199
    22  H   -0.148922
 Sum of Mulliken atomic charges =   0.00000

 Dipole moment (field-independent basis, Debye):
    X=             -1.4527    Y=             -3.6762    Z=             -4.3647  Tot=              5.8885
 Quadrupole moment (field-independent basis, Debye-Ang):
   XX=            -66.1387   YY=            -58.1820   ZZ=            -65.1545
   XY=             -5.4877   XZ=              5.5281   YZ=             -1.6893

 Normal termination of Gaussian 09 at Mon Feb 13 04:58:34 2017.
