 Gaussian 09, Revision A.02,
 Gaussian 09:  EM64L-G09RevA.02 11-Jun-2009

 -------------------
 #SP MP2/aug-cc-pVDZ
 -------------------

 -------------------------------
 Single Point calculation at MP2
 -------------------------------
 Symbolic Z-matrix:
 Charge =  0 Multiplicity = 1

                         Standard orientation:
 ---------------------------------------------------------------------
 Center     Atomic      Atomic             Coordinates (Angstroms)
 Number     Number       Type             X           Y           Z
 ---------------------------------------------------------------------
      1          1           0       -4.206309   -0.678899    0.536892
      2          6           0       -3.350409   -1.142799    0.037192
      3          1           0       -3.709209   -1.546699   -0.914908
      4          1           0       -2.978609   -1.964699    0.656592
      5          6           0       -2.307409   -0.071999   -0.246208
      6          8           0       -2.565209    0.932001   -0.904408
      7          7           0       -1.074209   -0.295599    0.291892
      8          1           0       -0.827809   -1.183899    0.713692
      9          6           0        0.050891    0.569501   -0.003308
     10          1           0       -0.076709    0.951601   -1.024108
     11          6           0        0.119391    1.770501    0.960192
     12          1           0        0.247391    1.427601    1.992192
     13          1           0        0.950591    2.440101    0.710892
     14          1           0       -0.813809    2.334701    0.885692
     15          6           0        1.320291   -0.294899    0.078092
     16          8           0        1.315691   -1.392399    0.631192
     17          7           0        2.431191    0.261701   -0.474608
     18          1           0        2.338891    1.151201   -0.944508
     19          6           0        3.732491   -0.385099   -0.459508
     20          1           0        3.626991   -1.318699    0.094092
     21          1           0        4.075091   -0.608899   -1.476508
     22          1           0        4.479291    0.245801    0.035992
 ---------------------------------------------------------------------

 SCF Done:  E(RHF) =  -492.928933387     A.U. after   14 cycles
 E2 =    -0.1600207388D+01 EUMP2 =    -0.49452914077511D+03

 The electronic state is 1-A.
 Alpha  occ. eigenvalues --  -20.54415 -20.52394 -15.60729 -15.58793 -11.37168
 Alpha  occ. eigenvalues --  -11.35789 -11.29367 -11.27711 -11.24203 -11.23826
 Alpha  occ. eigenvalues --   -1.39887  -1.37720  -1.24536  -1.23427  -1.05561
 Alpha  occ. eigenvalues --   -0.99031  -0.96321  -0.88478  -0.80616  -0.78396
 Alpha  occ. eigenvalues --   -0.73085  -0.67585  -0.65899  -0.64441  -0.63320
 Alpha  occ. eigenvalues --   -0.61711  -0.60041  -0.58739  -0.56911  -0.56387
 Alpha  occ. eigenvalues --   -0.55643  -0.54324  -0.52958  -0.52380  -0.49234
 Alpha  occ. eigenvalues --   -0.43731  -0.42002  -0.40741  -0.38800
 Alpha virt. eigenvalues --    0.02821   0.03954   0.04329   0.04463   0.05717
 Alpha virt. eigenvalues --    0.06129   0.06386   0.07068   0.07258   0.08061
 Alpha virt. eigenvalues --    0.09140   0.09370   0.10953   0.12080   0.13026

 Mulliken atomic charges:
              1
     1  H    0.042978
     2  C    0.369796
     3  H    0.048317
     4  H   -0.150789
     5  C    0.514262
     6  O   -0.868668
     7  N   -0.266420
     8  H   -0.079095
     9  C   -0.207630
    10  H   -0.099550
    11  C    0.779291
    12  H   -0.032157
    13  H   -0.080956
    14  H   -0.058755
    15  C    1.224356
    16  O   -0.893221
    17  N   -0.501647
    18  H   -0.113023
    19  C    0.702494
    20  H   -0.144130
    21  H   -0.085771
    22  H   -0.099683
 Sum of Mulliken atomic charges =   0.00000

 Dipole moment (field-independent basis, Debye):
    X=              2.7963    Y=              0.2842    Z=              0.0870  Tot=              2.8121
 Quadrupole moment (field-independent basis, Debye-Ang):
   XX=            -56.0439   YY=            -63.6436   ZZ=            -62.8935
   XY=             12.8771   XZ=             -9.0923   YZ=              2.9499

 Normal termination of Gaussian 09 at Mon Feb 13 05:10:36 2017.
