 Gaussian 09, Revision A.02,
 Gaussian 09:  EM64L-G09RevA.02 11-Jun-2009

 -------------------
 #SP MP2/aug-cc-pVDZ
 -------------------

 -------------------------------
 Single Point calculation at MP2
 -------------------------------
 Symbolic Z-matrix:
 Charge =  0 Multiplicity = 1

                         Standard orientation:
 ---------------------------------------------------------------------
 Center     Atomic      Atomic             Coordinates (Angstroms)
 Number     Number       Type             X           Y           Z
 ---------------------------------------------------------------------
      1          1           0       -3.583722   -1.935201    0.395688
      2          6           0       -3.175920   -1.023702    0.841288
      3          1           0       -2.748520   -1.261703    1.820288
      4          1           0       -4.009519   -0.326700    0.979988
      5          6           0       -2.177219   -0.410504   -0.129312
      6          8           0       -2.438718   -0.244403   -1.315212
      7          7           0       -0.966118   -0.070806    0.412188
      8          1           0       -0.835418   -0.103406    1.415088
      9          6           0        0.040983    0.667092   -0.347512
     10          1           0       -0.094417    0.365192   -1.390112
     11          6           0       -0.128414    2.185493   -0.228312
     12          1           0        0.017887    2.500492    0.808888
     13          1           0        0.608887    2.706891   -0.849912
     14          1           0       -1.129413    2.472694   -0.562412
     15          6           0        1.407982    0.222490    0.195188
     16          8           0        1.789983    0.583289    1.304988
     17          7           0        2.108181   -0.626012   -0.606612
     18          1           0        1.698780   -0.899411   -1.488412
     19          6           0        3.387180   -1.197814   -0.222512
     20          1           0        3.668481   -0.753015    0.732888
     21          1           0        3.317078   -2.285814   -0.104212
     22          1           0        4.157780   -0.971716   -0.968012
 ---------------------------------------------------------------------

 SCF Done:  E(RHF) =  -492.926374314     A.U. after   14 cycles
 E2 =    -0.1600439407D+01 EUMP2 =    -0.49452681372080D+03

 The electronic state is 1-A.
 Alpha  occ. eigenvalues --  -20.53704 -20.53190 -15.60484 -15.59999 -11.36612
 Alpha  occ. eigenvalues --  -11.36575 -11.29226 -11.27364 -11.24927 -11.23019
 Alpha  occ. eigenvalues --   -1.39259  -1.38437  -1.24485  -1.23620  -1.05515
 Alpha  occ. eigenvalues --   -0.99301  -0.96529  -0.87875  -0.80035  -0.79371
 Alpha  occ. eigenvalues --   -0.73122  -0.67471  -0.65900  -0.64586  -0.62714
 Alpha  occ. eigenvalues --   -0.62021  -0.60331  -0.58700  -0.57608  -0.56625
 Alpha  occ. eigenvalues --   -0.55254  -0.53732  -0.52496  -0.51757  -0.50230
 Alpha  occ. eigenvalues --   -0.43552  -0.42732  -0.40032  -0.39338
 Alpha virt. eigenvalues --    0.02942   0.03644   0.04430   0.04777   0.05650
 Alpha virt. eigenvalues --    0.05860   0.06231   0.07128   0.07338   0.07834
 Alpha virt. eigenvalues --    0.08981   0.09507   0.11592   0.11853   0.12310

 Mulliken atomic charges:
              1
     1  H    0.038762
     2  C    0.386713
     3  H   -0.139037
     4  H    0.050359
     5  C    0.593437
     6  O   -0.858028
     7  N   -0.207174
     8  H   -0.098417
     9  C   -0.250946
    10  H   -0.256407
    11  C    0.826451
    12  H   -0.001958
    13  H   -0.042153
    14  H   -0.054309
    15  C    1.106970
    16  O   -0.860115
    17  N   -0.505146
    18  H   -0.107650
    19  C    0.720230
    20  H   -0.144736
    21  H   -0.093437
    22  H   -0.103405
 Sum of Mulliken atomic charges =   0.00000

 Dipole moment (field-independent basis, Debye):
    X=              0.9041    Y=             -1.6464    Z=              0.2131  Tot=              1.8903
 Quadrupole moment (field-independent basis, Debye-Ang):
   XX=            -60.8578   YY=            -58.8294   ZZ=            -65.3887
   XY=             -3.6315   XZ=            -16.2209   YZ=             -2.1553

 Normal termination of Gaussian 09 at Mon Feb 13 04:04:48 2017.
