 Gaussian 09, Revision A.02,
 Gaussian 09:  EM64L-G09RevA.02 11-Jun-2009

 -------------------
 #SP MP2/aug-cc-pVDZ
 -------------------

 -------------------------------
 Single Point calculation at MP2
 -------------------------------
 Symbolic Z-matrix:
 Charge =  0 Multiplicity = 1

                         Standard orientation:
 ---------------------------------------------------------------------
 Center     Atomic      Atomic             Coordinates (Angstroms)
 Number     Number       Type             X           Y           Z
 ---------------------------------------------------------------------
      1          1           0        3.741388   -1.757541    0.132905
      2          6           0        3.115692   -1.209637   -0.575395
      3          1           0        2.608487   -1.918933   -1.237295
      4          1           0        3.777296   -0.579441   -1.181095
      5          6           0        2.158098   -0.320930    0.204005
      6          8           0        2.495702    0.274868    1.215105
      7          7           0        0.872298   -0.254121   -0.304195
      8          1           0        0.761996   -0.548421   -1.268695
      9          6           0       -0.047895    0.796385    0.142405
     10          1           0        0.203607    0.967883    1.194805
     11          6           0        0.135914    2.110884   -0.625095
     12          1           0       -0.023987    1.963985   -1.700395
     13          1           0       -0.590781    2.846789   -0.275095
     14          1           0        1.148017    2.495077   -0.467695
     15          6           0       -1.518898    0.339795    0.098805
     16          8           0       -2.430592    1.155901    0.160605
     17          7           0       -1.716107   -1.005204   -0.023395
     18          1           0       -0.902511   -1.595909    0.083705
     19          6           0       -3.039811   -1.597595    0.054505
     20          1           0       -3.767006   -0.809690   -0.146795
     21          1           0       -3.146116   -2.392294   -0.691295
     22          1           0       -3.243214   -2.015793    1.049005
 ---------------------------------------------------------------------

 SCF Done:  E(RHF) =  -492.924350524     A.U. after   14 cycles
 E2 =    -0.1601512324D+01 EUMP2 =    -0.49452586284785D+03

 The electronic state is 1-A.
 Alpha  occ. eigenvalues --  -20.54479 -20.53125 -15.60850 -15.59754 -11.37550
 Alpha  occ. eigenvalues --  -11.36176 -11.29219 -11.27043 -11.25861 -11.23053
 Alpha  occ. eigenvalues --   -1.39873  -1.38556  -1.25547  -1.22757  -1.05637
 Alpha  occ. eigenvalues --   -0.99865  -0.96337  -0.87705  -0.80435  -0.78681
 Alpha  occ. eigenvalues --   -0.73445  -0.68240  -0.66087  -0.64214  -0.62641
 Alpha  occ. eigenvalues --   -0.62463  -0.59940  -0.59419  -0.58323  -0.56414
 Alpha  occ. eigenvalues --   -0.55024  -0.54087  -0.52585  -0.52082  -0.49990
 Alpha  occ. eigenvalues --   -0.43804  -0.43645  -0.40313  -0.39485
 Alpha virt. eigenvalues --    0.02247   0.03704   0.04191   0.04678   0.05604
 Alpha virt. eigenvalues --    0.06044   0.06390   0.06599   0.07188   0.08212
 Alpha virt. eigenvalues --    0.08383   0.09161   0.11162   0.12297   0.12759

 Mulliken atomic charges:
              1
     1  H    0.017730
     2  C    0.336039
     3  H   -0.121210
     4  H    0.050012
     5  C    0.605778
     6  O   -0.833374
     7  N   -0.299893
     8  H   -0.078533
     9  C   -0.363466
    10  H   -0.014351
    11  C    0.802685
    12  H   -0.051285
    13  H   -0.027460
    14  H   -0.073018
    15  C    1.114365
    16  O   -0.848620
    17  N   -0.549061
    18  H   -0.066606
    19  C    0.738642
    20  H   -0.134311
    21  H   -0.130912
    22  H   -0.073149
 Sum of Mulliken atomic charges =   0.00000

 Dipole moment (field-independent basis, Debye):
    X=              1.2312    Y=             -4.1488    Z=             -3.2865  Tot=              5.4341
 Quadrupole moment (field-independent basis, Debye-Ang):
   XX=            -68.9961   YY=            -58.8788   ZZ=            -62.7024
   XY=              3.9425   XZ=             -7.8110   YZ=             -0.7031

 Normal termination of Gaussian 09 at Mon Feb 13 04:56:50 2017.
