 Gaussian 09, Revision A.02,
 Gaussian 09:  EM64L-G09RevA.02 11-Jun-2009

 -------------------
 #SP MP2/aug-cc-pVDZ
 -------------------

 -------------------------------
 Single Point calculation at MP2
 -------------------------------
 Symbolic Z-matrix:
 Charge =  0 Multiplicity = 1

                         Standard orientation:
 ---------------------------------------------------------------------
 Center     Atomic      Atomic             Coordinates (Angstroms)
 Number     Number       Type             X           Y           Z
 ---------------------------------------------------------------------
      1          1           0        3.996596   -0.865705   -1.115800
      2          6           0        3.131495   -1.312802   -0.618900
      3          1           0        3.508493   -1.940603    0.195600
      4          1           0        2.595893   -1.947900   -1.331900
      5          6           0        2.277898   -0.201399   -0.025900
      6          8           0        2.757701    0.705999    0.642600
      7          7           0        0.935798   -0.285295   -0.285200
      8          1           0        0.576995   -1.092394   -0.774800
      9          6           0       -0.017799    0.638708    0.336800
     10          1           0        0.333301    0.822007    1.355900
     11          6           0       -0.071595    1.980808   -0.407000
     12          1           0       -0.303896    1.855109   -1.472300
     13          1           0       -0.812793    2.651410    0.042400
     14          1           0        0.910406    2.456005   -0.340500
     15          6           0       -1.360502   -0.102588    0.493200
     16          8           0       -1.592304   -0.792587    1.477000
     17          7           0       -2.223001    0.006114   -0.563100
     18          1           0       -2.016099    0.680014   -1.285500
     19          6           0       -3.539703   -0.609981   -0.554900
     20          1           0       -3.553805   -1.344281    0.251400
     21          1           0       -4.331901    0.127621   -0.373900
     22          1           0       -3.734705   -1.110781   -1.509100
 ---------------------------------------------------------------------

 SCF Done:  E(RHF) =  -492.918654071     A.U. after   14 cycles
 E2 =    -0.1601913992D+01 EUMP2 =    -0.49452056806312D+03

 The electronic state is 1-A.
 Alpha  occ. eigenvalues --  -20.53815 -20.53091 -15.60557 -15.60211 -11.36737
 Alpha  occ. eigenvalues --  -11.36496 -11.29384 -11.27553 -11.24934 -11.24085
 Alpha  occ. eigenvalues --   -1.39339  -1.38442  -1.24749  -1.23433  -1.05820
 Alpha  occ. eigenvalues --   -0.99498  -0.96122  -0.89146  -0.79768  -0.79585
 Alpha  occ. eigenvalues --   -0.73217  -0.67544  -0.66391  -0.64866  -0.62786
 Alpha  occ. eigenvalues --   -0.62178  -0.59390  -0.58731  -0.57507  -0.56715
 Alpha  occ. eigenvalues --   -0.55722  -0.54751  -0.53605  -0.52236  -0.49684
 Alpha  occ. eigenvalues --   -0.43678  -0.42317  -0.40349  -0.39387
 Alpha virt. eigenvalues --    0.02384   0.03594   0.04216   0.04687   0.05676
 Alpha virt. eigenvalues --    0.05858   0.06188   0.06788   0.07589   0.07902
 Alpha virt. eigenvalues --    0.08288   0.09615   0.11580   0.12073   0.12371

 Mulliken atomic charges:
              1
     1  H    0.035327
     2  C    0.371550
     3  H    0.063193
     4  H   -0.149360
     5  C    0.528938
     6  O   -0.854331
     7  N   -0.325673
     8  H   -0.082098
     9  C    0.104666
    10  H   -0.099427
    11  C    0.722149
    12  H   -0.017194
    13  H   -0.061022
    14  H   -0.112477
    15  C    1.012747
    16  O   -0.867430
    17  N   -0.562424
    18  H   -0.097008
    19  C    0.742279
    20  H   -0.141404
    21  H   -0.084240
    22  H   -0.126759
 Sum of Mulliken atomic charges =   0.00000

 Dipole moment (field-independent basis, Debye):
    X=             -2.2057    Y=             -0.5595    Z=             -5.1459  Tot=              5.6266
 Quadrupole moment (field-independent basis, Debye-Ang):
   XX=            -61.8848   YY=            -59.6015   ZZ=            -65.1683
   XY=            -10.0604   XZ=              1.2909   YZ=              2.4946

 Normal termination of Gaussian 09 at Mon Feb 13 04:55:33 2017.
