 Gaussian 09, Revision A.02,
 Gaussian 09:  EM64L-G09RevA.02 11-Jun-2009

 -------------------
 #SP MP2/aug-cc-pVDZ
 -------------------

 -------------------------------
 Single Point calculation at MP2
 -------------------------------
 Symbolic Z-matrix:
 Charge =  0 Multiplicity = 1

                         Standard orientation:
 ---------------------------------------------------------------------
 Center     Atomic      Atomic             Coordinates (Angstroms)
 Number     Number       Type             X           Y           Z
 ---------------------------------------------------------------------
      1          1           0       -3.924007   -1.521311   -0.504591
      2          6           0       -3.172507   -1.314508    0.260509
      3          1           0       -2.656904   -2.243306    0.524909
      4          1           0       -3.696809   -0.941410    1.148509
      5          6           0       -2.232312   -0.236404   -0.258191
      6          8           0       -2.615816    0.680594   -0.965591
      7          7           0       -0.903911   -0.391499    0.115609
      8          1           0       -0.783709   -0.951698    0.954209
      9          6           0        0.018084    0.744305   -0.005191
     10          1           0       -0.313218    1.297704   -0.885591
     11          6           0       -0.029020    1.679405    1.214809
     12          1           0        0.259882    1.148506    2.130309
     13          1           0        0.663777    2.513008    1.069309
     14          1           0       -1.040321    2.078801    1.339309
     15          6           0        1.471686    0.328811   -0.277191
     16          8           0        2.253383    1.124614   -0.779891
     17          7           0        1.870591   -0.882687    0.231109
     18          1           0        1.154594   -1.593290    0.304909
     19          6           0        3.230293   -1.353581    0.000109
     20          1           0        3.914189   -0.517579    0.152909
     21          1           0        3.461496   -2.148880    0.714009
     22          1           0        3.376394   -1.731081   -1.020491
 ---------------------------------------------------------------------

 SCF Done:  E(RHF) =  -492.919683297     A.U. after   14 cycles
 E2 =    -0.1601170524D+01 EUMP2 =    -0.49452085382069D+03

 The electronic state is 1-A.
 Alpha  occ. eigenvalues --  -20.54552 -20.53600 -15.60861 -15.60051 -11.37495
 Alpha  occ. eigenvalues --  -11.36207 -11.29076 -11.27163 -11.25807 -11.23903
 Alpha  occ. eigenvalues --   -1.39904  -1.38893  -1.25407  -1.22903  -1.05806
 Alpha  occ. eigenvalues --   -1.00011  -0.95993  -0.88245  -0.80326  -0.78652
 Alpha  occ. eigenvalues --   -0.73250  -0.68269  -0.65946  -0.63649  -0.63209
 Alpha  occ. eigenvalues --   -0.62865  -0.59465  -0.59054  -0.58662  -0.57129
 Alpha  occ. eigenvalues --   -0.55144  -0.54641  -0.52644  -0.52098  -0.49966
 Alpha  occ. eigenvalues --   -0.44306  -0.43798  -0.40209  -0.40082
 Alpha virt. eigenvalues --    0.02078   0.03674   0.04075   0.04811   0.05545
 Alpha virt. eigenvalues --    0.05844   0.06444   0.06713   0.07453   0.08321
 Alpha virt. eigenvalues --    0.08345   0.09006   0.11271   0.11956   0.12506

 Mulliken atomic charges:
              1
     1  H   -0.000398
     2  C    0.345175
     3  H   -0.093410
     4  H    0.050602
     5  C    0.582832
     6  O   -0.828022
     7  N   -0.273958
     8  H   -0.069272
     9  C   -0.081384
    10  H   -0.069332
    11  C    0.710073
    12  H   -0.029431
    13  H   -0.040576
    14  H   -0.078671
    15  C    0.946118
    16  O   -0.865294
    17  N   -0.545487
    18  H   -0.093830
    19  C    0.773350
    20  H   -0.108351
    21  H   -0.176317
    22  H   -0.054418
 Sum of Mulliken atomic charges =   0.00000

 Dipole moment (field-independent basis, Debye):
    X=             -0.6450    Y=             -4.9945    Z=              3.9435  Tot=              6.3963
 Quadrupole moment (field-independent basis, Debye-Ang):
   XX=            -66.9140   YY=            -59.3546   ZZ=            -63.7080
   XY=             -0.6912   XZ=             -2.9952   YZ=              2.9553

 Normal termination of Gaussian 09 at Mon Feb 13 05:22:00 2017.
