 Gaussian 09, Revision A.02,
 Gaussian 09:  EM64L-G09RevA.02 11-Jun-2009

 -------------------
 #SP MP2/aug-cc-pVDZ
 -------------------

 -------------------------------
 Single Point calculation at MP2
 -------------------------------
 Symbolic Z-matrix:
 Charge =  0 Multiplicity = 1

                         Standard orientation:
 ---------------------------------------------------------------------
 Center     Atomic      Atomic             Coordinates (Angstroms)
 Number     Number       Type             X           Y           Z
 ---------------------------------------------------------------------
      1          1           0       -3.586410   -1.904607    0.476906
      2          6           0       -3.132111   -1.009607    0.909906
      3          1           0       -2.676411   -1.265006    1.871606
      4          1           0       -3.935612   -0.285208    1.082906
      5          6           0       -2.149212   -0.426505   -0.094694
      6          8           0       -2.424912   -0.304706   -1.281894
      7          7           0       -0.930313   -0.062704    0.420306
      8          1           0       -0.813913   -0.035604    1.425506
      9          6           0        0.040186    0.699297   -0.368294
     10          1           0       -0.113613    0.381797   -1.403694
     11          6           0       -0.168716    2.211197   -0.260094
     12          1           0        0.001784    2.546397    0.766706
     13          1           0        0.536284    2.743998   -0.907794
     14          1           0       -1.186416    2.466996   -0.568594
     15          6           0        1.440387    0.293199    0.126806
     16          8           0        1.975986    0.860600    1.073406
     17          7           0        1.991488   -0.766800   -0.528594
     18          1           0        1.452989   -1.206401   -1.261594
     19          6           0        3.257789   -1.362298   -0.140194
     20          1           0        3.692988   -0.727498    0.632706
     21          1           0        3.118790   -2.372598    0.264306
     22          1           0        3.942789   -1.414597   -0.993694
 ---------------------------------------------------------------------

 SCF Done:  E(RHF) =  -492.925270961     A.U. after   14 cycles
 E2 =    -0.1600552690D+01 EUMP2 =    -0.49452582365163D+03

 The electronic state is 1-A.
 Alpha  occ. eigenvalues --  -20.53715 -20.53540 -15.60303 -15.60156 -11.36886
 Alpha  occ. eigenvalues --  -11.36450 -11.29218 -11.27227 -11.25184 -11.22822
 Alpha  occ. eigenvalues --   -1.39281  -1.38675  -1.24693  -1.23392  -1.05522
 Alpha  occ. eigenvalues --   -0.99432  -0.96468  -0.87707  -0.79962  -0.79332
 Alpha  occ. eigenvalues --   -0.73124  -0.67603  -0.65812  -0.64945  -0.62538
 Alpha  occ. eigenvalues --   -0.62050  -0.60344  -0.58906  -0.57681  -0.56529
 Alpha  occ. eigenvalues --   -0.55090  -0.53567  -0.52589  -0.51694  -0.50422
 Alpha  occ. eigenvalues --   -0.43553  -0.43029  -0.40195  -0.39272
 Alpha virt. eigenvalues --    0.02865   0.03642   0.04439   0.04747   0.05650
 Alpha virt. eigenvalues --    0.05885   0.06162   0.07015   0.07353   0.07893
 Alpha virt. eigenvalues --    0.08955   0.09266   0.11429   0.11784   0.12370

 Mulliken atomic charges:
              1
     1  H    0.032236
     2  C    0.361402
     3  H   -0.121667
     4  H    0.052017
     5  C    0.605039
     6  O   -0.850285
     7  N   -0.311336
     8  H   -0.098047
     9  C   -0.253978
    10  H   -0.241425
    11  C    0.780327
    12  H    0.001216
    13  H   -0.028867
    14  H   -0.038230
    15  C    1.195950
    16  O   -0.854117
    17  N   -0.506310
    18  H   -0.101491
    19  C    0.722394
    20  H   -0.144379
    21  H   -0.092341
    22  H   -0.108108
 Sum of Mulliken atomic charges =   0.00000

 Dipole moment (field-independent basis, Debye):
    X=              0.2276    Y=             -2.1697    Z=              0.8140  Tot=              2.3285
 Quadrupole moment (field-independent basis, Debye-Ang):
   XX=            -63.2666   YY=            -59.0493   ZZ=            -64.2745
   XY=             -5.4867   XZ=            -15.0889   YZ=             -2.6226

 Normal termination of Gaussian 09 at Mon Feb 13 06:00:40 2017.
