 Gaussian 09, Revision A.02,
 Gaussian 09:  EM64L-G09RevA.02 11-Jun-2009

 -------------------
 #SP MP2/aug-cc-pVDZ
 -------------------

 -------------------------------
 Single Point calculation at MP2
 -------------------------------
 Symbolic Z-matrix:
 Charge =  0 Multiplicity = 1

                         Standard orientation:
 ---------------------------------------------------------------------
 Center     Atomic      Atomic             Coordinates (Angstroms)
 Number     Number       Type             X           Y           Z
 ---------------------------------------------------------------------
      1          1           0        3.653211   -1.844982   -0.147701
      2          6           0        3.096609   -1.129084   -0.757301
      3          1           0        2.598310   -1.658985   -1.575501
      4          1           0        3.822006   -0.427981   -1.185801
      5          6           0        2.137506   -0.362887    0.141599
      6          8           0        2.455705    0.026014    1.256099
      7          7           0        0.879206   -0.154491   -0.383301
      8          1           0        0.758706   -0.316491   -1.375901
      9          6           0       -0.053597    0.789406    0.240199
     10          1           0        0.152103    0.726307    1.314599
     11          6           0        0.162798    2.229607   -0.227801
     12          1           0        0.010098    2.319306   -1.308801
     13          1           0       -0.550504    2.897205    0.260999
     14          1           0        1.180297    2.546710    0.019099
     15          6           0       -1.509296    0.333902    0.003099
     16          8           0       -2.394598    1.123399   -0.302701
     17          7           0       -1.722492   -0.996899    0.213399
     18          1           0       -0.918090   -1.570897    0.424699
     19          6           0       -3.029890   -1.614503    0.092999
     20          1           0       -3.741092   -0.825906   -0.157101
     21          1           0       -3.042987   -2.373403   -0.699001
     22          1           0       -3.332688   -2.085104    1.035799
 ---------------------------------------------------------------------

 SCF Done:  E(RHF) =  -492.924282249     A.U. after   14 cycles
 E2 =    -0.1601171749D+01 EUMP2 =    -0.49452545399841D+03

 The electronic state is 1-A.
 Alpha  occ. eigenvalues --  -20.54220 -20.53418 -15.60816 -15.59594 -11.37417
 Alpha  occ. eigenvalues --  -11.36219 -11.29247 -11.27040 -11.25743 -11.22675
 Alpha  occ. eigenvalues --   -1.39672  -1.38682  -1.25358  -1.22812  -1.05580
 Alpha  occ. eigenvalues --   -0.99724  -0.96387  -0.87507  -0.80334  -0.78867
 Alpha  occ. eigenvalues --   -0.73316  -0.68042  -0.65908  -0.65043  -0.62534
 Alpha  occ. eigenvalues --   -0.62037  -0.60224  -0.59406  -0.58082  -0.56051
 Alpha  occ. eigenvalues --   -0.54917  -0.53539  -0.52565  -0.52123  -0.50371
 Alpha  occ. eigenvalues --   -0.43672  -0.43477  -0.40565  -0.39009
 Alpha virt. eigenvalues --    0.02397   0.03725   0.04316   0.04581   0.05592
 Alpha virt. eigenvalues --    0.06062   0.06313   0.06573   0.07182   0.08202
 Alpha virt. eigenvalues --    0.08374   0.09236   0.11223   0.12321   0.12399

 Mulliken atomic charges:
              1
     1  H    0.024656
     2  C    0.337723
     3  H   -0.132306
     4  H    0.054233
     5  C    0.585289
     6  O   -0.845782
     7  N   -0.355107
     8  H   -0.099878
     9  C   -0.302511
    10  H   -0.082022
    11  C    0.836207
    12  H   -0.049719
    13  H   -0.028666
    14  H   -0.068273
    15  C    1.168414
    16  O   -0.807905
    17  N   -0.555325
    18  H   -0.064193
    19  C    0.734299
    20  H   -0.154051
    21  H   -0.095880
    22  H   -0.099203
 Sum of Mulliken atomic charges =   0.00000

 Dipole moment (field-independent basis, Debye):
    X=              1.0580    Y=             -3.5564    Z=             -2.6215  Tot=              4.5431
 Quadrupole moment (field-independent basis, Debye-Ang):
   XX=            -68.6086   YY=            -58.8290   ZZ=            -62.6754
   XY=              5.1274   XZ=            -10.8640   YZ=              1.2089

 Normal termination of Gaussian 09 at Mon Feb 13 05:46:36 2017.
