 Gaussian 09, Revision A.02,
 Gaussian 09:  EM64L-G09RevA.02 11-Jun-2009

 -------------------
 #SP MP2/aug-cc-pVDZ
 -------------------

 -------------------------------
 Single Point calculation at MP2
 -------------------------------
 Symbolic Z-matrix:
 Charge =  0 Multiplicity = 1

                         Standard orientation:
 ---------------------------------------------------------------------
 Center     Atomic      Atomic             Coordinates (Angstroms)
 Number     Number       Type             X           Y           Z
 ---------------------------------------------------------------------
      1          1           0       -4.189907   -0.692284    0.498809
      2          6           0       -3.327111   -1.171790    0.026109
      3          1           0       -3.674714   -1.614188   -0.912691
      4          1           0       -2.958616   -1.967292    0.681009
      5          6           0       -2.286203   -0.107897   -0.289691
      6          8           0       -2.534797    0.854205   -1.010991
      7          7           0       -1.064105   -0.293405    0.285009
      8          1           0       -0.846010   -1.114307    0.836609
      9          6           0        0.051002    0.599287    0.031309
     10          1           0       -0.064896    0.984488   -0.988191
     11          6           0        0.078110    1.789787    1.008809
     12          1           0        0.181407    1.434286    2.039009
     13          1           0        0.913714    2.463881    0.787309
     14          1           0       -0.856286    2.349793    0.915309
     15          6           0        1.333196   -0.235622    0.156109
     16          8           0        1.395589   -1.191022    0.926609
     17          7           0        2.372099    0.178471   -0.617791
     18          1           0        2.219504    0.949972   -1.251691
     19          6           0        3.682994   -0.447938   -0.583391
     20          1           0        3.646089   -1.239638    0.165709
     21          1           0        3.936991   -0.886040   -1.555591
     22          1           0        4.458499    0.275456   -0.306591
 ---------------------------------------------------------------------

 SCF Done:  E(RHF) =  -492.929095896     A.U. after   14 cycles
 E2 =    -0.1600106890D+01 EUMP2 =    -0.49452920278607D+03

 The electronic state is 1-A.
 Alpha  occ. eigenvalues --  -20.54211 -20.52415 -15.60792 -15.59039 -11.37033
 Alpha  occ. eigenvalues --  -11.35909 -11.29330 -11.27675 -11.24310 -11.23704
 Alpha  occ. eigenvalues --   -1.39707  -1.37765  -1.24500  -1.23532  -1.05585
 Alpha  occ. eigenvalues --   -0.99064  -0.96444  -0.88336  -0.80563  -0.78719
 Alpha  occ. eigenvalues --   -0.73097  -0.67531  -0.65907  -0.64035  -0.63468
 Alpha  occ. eigenvalues --   -0.61775  -0.60231  -0.58660  -0.57116  -0.56438
 Alpha  occ. eigenvalues --   -0.55608  -0.54232  -0.52687  -0.52385  -0.49416
 Alpha  occ. eigenvalues --   -0.43728  -0.42054  -0.40557  -0.38797
 Alpha virt. eigenvalues --    0.02856   0.03899   0.04348   0.04544   0.05655
 Alpha virt. eigenvalues --    0.06132   0.06387   0.07158   0.07248   0.08024
 Alpha virt. eigenvalues --    0.09139   0.09334   0.10990   0.12063   0.13030

 Mulliken atomic charges:
              1
     1  H    0.044374
     2  C    0.354108
     3  H    0.048032
     4  H   -0.159191
     5  C    0.536695
     6  O   -0.868750
     7  N   -0.192387
     8  H   -0.083711
     9  C   -0.306886
    10  H   -0.155811
    11  C    0.802279
    12  H   -0.016268
    13  H   -0.057919
    14  H   -0.057409
    15  C    1.244986
    16  O   -0.904411
    17  N   -0.500536
    18  H   -0.111145
    19  C    0.715988
    20  H   -0.147115
    21  H   -0.084154
    22  H   -0.100768
 Sum of Mulliken atomic charges =   0.00000

 Dipole moment (field-independent basis, Debye):
    X=              2.4980    Y=              0.0320    Z=             -0.2688  Tot=              2.5126
 Quadrupole moment (field-independent basis, Debye-Ang):
   XX=            -56.6264   YY=            -62.6031   ZZ=            -63.5940
   XY=             11.7787   XZ=            -11.1928   YZ=              3.4138

 Normal termination of Gaussian 09 at Mon Feb 13 05:23:19 2017.
