 Gaussian 09, Revision A.02,
 Gaussian 09:  EM64L-G09RevA.02 11-Jun-2009

 -------------------
 #SP MP2/aug-cc-pVDZ
 -------------------

 -------------------------------
 Single Point calculation at MP2
 -------------------------------
 Symbolic Z-matrix:
 Charge =  0 Multiplicity = 1

                         Standard orientation:
 ---------------------------------------------------------------------
 Center     Atomic      Atomic             Coordinates (Angstroms)
 Number     Number       Type             X           Y           Z
 ---------------------------------------------------------------------
      1          1           0        3.431499   -1.511667   -0.742801
      2          6           0        3.278094   -0.489468   -0.387101
      3          1           0        3.486690    0.211433   -1.201301
      4          1           0        3.997793   -0.312564    0.419499
      5          6           0        1.871493   -0.373675    0.181699
      6          8           0        1.416797   -1.214577    0.956599
      7          7           0        1.161187    0.717521   -0.217001
      8          1           0        1.589184    1.331524   -0.895801
      9          6           0       -0.142315    1.147515    0.303799
     10          1           0       -0.035816    1.296515    1.386999
     11          6           0       -0.508222    2.489613   -0.338901
     12          1           0       -0.593821    2.389712   -1.427901
     13          1           0       -1.471723    2.820108    0.050199
     14          1           0        0.249174    3.248517   -0.112201
     15          6           0       -1.346810    0.179708    0.172899
     16          8           0       -2.446312    0.580703    0.539899
     17          7           0       -1.149404   -1.030791   -0.419601
     18          1           0       -0.226002   -1.428786   -0.288301
     19          6           0       -2.257999   -1.975996   -0.470301
     20          1           0       -3.144301   -1.465501   -0.851101
     21          1           0       -1.993295   -2.795095   -1.144101
     22          1           0       -2.501197   -2.386497    0.518499
 ---------------------------------------------------------------------

 SCF Done:  E(RHF) =  -492.922305195     A.U. after   14 cycles
 E2 =    -0.1602957574D+01 EUMP2 =    -0.49452526276912D+03

 The electronic state is 1-A.
 Alpha  occ. eigenvalues --  -20.54542 -20.52588 -15.61364 -15.57989 -11.37940
 Alpha  occ. eigenvalues --  -11.35399 -11.29967 -11.26069 -11.25676 -11.24313
 Alpha  occ. eigenvalues --   -1.40027  -1.37896  -1.25394  -1.21912  -1.06318
 Alpha  occ. eigenvalues --   -1.00226  -0.95016  -0.87822  -0.81706  -0.77388
 Alpha  occ. eigenvalues --   -0.71762  -0.69526  -0.67745  -0.63301  -0.62415
 Alpha  occ. eigenvalues --   -0.62009  -0.59568  -0.58715  -0.58203  -0.55292
 Alpha  occ. eigenvalues --   -0.54560  -0.54039  -0.53439  -0.52201  -0.49422
 Alpha  occ. eigenvalues --   -0.44219  -0.43885  -0.40317  -0.38200
 Alpha virt. eigenvalues --    0.02361   0.03901   0.04238   0.04568   0.05870
 Alpha virt. eigenvalues --    0.06039   0.06411   0.06665   0.07204   0.08006
 Alpha virt. eigenvalues --    0.09013   0.09974   0.11545   0.11658   0.12251

 Mulliken atomic charges:
              1
     1  H    0.036066
     2  C    0.363215
     3  H   -0.143556
     4  H    0.064020
     5  C    0.445339
     6  O   -0.873898
     7  N   -0.390659
     8  H   -0.046456
     9  C    0.170007
    10  H    0.014838
    11  C    0.668199
    12  H   -0.021707
    13  H   -0.079390
    14  H   -0.074020
    15  C    0.852835
    16  O   -0.877415
    17  N   -0.477508
    18  H   -0.029563
    19  C    0.762254
    20  H   -0.123962
    21  H   -0.196091
    22  H   -0.042549
 Sum of Mulliken atomic charges =   0.00000

 Dipole moment (field-independent basis, Debye):
    X=              4.2812    Y=              1.2760    Z=             -3.0907  Tot=              5.4322
 Quadrupole moment (field-independent basis, Debye-Ang):
   XX=            -62.5329   YY=            -57.7150   ZZ=            -63.4424
   XY=              7.4352   XZ=             -1.1361   YZ=              2.0924

 Normal termination of Gaussian 09 at Mon Feb 13 16:03:40 2017.
