 Gaussian 09, Revision A.02,
 Gaussian 09:  EM64L-G09RevA.02 11-Jun-2009

 -------------------
 #SP MP2/aug-cc-pVDZ
 -------------------

 -------------------------------
 Single Point calculation at MP2
 -------------------------------
 Symbolic Z-matrix:
 Charge =  0 Multiplicity = 1

                         Standard orientation:
 ---------------------------------------------------------------------
 Center     Atomic      Atomic             Coordinates (Angstroms)
 Number     Number       Type             X           Y           Z
 ---------------------------------------------------------------------
      1          1           0        3.357509   -1.710088   -0.747295
      2          6           0        3.219105   -0.641989   -0.562795
      3          1           0        3.325703   -0.095288   -1.505395
      4          1           0        4.014404   -0.320086    0.119105
      5          6           0        1.870404   -0.433793    0.113005
      6          8           0        1.453807   -1.173695    0.990905
      7          7           0        1.147800    0.646204   -0.336795
      8          1           0        1.612098    1.301506   -0.952095
      9          6           0       -0.051901    1.124700    0.356805
     10          1           0        0.193398    1.323401    1.406505
     11          6           0       -0.559606    2.407698   -0.305495
     12          1           0       -0.820405    2.243297   -1.356495
     13          1           0       -1.453907    2.763595    0.213605
     14          1           0        0.198991    3.198201   -0.251295
     15          6           0       -1.161098    0.050396    0.438405
     16          8           0       -1.706197   -0.215906    1.497005
     17          7           0       -1.608996   -0.400706   -0.777395
     18          1           0       -0.957896   -0.318003   -1.548495
     19          6           0       -2.593192   -1.469809   -0.853795
     20          1           0       -3.301593   -1.335512   -0.035195
     21          1           0       -3.124392   -1.411211   -1.808395
     22          1           0       -2.138689   -2.464708   -0.755295
 ---------------------------------------------------------------------

 SCF Done:  E(RHF) =  -492.918934487     A.U. after   14 cycles
 E2 =    -0.1602218368D+01 EUMP2 =    -0.49452115285435D+03

 The electronic state is 1-A.
 Alpha  occ. eigenvalues --  -20.53772 -20.52442 -15.60720 -15.58645 -11.36906
 Alpha  occ. eigenvalues --  -11.35148 -11.29396 -11.26082 -11.25503 -11.25139
 Alpha  occ. eigenvalues --   -1.39359  -1.37661  -1.24901  -1.22054  -1.06139
 Alpha  occ. eigenvalues --   -0.99944  -0.95073  -0.88247  -0.80991  -0.77460
 Alpha  occ. eigenvalues --   -0.70488  -0.69178  -0.67720  -0.63086  -0.62189
 Alpha  occ. eigenvalues --   -0.61743  -0.59412  -0.58551  -0.58056  -0.55729
 Alpha  occ. eigenvalues --   -0.54743  -0.54528  -0.53958  -0.51575  -0.49986
 Alpha  occ. eigenvalues --   -0.43213  -0.42682  -0.39743  -0.38712
 Alpha virt. eigenvalues --    0.02166   0.03639   0.03828   0.04600   0.05563
 Alpha virt. eigenvalues --    0.05799   0.06225   0.06620   0.07232   0.08074
 Alpha virt. eigenvalues --    0.08497   0.09096   0.11320   0.11656   0.11777

 Mulliken atomic charges:
              1
     1  H    0.019940
     2  C    0.396135
     3  H   -0.139545
     4  H    0.062856
     5  C    0.513035
     6  O   -0.827518
     7  N   -0.406900
     8  H   -0.078255
     9  C    0.340499
    10  H   -0.265173
    11  C    0.744404
    12  H   -0.027388
    13  H   -0.056831
    14  H   -0.085110
    15  C    1.004096
    16  O   -0.846742
    17  N   -0.679930
    18  H   -0.029616
    19  C    0.720761
    20  H   -0.115842
    21  H   -0.172416
    22  H   -0.070461
 Sum of Mulliken atomic charges =   0.00000

 Dipole moment (field-independent basis, Debye):
    X=              2.5721    Y=              3.0248    Z=             -5.8749  Tot=              7.0908
 Quadrupole moment (field-independent basis, Debye-Ang):
   XX=            -56.0007   YY=            -58.6755   ZZ=            -66.0658
   XY=              3.8786   XZ=              1.6261   YZ=              4.7539

 Normal termination of Gaussian 09 at Mon Feb 13 18:07:55 2017.
