 Gaussian 09, Revision A.02,
 Gaussian 09:  EM64L-G09RevA.02 11-Jun-2009

 -------------------
 #SP MP2/aug-cc-pVDZ
 -------------------

 -------------------------------
 Single Point calculation at MP2
 -------------------------------
 Symbolic Z-matrix:
 Charge =  0 Multiplicity = 1

                         Standard orientation:
 ---------------------------------------------------------------------
 Center     Atomic      Atomic             Coordinates (Angstroms)
 Number     Number       Type             X           Y           Z
 ---------------------------------------------------------------------
      1          1           0        3.342305   -1.585297   -1.089708
      2          6           0        3.232495   -0.551098   -0.753308
      3          1           0        3.291989    0.116202   -1.619508
      4          1           0        4.072893   -0.333090   -0.085208
      5          6           0        1.931794   -0.431211    0.032492
      6          8           0        1.603002   -1.246514    0.879092
      7          7           0        1.162583    0.663682   -0.277108
      8          1           0        1.543177    1.348285   -0.916008
      9          6           0       -0.043420    1.042870    0.465192
     10          1           0        0.212279    1.115773    1.528592
     11          6           0       -0.550233    2.398665   -0.030708
     12          1           0       -0.797733    2.382063   -1.098508
     13          1           0       -1.451736    2.687357    0.516492
     14          1           0        0.208759    3.172873    0.133492
     15          6           0       -1.137710   -0.056540    0.446992
     16          8           0       -1.473104   -0.638644    1.464292
     17          7           0       -1.820109   -0.175347   -0.739808
     18          1           0       -1.345012    0.151158   -1.571608
     19          6           0       -2.813598   -1.223957   -0.920208
     20          1           0       -3.360397   -1.336262    0.016892
     21          1           0       -3.507601   -0.935663   -1.715208
     22          1           0       -2.361389   -2.192852   -1.171108
 ---------------------------------------------------------------------

 SCF Done:  E(RHF) =  -492.913890582     A.U. after   14 cycles
 E2 =    -0.1602354866D+01 EUMP2 =    -0.49451624544756D+03

 The electronic state is 1-A.
 Alpha  occ. eigenvalues --  -20.53141 -20.52573 -15.60502 -15.58921 -11.36481
 Alpha  occ. eigenvalues --  -11.35223 -11.29529 -11.26288 -11.25401 -11.25162
 Alpha  occ. eigenvalues --   -1.38884  -1.37733  -1.24614  -1.22231  -1.06114
 Alpha  occ. eigenvalues --   -0.99667  -0.95126  -0.88520  -0.80854  -0.77697
 Alpha  occ. eigenvalues --   -0.70618  -0.68756  -0.67365  -0.63446  -0.62109
 Alpha  occ. eigenvalues --   -0.61488  -0.59172  -0.58509  -0.57922  -0.55875
 Alpha  occ. eigenvalues --   -0.55023  -0.54483  -0.53809  -0.51437  -0.50073
 Alpha  occ. eigenvalues --   -0.43291  -0.42203  -0.39318  -0.38747
 Alpha virt. eigenvalues --    0.02134   0.03581   0.03812   0.04574   0.05584
 Alpha virt. eigenvalues --    0.05754   0.06148   0.06626   0.07165   0.07949
 Alpha virt. eigenvalues --    0.08540   0.09032   0.11422   0.11703   0.11899

 Mulliken atomic charges:
              1
     1  H    0.030166
     2  C    0.358481
     3  H   -0.151686
     4  H    0.059069
     5  C    0.517007
     6  O   -0.817842
     7  N   -0.425723
     8  H   -0.082313
     9  C    0.403328
    10  H   -0.241633
    11  C    0.777277
    12  H   -0.047894
    13  H   -0.067649
    14  H   -0.082872
    15  C    0.903146
    16  O   -0.814134
    17  N   -0.642723
    18  H   -0.050567
    19  C    0.727409
    20  H   -0.112258
    21  H   -0.173817
    22  H   -0.064770
 Sum of Mulliken atomic charges =   0.00000

 Dipole moment (field-independent basis, Debye):
    X=              1.3987    Y=              4.2329    Z=             -5.7830  Tot=              7.3019
 Quadrupole moment (field-independent basis, Debye-Ang):
   XX=            -54.9418   YY=            -60.7651   ZZ=            -64.4181
   XY=              3.3238   XZ=              0.8699   YZ=              5.6737

 Normal termination of Gaussian 09 at Mon Feb 13 17:44:47 2017.
