 Gaussian 09, Revision A.02,
 Gaussian 09:  EM64L-G09RevA.02 11-Jun-2009

 -------------------
 #SP MP2/aug-cc-pVDZ
 -------------------

 -------------------------------
 Single Point calculation at MP2
 -------------------------------
 Symbolic Z-matrix:
 Charge =  0 Multiplicity = 1

                         Standard orientation:
 ---------------------------------------------------------------------
 Center     Atomic      Atomic             Coordinates (Angstroms)
 Number     Number       Type             X           Y           Z
 ---------------------------------------------------------------------
      1          1           0       -3.811397   -1.148381    0.778300
      2          6           0       -2.898496   -0.691384    1.163500
      3          1           0       -2.357198   -1.445585    1.748300
      4          1           0       -3.157993    0.137017    1.832400
      5          6           0       -2.039994   -0.245986   -0.014100
      6          8           0       -2.158496   -0.714586   -1.129800
      7          7           0       -1.157491    0.788711    0.284900
      8          1           0       -1.055291    0.960811    1.280400
      9          6           0        0.088009    1.009507   -0.464500
     10          1           0       -0.203491    1.040408   -1.519000
     11          6           0        0.679013    2.363706   -0.070100
     12          1           0        0.907614    2.421605    1.003700
     13          1           0        1.598014    2.570703   -0.627800
     14          1           0       -0.041284    3.157308   -0.289300
     15          6           0        1.037706   -0.217995   -0.387600
     16          8           0        0.804903   -1.242995   -1.008900
     17          7           0        2.124206   -0.082299    0.438300
     18          1           0        2.295909    0.805301    0.884900
     19          6           0        3.106303   -1.139101    0.609400
     20          1           0        2.758601   -1.999000    0.035500
     21          1           0        4.091504   -0.833704    0.236100
     22          1           0        3.201502   -1.423202    1.664100
 ---------------------------------------------------------------------

 SCF Done:  E(RHF) =  -492.908216690     A.U. after   14 cycles
 E2 =    -0.1603582718D+01 EUMP2 =    -0.49451179940775D+03

 The electronic state is 1-A.
 Alpha  occ. eigenvalues --  -20.52790 -20.52660 -15.59803 -15.59686 -11.35851
 Alpha  occ. eigenvalues --  -11.35729 -11.29567 -11.26931 -11.25541 -11.24447
 Alpha  occ. eigenvalues --   -1.38677  -1.37684  -1.23988  -1.22845  -1.05850
 Alpha  occ. eigenvalues --   -0.99156  -0.95695  -0.88752  -0.79545  -0.78500
 Alpha  occ. eigenvalues --   -0.72045  -0.67216  -0.66021  -0.64437  -0.62211
 Alpha  occ. eigenvalues --   -0.61307  -0.59231  -0.58511  -0.57591  -0.56477
 Alpha  occ. eigenvalues --   -0.55035  -0.54798  -0.52968  -0.50949  -0.50360
 Alpha  occ. eigenvalues --   -0.44507  -0.42045  -0.39268  -0.38077
 Alpha virt. eigenvalues --    0.02232   0.03612   0.03813   0.04587   0.05423
 Alpha virt. eigenvalues --    0.05750   0.06386   0.06713   0.07324   0.07830
 Alpha virt. eigenvalues --    0.08796   0.09227   0.11022   0.11711   0.12713

 Mulliken atomic charges:
              1
     1  H   -0.041755
     2  C    0.315565
     3  H    0.054660
     4  H   -0.045879
     5  C    0.659162
     6  O   -0.794383
     7  N   -0.542445
     8  H   -0.022220
     9  C    0.145762
    10  H   -0.141305
    11  C    0.725836
    12  H    0.025879
    13  H   -0.045676
    14  H   -0.125483
    15  C    0.952285
    16  O   -0.827345
    17  N   -0.552548
    18  H   -0.132636
    19  C    0.764457
    20  H   -0.155633
    21  H   -0.108779
    22  H   -0.107519
 Sum of Mulliken atomic charges =   0.00000

 Dipole moment (field-independent basis, Debye):
    X=              2.6294    Y=              4.0248    Z=              5.4084  Tot=              7.2363
 Quadrupole moment (field-independent basis, Debye-Ang):
   XX=            -55.7909   YY=            -61.8680   ZZ=            -63.0262
   XY=              0.5600   XZ=             -4.9195   YZ=             -5.2712

 Normal termination of Gaussian 09 at Mon Feb 13 17:28:19 2017.
