 Gaussian 09, Revision A.02,
 Gaussian 09:  EM64L-G09RevA.02 11-Jun-2009

 -------------------
 #SP MP2/aug-cc-pVDZ
 -------------------

 -------------------------------
 Single Point calculation at MP2
 -------------------------------
 Symbolic Z-matrix:
 Charge =  0 Multiplicity = 1

                         Standard orientation:
 ---------------------------------------------------------------------
 Center     Atomic      Atomic             Coordinates (Angstroms)
 Number     Number       Type             X           Y           Z
 ---------------------------------------------------------------------
      1          1           0        3.963803   -0.747658    0.045396
      2          6           0        3.171007   -0.474148   -0.656204
      3          1           0        3.085796   -1.287147   -1.385204
      4          1           0        3.456819    0.442748   -1.180404
      5          6           0        1.863408   -0.365031    0.112096
      6          8           0        1.505196   -1.261126    0.880796
      7          7           0        1.162523    0.784278   -0.082404
      8          1           0        1.493631    1.389974   -0.822004
      9          6           0       -0.179873    1.120496    0.428196
     10          1           0       -0.121374    1.024995    1.522396
     11          6           0       -0.481353    2.574500    0.074496
     12          1           0       -0.528352    2.710501   -1.012304
     13          1           0       -1.454650    2.859413    0.474396
     14          1           0        0.288655    3.234690    0.487296
     15          6           0       -1.358385    0.195011   -0.004404
     16          8           0       -2.428778    0.688925   -0.351604
     17          7           0       -1.142102   -1.138491    0.055896
     18          1           0       -0.276106   -1.466103    0.481596
     19          6           0       -2.213514   -2.075077   -0.237704
     20          1           0       -2.728010   -1.774371   -1.154004
     21          1           0       -1.784027   -3.070983   -0.372004
     22          1           0       -2.958215   -2.113468    0.567996
 ---------------------------------------------------------------------

 SCF Done:  E(RHF) =  -492.923953260     A.U. after   14 cycles
 E2 =    -0.1603946486D+01 EUMP2 =    -0.49452789974650D+03

 The electronic state is 1-A.
 Alpha  occ. eigenvalues --  -20.54737 -20.52295 -15.61656 -15.57433 -11.38244
 Alpha  occ. eigenvalues --  -11.35109 -11.30077 -11.26044 -11.25721 -11.23768
 Alpha  occ. eigenvalues --   -1.40144  -1.37524  -1.25501  -1.21736  -1.06264
 Alpha  occ. eigenvalues --   -1.00146  -0.95319  -0.87383  -0.81700  -0.77463
 Alpha  occ. eigenvalues --   -0.72350  -0.69504  -0.67467  -0.63637  -0.62084
 Alpha  occ. eigenvalues --   -0.61235  -0.59870  -0.59359  -0.58088  -0.54980
 Alpha  occ. eigenvalues --   -0.54257  -0.53287  -0.53088  -0.52341  -0.50156
 Alpha  occ. eigenvalues --   -0.45030  -0.43755  -0.39480  -0.37856
 Alpha virt. eigenvalues --    0.02519   0.04050   0.04417   0.04506   0.05798
 Alpha virt. eigenvalues --    0.06202   0.06405   0.06678   0.07130   0.07831
 Alpha virt. eigenvalues --    0.09266   0.09868   0.11577   0.11667   0.12689

 Mulliken atomic charges:
              1
     1  H    0.044172
     2  C    0.375933
     3  H    0.051461
     4  H   -0.161932
     5  C    0.551154
     6  O   -0.935118
     7  N   -0.440765
     8  H   -0.019380
     9  C    0.152362
    10  H   -0.086181
    11  C    0.731471
    12  H   -0.046179
    13  H   -0.078393
    14  H   -0.035057
    15  C    0.748776
    16  O   -0.818295
    17  N   -0.373671
    18  H   -0.058923
    19  C    0.741538
    20  H   -0.094617
    21  H   -0.198831
    22  H   -0.049525
 Sum of Mulliken atomic charges =   0.00000

 Dipole moment (field-independent basis, Debye):
    X=              3.9093    Y=              0.9556    Z=             -1.3277  Tot=              4.2377
 Quadrupole moment (field-independent basis, Debye-Ang):
   XX=            -64.4413   YY=            -58.7482   ZZ=            -61.5329
   XY=              8.2411   XZ=             -7.2443   YZ=              2.9040

 Normal termination of Gaussian 09 at Mon Feb 13 17:54:19 2017.
