 Gaussian 09, Revision A.02,
 Gaussian 09:  EM64L-G09RevA.02 11-Jun-2009

 -------------------
 #SP MP2/aug-cc-pVDZ
 -------------------

 -------------------------------
 Single Point calculation at MP2
 -------------------------------
 Symbolic Z-matrix:
 Charge =  0 Multiplicity = 1

                         Standard orientation:
 ---------------------------------------------------------------------
 Center     Atomic      Atomic             Coordinates (Angstroms)
 Number     Number       Type             X           Y           Z
 ---------------------------------------------------------------------
      1          1           0       -3.691927   -1.456717    0.055494
      2          6           0       -3.021616   -0.853529    0.672694
      3          1           0       -2.753427   -1.451234    1.551294
      4          1           0       -3.548199    0.045181    1.008194
      5          6           0       -1.763410   -0.551552   -0.123406
      6          8           0       -1.214626   -1.401062   -0.822006
      7          7           0       -1.296187    0.732939   -0.038106
      8          1           0       -1.653376    1.310046    0.713094
      9          6           0        0.038620    1.081215   -0.538706
     10          1           0        0.054715    0.821714   -1.602406
     11          6           0        0.280647    2.578010   -0.362606
     12          1           0        0.348552    2.824809    0.701594
     13          1           0        1.227253    2.865793   -0.829706
     14          1           0       -0.525242    3.156525   -0.826306
     15          6           0        1.134005    0.272295    0.199794
     16          8           0        1.503511    0.588088    1.325994
     17          7           0        1.679886   -0.744415   -0.526506
     18          1           0        1.061079   -1.135404   -1.228706
     19          6           0        2.635170   -1.652933    0.090494
     20          1           0        3.310680   -1.071345    0.719594
     21          1           0        2.143256   -2.407124    0.719194
     22          1           0        3.209160   -2.159144   -0.690506
 ---------------------------------------------------------------------

 SCF Done:  E(RHF) =  -492.927179139     A.U. after   14 cycles
 E2 =    -0.1602468766D+01 EUMP2 =    -0.49452964790508D+03

 The electronic state is 1-A.
 Alpha  occ. eigenvalues --  -20.54246 -20.52989 -15.60617 -15.58317 -11.37315
 Alpha  occ. eigenvalues --  -11.35264 -11.29400 -11.25862 -11.25399 -11.23907
 Alpha  occ. eigenvalues --   -1.39649  -1.37943  -1.24641  -1.22318  -1.05857
 Alpha  occ. eigenvalues --   -0.99786  -0.95378  -0.87086  -0.80732  -0.77221
 Alpha  occ. eigenvalues --   -0.72030  -0.68846  -0.67196  -0.63826  -0.62035
 Alpha  occ. eigenvalues --   -0.61625  -0.59650  -0.58822  -0.57605  -0.55242
 Alpha  occ. eigenvalues --   -0.53993  -0.53703  -0.52503  -0.51516  -0.50908
 Alpha  occ. eigenvalues --   -0.44443  -0.43574  -0.40104  -0.38198
 Alpha virt. eigenvalues --    0.02971   0.04004   0.04248   0.04859   0.05706
 Alpha virt. eigenvalues --    0.06111   0.06468   0.06964   0.07292   0.08018
 Alpha virt. eigenvalues --    0.09150   0.09620   0.11283   0.11746   0.12890

 Mulliken atomic charges:
              1
     1  H    0.022086
     2  C    0.372473
     3  H    0.060950
     4  H   -0.115883
     5  C    0.595932
     6  O   -0.869720
     7  N   -0.524043
     8  H   -0.014604
     9  C    0.179947
    10  H   -0.336165
    11  C    0.669816
    12  H    0.004694
    13  H   -0.050821
    14  H   -0.019467
    15  C    1.097831
    16  O   -0.866312
    17  N   -0.621642
    18  H    0.027905
    19  C    0.756565
    20  H   -0.123498
    21  H   -0.072169
    22  H   -0.173874
 Sum of Mulliken atomic charges =   0.00000

 Dipole moment (field-independent basis, Debye):
    X=             -2.2269    Y=              1.0164    Z=             -0.6599  Tot=              2.5353
 Quadrupole moment (field-independent basis, Debye-Ang):
   XX=            -55.4885   YY=            -59.8407   ZZ=            -65.0401
   XY=             -5.6888   XZ=             -8.8196   YZ=             -3.6760

 Normal termination of Gaussian 09 at Mon Feb 13 17:24:46 2017.
