 Gaussian 09, Revision A.02,
 Gaussian 09:  EM64L-G09RevA.02 11-Jun-2009

 -------------------
 #SP MP2/aug-cc-pVDZ
 -------------------

 -------------------------------
 Single Point calculation at MP2
 -------------------------------
 Symbolic Z-matrix:
 Charge =  0 Multiplicity = 1

                         Standard orientation:
 ---------------------------------------------------------------------
 Center     Atomic      Atomic             Coordinates (Angstroms)
 Number     Number       Type             X           Y           Z
 ---------------------------------------------------------------------
      1          1           0        3.310201   -1.710701   -0.497592
      2          6           0        3.188400   -0.630601   -0.383492
      3          1           0        3.343599   -0.144801   -1.352392
      4          1           0        3.965099   -0.284700    0.307708
      5          6           0        1.822599   -0.352603    0.229208
      6          8           0        1.372600   -1.010503    1.156708
      7          7           0        1.129498    0.697196   -0.322192
      8          1           0        1.580397    1.261697   -1.029192
      9          6           0       -0.125103    1.189595    0.246308
     10          1           0        0.039097    1.460295    1.295308
     11          6           0       -0.598905    2.423494   -0.528592
     12          1           0       -0.781104    2.181394   -1.582292
     13          1           0       -1.533205    2.785593   -0.093092
     14          1           0        0.142294    3.229795   -0.474592
     15          6           0       -1.262401    0.147193    0.305208
     16          8           0       -2.163802    0.290592    1.120508
     17          7           0       -1.251400   -0.811307   -0.662792
     18          1           0       -0.387000   -0.933506   -1.170692
     19          6           0       -2.208999   -1.903608   -0.661492
     20          1           0       -3.094099   -1.568809   -0.118892
     21          1           0       -2.487198   -2.163608   -1.687992
     22          1           0       -1.808698   -2.795408   -0.161992
 ---------------------------------------------------------------------

 SCF Done:  E(RHF) =  -492.923421676     A.U. after   14 cycles
 E2 =    -0.1602661821D+01 EUMP2 =    -0.49452608349747D+03

 The electronic state is 1-A.
 Alpha  occ. eigenvalues --  -20.54188 -20.52187 -15.61054 -15.58586 -11.37368
 Alpha  occ. eigenvalues --  -11.35218 -11.29415 -11.25991 -11.25887 -11.24786
 Alpha  occ. eigenvalues --   -1.39737  -1.37556  -1.25245  -1.22121  -1.06182
 Alpha  occ. eigenvalues --   -1.00168  -0.95336  -0.88010  -0.81317  -0.77856
 Alpha  occ. eigenvalues --   -0.71357  -0.69241  -0.67952  -0.62563  -0.62399
 Alpha  occ. eigenvalues --   -0.62012  -0.59636  -0.59109  -0.58184  -0.55713
 Alpha  occ. eigenvalues --   -0.54534  -0.54407  -0.53852  -0.51997  -0.49548
 Alpha  occ. eigenvalues --   -0.43508  -0.43330  -0.39875  -0.38375
 Alpha virt. eigenvalues --    0.02176   0.03694   0.03957   0.04608   0.05674
 Alpha virt. eigenvalues --    0.05891   0.06356   0.06635   0.07128   0.08301
 Alpha virt. eigenvalues --    0.08515   0.09292   0.11357   0.11673   0.11939

 Mulliken atomic charges:
              1
     1  H    0.025295
     2  C    0.385897
     3  H   -0.145083
     4  H    0.060208
     5  C    0.463029
     6  O   -0.827946
     7  N   -0.366761
     8  H   -0.066986
     9  C    0.200215
    10  H   -0.160904
    11  C    0.639962
    12  H    0.002055
    13  H   -0.053863
    14  H   -0.068159
    15  C    1.139682
    16  O   -0.918868
    17  N   -0.604458
    18  H   -0.058387
    19  C    0.723077
    20  H   -0.131384
    21  H   -0.147971
    22  H   -0.088651
 Sum of Mulliken atomic charges =   0.00000

 Dipole moment (field-independent basis, Debye):
    X=              3.8227    Y=              1.4728    Z=             -5.3386  Tot=              6.7293
 Quadrupole moment (field-independent basis, Debye-Ang):
   XX=            -60.2814   YY=            -56.6213   ZZ=            -65.8007
   XY=              5.0632   XZ=              0.9857   YZ=              2.9002

 Normal termination of Gaussian 09 at Mon Feb 13 18:05:32 2017.
