 Gaussian 09, Revision A.02,
 Gaussian 09:  EM64L-G09RevA.02 11-Jun-2009

 -------------------
 #SP MP2/aug-cc-pVDZ
 -------------------

 -------------------------------
 Single Point calculation at MP2
 -------------------------------
 Symbolic Z-matrix:
 Charge =  0 Multiplicity = 1

                         Standard orientation:
 ---------------------------------------------------------------------
 Center     Atomic      Atomic             Coordinates (Angstroms)
 Number     Number       Type             X           Y           Z
 ---------------------------------------------------------------------
      1          1           0        3.802901   -1.376606    0.063306
      2          6           0        3.140600   -0.746307   -0.532794
      3          1           0        2.796900   -1.325907   -1.398094
      4          1           0        3.691700    0.125994   -0.899894
      5          6           0        1.935100   -0.360407    0.305006
      6          8           0        1.545300   -1.020407    1.256806
      7          7           0        1.313000    0.820293   -0.066694
      8          1           0        1.494700    1.108093   -1.022194
      9          6           0       -0.064000    1.020792    0.354406
     10          1           0       -0.078200    0.956792    1.447606
     11          6           0       -0.550701    2.405492   -0.093294
     12          1           0       -0.558201    2.478592   -1.187694
     13          1           0       -1.569201    2.595892    0.257206
     14          1           0        0.107599    3.184892    0.302906
     15          6           0       -0.973800   -0.096708   -0.216994
     16          8           0       -0.642000   -0.762108   -1.189394
     17          7           0       -2.202500   -0.183509    0.372806
     18          1           0       -2.330900    0.279191    1.262506
     19          6           0       -3.172200   -1.198009   -0.008294
     20          1           0       -2.911699   -1.542209   -1.009794
     21          1           0       -3.154399   -2.058209    0.673106
     22          1           0       -4.181100   -0.773009   -0.019294
 ---------------------------------------------------------------------

 SCF Done:  E(RHF) =  -492.925675244     A.U. after   15 cycles
 E2 =    -0.1600606744D+01 EUMP2 =    -0.49452628198819D+03

 The electronic state is 1-A.
 Alpha  occ. eigenvalues --  -20.53209 -20.53056 -15.59587 -15.58849 -11.35834
 Alpha  occ. eigenvalues --  -11.35705 -11.29210 -11.26755 -11.24803 -11.23965
 Alpha  occ. eigenvalues --   -1.39069  -1.37800  -1.23545  -1.23163  -1.05470
 Alpha  occ. eigenvalues --   -0.98920  -0.95711  -0.87556  -0.79480  -0.78013
 Alpha  occ. eigenvalues --   -0.72284  -0.67277  -0.66752  -0.63003  -0.62684
 Alpha  occ. eigenvalues --   -0.61531  -0.59500  -0.57995  -0.57123  -0.56123
 Alpha  occ. eigenvalues --   -0.54699  -0.53963  -0.53313  -0.51123  -0.49786
 Alpha  occ. eigenvalues --   -0.43461  -0.42267  -0.39637  -0.39408
 Alpha virt. eigenvalues --    0.02934   0.03757   0.04366   0.04721   0.05691
 Alpha virt. eigenvalues --    0.06123   0.06164   0.07035   0.07267   0.07896
 Alpha virt. eigenvalues --    0.09026   0.09450   0.10516   0.12006   0.12560

 Mulliken atomic charges:
              1
     1  H   -0.030625
     2  C    0.304528
     3  H    0.079929
     4  H   -0.033801
     5  C    0.664609
     6  O   -0.861744
     7  N   -0.477714
     8  H    0.007610
     9  C   -0.086159
    10  H   -0.185909
    11  C    0.800614
    12  H   -0.046824
    13  H   -0.079903
    14  H   -0.022846
    15  C    1.099319
    16  O   -0.882070
    17  N   -0.471487
    18  H   -0.112190
    19  C    0.697851
    20  H   -0.134931
    21  H   -0.072896
    22  H   -0.155360
 Sum of Mulliken atomic charges =   0.00000

 Dipole moment (field-independent basis, Debye):
    X=             -1.5050    Y=              3.3112    Z=             -0.2302  Tot=              3.6445
 Quadrupole moment (field-independent basis, Debye-Ang):
   XX=            -49.5417   YY=            -61.7501   ZZ=            -64.7860
   XY=              1.5789   XZ=             -9.6106   YZ=              1.0298

 Normal termination of Gaussian 09 at Mon Feb 13 16:49:49 2017.
