 Gaussian 09, Revision A.02,
 Gaussian 09:  EM64L-G09RevA.02 11-Jun-2009

 -------------------
 #SP MP2/aug-cc-pVDZ
 -------------------

 -------------------------------
 Single Point calculation at MP2
 -------------------------------
 Symbolic Z-matrix:
 Charge =  0 Multiplicity = 1

                         Standard orientation:
 ---------------------------------------------------------------------
 Center     Atomic      Atomic             Coordinates (Angstroms)
 Number     Number       Type             X           Y           Z
 ---------------------------------------------------------------------
      1          1           0       -4.134096   -1.210404   -0.030604
      2          6           0       -3.065596   -1.422403    0.029096
      3          1           0       -2.801295   -2.184003   -0.712604
      4          1           0       -2.844796   -1.828503    1.023796
      5          6           0       -2.296497   -0.121602   -0.176104
      6          8           0       -2.821698    0.972097   -0.027204
      7          7           0       -0.989497   -0.309001   -0.581204
      8          1           0       -0.674496   -1.264901   -0.458504
      9          6           0        0.112102    0.646800   -0.408204
     10          1           0        0.349301    1.094100   -1.384604
     11          6           0       -0.144299    1.783000    0.599796
     12          1           0       -0.342699    1.368000    1.592196
     13          1           0        0.752500    2.410801    0.659796
     14          1           0       -0.997300    2.389099    0.299996
     15          6           0        1.325303   -0.155999    0.101996
     16          8           0        1.207204   -1.007499    0.976696
     17          7           0        2.505602    0.135503   -0.512604
     18          1           0        2.512202    0.853203   -1.223404
     19          6           0        3.771803   -0.447996   -0.102204
     20          1           0        3.550304   -1.222196    0.633496
     21          1           0        4.285403   -0.898996   -0.958304
     22          1           0        4.431302    0.300705    0.353196
 ---------------------------------------------------------------------

 SCF Done:  E(RHF) =  -492.916074391     A.U. after   14 cycles
 E2 =    -0.1601955155D+01 EUMP2 =    -0.49451802954608D+03

 The electronic state is 1-A.
 Alpha  occ. eigenvalues --  -20.54206 -20.52936 -15.60951 -15.59096 -11.37054
 Alpha  occ. eigenvalues --  -11.36026 -11.29902 -11.27775 -11.24130 -11.22938
 Alpha  occ. eigenvalues --   -1.39751  -1.38070  -1.24581  -1.23304  -1.05584
 Alpha  occ. eigenvalues --   -0.98821  -0.96404  -0.88262  -0.80364  -0.76562
 Alpha  occ. eigenvalues --   -0.73182  -0.68128  -0.66575  -0.63757  -0.63412
 Alpha  occ. eigenvalues --   -0.62024  -0.60159  -0.58423  -0.56527  -0.55718
 Alpha  occ. eigenvalues --   -0.55250  -0.54440  -0.52463  -0.51859  -0.50093
 Alpha  occ. eigenvalues --   -0.43764  -0.41501  -0.40442  -0.39703
 Alpha virt. eigenvalues --    0.02566   0.04041   0.04186   0.04455   0.05824
 Alpha virt. eigenvalues --    0.06071   0.06415   0.06686   0.07730   0.07987
 Alpha virt. eigenvalues --    0.08981   0.09037   0.11395   0.11945   0.12751

 Mulliken atomic charges:
              1
     1  H   -0.063253
     2  C    0.301328
     3  H   -0.017418
     4  H    0.058140
     5  C    0.676138
     6  O   -0.812580
     7  N   -0.446670
     8  H    0.012785
     9  C   -0.217651
    10  H   -0.250290
    11  C    0.670179
    12  H    0.002134
    13  H   -0.107070
    14  H    0.059660
    15  C    1.233380
    16  O   -0.882217
    17  N   -0.478094
    18  H   -0.111132
    19  C    0.728268
    20  H   -0.145503
    21  H   -0.122521
    22  H   -0.087613
 Sum of Mulliken atomic charges =   0.00000

 Dipole moment (field-independent basis, Debye):
    X=              3.7123    Y=             -0.5625    Z=             -2.3409  Tot=              4.4246
 Quadrupole moment (field-independent basis, Debye-Ang):
   XX=            -58.6592   YY=            -61.3042   ZZ=            -62.6394
   XY=             12.1186   XZ=             -4.7035   YZ=              1.2614

 Normal termination of Gaussian 09 at Sun Feb 12 18:11:57 2017.
