 Gaussian 09, Revision A.02,
 Gaussian 09:  EM64L-G09RevA.02 11-Jun-2009

 -------------------
 #SP MP2/aug-cc-pVDZ
 -------------------

 -------------------------------
 Single Point calculation at MP2
 -------------------------------
 Symbolic Z-matrix:
 Charge =  0 Multiplicity = 1

                         Standard orientation:
 ---------------------------------------------------------------------
 Center     Atomic      Atomic             Coordinates (Angstroms)
 Number     Number       Type             X           Y           Z
 ---------------------------------------------------------------------
      1          1           0       -4.167101   -1.114396    0.075609
      2          6           0       -3.103502   -1.356898    0.082209
      3          1           0       -2.894304   -2.112199   -0.683091
      4          1           0       -2.848403   -1.787299    1.058509
      5          6           0       -2.307399   -0.075100   -0.138491
      6          8           0       -2.798696    1.030701    0.038809
      7          7           0       -1.022099   -0.294403   -0.592391
      8          1           0       -0.718702   -1.255903   -0.468891
      9          6           0        0.111603    0.620995   -0.441591
     10          1           0        0.341104    1.074694   -1.416891
     11          6           0       -0.080095    1.751995    0.589209
     12          1           0       -0.260096    1.333295    1.584209
     13          1           0        0.830807    2.360093    0.630509
     14          1           0       -0.928893    2.379797    0.323909
     15          6           0        1.314801   -0.234008    0.011509
     16          8           0        1.166098   -1.263708    0.662709
     17          7           0        2.528402    0.231789   -0.391191
     18          1           0        2.560604    1.092089   -0.919991
     19          6           0        3.782900   -0.378614    0.016609
     20          1           0        3.541998   -1.318013    0.515509
     21          1           0        4.413100   -0.583615   -0.855391
     22          1           0        4.336702    0.263585    0.712209
 ---------------------------------------------------------------------

 SCF Done:  E(RHF) =  -492.917485016     A.U. after   14 cycles
 E2 =    -0.1601816416D+01 EUMP2 =    -0.49451930143187D+03

 The electronic state is 1-A.
 Alpha  occ. eigenvalues --  -20.54462 -20.52838 -15.60888 -15.58741 -11.37199
 Alpha  occ. eigenvalues --  -11.35897 -11.29931 -11.27814 -11.23980 -11.23262
 Alpha  occ. eigenvalues --   -1.39961  -1.37948  -1.24637  -1.23198  -1.05607
 Alpha  occ. eigenvalues --   -0.98777  -0.96300  -0.88495  -0.80485  -0.76265
 Alpha  occ. eigenvalues --   -0.73210  -0.68103  -0.66499  -0.63918  -0.63402
 Alpha  occ. eigenvalues --   -0.62048  -0.60051  -0.58455  -0.56577  -0.55738
 Alpha  occ. eigenvalues --   -0.55317  -0.54582  -0.52366  -0.52200  -0.50005
 Alpha  occ. eigenvalues --   -0.43805  -0.41609  -0.40655  -0.39433
 Alpha virt. eigenvalues --    0.02598   0.04112   0.04206   0.04419   0.05822
 Alpha virt. eigenvalues --    0.06094   0.06465   0.06765   0.07458   0.08066
 Alpha virt. eigenvalues --    0.09071   0.09272   0.11257   0.11734   0.12927

 Mulliken atomic charges:
              1
     1  H   -0.065166
     2  C    0.296626
     3  H   -0.007087
     4  H    0.054234
     5  C    0.668066
     6  O   -0.817162
     7  N   -0.457884
     8  H    0.019100
     9  C   -0.299606
    10  H   -0.202808
    11  C    0.676614
    12  H   -0.007638
    13  H   -0.126978
    14  H    0.070541
    15  C    1.311313
    16  O   -0.883978
    17  N   -0.499467
    18  H   -0.109416
    19  C    0.724352
    20  H   -0.139342
    21  H   -0.118526
    22  H   -0.085787
 Sum of Mulliken atomic charges =   0.00000

 Dipole moment (field-independent basis, Debye):
    X=              3.8081    Y=             -0.0210    Z=             -1.6333  Tot=              4.1436
 Quadrupole moment (field-independent basis, Debye-Ang):
   XX=            -58.0524   YY=            -62.6517   ZZ=            -61.9532
   XY=             13.2362   XZ=             -3.0454   YZ=              0.7217

 Normal termination of Gaussian 09 at Sun Feb 12 18:12:03 2017.
