 Gaussian 09, Revision A.02,
 Gaussian 09:  EM64L-G09RevA.02 11-Jun-2009

 -------------------
 #SP MP2/aug-cc-pVDZ
 -------------------

 -------------------------------
 Single Point calculation at MP2
 -------------------------------
 Symbolic Z-matrix:
 Charge =  0 Multiplicity = 1

                         Standard orientation:
 ---------------------------------------------------------------------
 Center     Atomic      Atomic             Coordinates (Angstroms)
 Number     Number       Type             X           Y           Z
 ---------------------------------------------------------------------
      1          1           0       -3.671714   -1.687278    0.514705
      2          6           0       -3.030312   -1.411483   -0.324695
      3          1           0       -3.677710   -1.081378   -1.145995
      4          1           0       -2.472819   -2.292587   -0.660195
      5          6           0       -2.138104   -0.250289    0.109605
      6          8           0       -2.525598    0.585314    0.908505
      7          7           0       -0.884704   -0.265498   -0.476595
      8          1           0       -0.788009   -0.948498   -1.218295
      9          6           0        0.114203    0.815595   -0.563395
     10          1           0        0.175605    1.124895   -1.616395
     11          6           0       -0.192188    2.068197    0.267405
     12          1           0       -0.271590    1.838698    1.331405
     13          1           0        0.636317    2.763192    0.111205
     14          1           0       -1.127285    2.533704   -0.046195
     15          6           0        1.541900    0.320085   -0.225395
     16          8           0        2.493405    1.084479   -0.328695
     17          7           0        1.662690   -1.000915    0.092705
     18          1           0        0.809987   -1.478009    0.353805
     19          6           0        2.936287   -1.566924    0.505605
     20          1           0        3.729691   -0.969030    0.055005
     21          1           0        3.062987   -1.546325    1.596005
     22          1           0        3.015479   -2.601925    0.158905
 ---------------------------------------------------------------------

 SCF Done:  E(RHF) =  -492.914883606     A.U. after   14 cycles
 E2 =    -0.1602100803D+01 EUMP2 =    -0.49451698440866D+03

 The electronic state is 1-A.
 Alpha  occ. eigenvalues --  -20.54026 -20.53135 -15.61000 -15.59879 -11.37613
 Alpha  occ. eigenvalues --  -11.36080 -11.30041 -11.27109 -11.25732 -11.22359
 Alpha  occ. eigenvalues --   -1.39516  -1.38575  -1.25505  -1.22799  -1.05799
 Alpha  occ. eigenvalues --   -0.99594  -0.96165  -0.88178  -0.80134  -0.76974
 Alpha  occ. eigenvalues --   -0.72937  -0.70038  -0.67112  -0.63463  -0.62568
 Alpha  occ. eigenvalues --   -0.62189  -0.60533  -0.59621  -0.57169  -0.55353
 Alpha  occ. eigenvalues --   -0.55051  -0.53404  -0.52422  -0.52070  -0.50168
 Alpha  occ. eigenvalues --   -0.44527  -0.42845  -0.39836  -0.39435
 Alpha virt. eigenvalues --    0.02231   0.03640   0.04137   0.04668   0.05548
 Alpha virt. eigenvalues --    0.06044   0.06448   0.06477   0.07301   0.08219
 Alpha virt. eigenvalues --    0.08378   0.09034   0.10758   0.12376   0.12497

 Mulliken atomic charges:
              1
     1  H   -0.004990
     2  C    0.360244
     3  H    0.051625
     4  H   -0.103423
     5  C    0.679318
     6  O   -0.800479
     7  N   -0.400811
     8  H   -0.067743
     9  C   -0.268392
    10  H   -0.016545
    11  C    0.707106
    12  H   -0.002603
    13  H   -0.082489
    14  H    0.006295
    15  C    0.961510
    16  O   -0.858713
    17  N   -0.501608
    18  H   -0.059689
    19  C    0.750290
    20  H   -0.125120
    21  H   -0.072864
    22  H   -0.150920
 Sum of Mulliken atomic charges =   0.00000

 Dipole moment (field-independent basis, Debye):
    X=             -1.2381    Y=             -4.8081    Z=             -1.9437  Tot=              5.3318
 Quadrupole moment (field-independent basis, Debye-Ang):
   XX=            -71.1789   YY=            -58.7567   ZZ=            -60.8507
   XY=             -1.5951   XZ=              8.9248   YZ=             -1.1032

 Normal termination of Gaussian 09 at Sun Feb 12 18:09:17 2017.
