 Gaussian 09, Revision A.02,
 Gaussian 09:  EM64L-G09RevA.02 11-Jun-2009

 -------------------
 #SP MP2/aug-cc-pVDZ
 -------------------

 -------------------------------
 Single Point calculation at MP2
 -------------------------------
 Symbolic Z-matrix:
 Charge =  0 Multiplicity = 1

                         Standard orientation:
 ---------------------------------------------------------------------
 Center     Atomic      Atomic             Coordinates (Angstroms)
 Number     Number       Type             X           Y           Z
 ---------------------------------------------------------------------
      1          1           0        3.449296   -1.834792   -0.655704
      2          6           0        3.031096   -1.413392    0.261696
      3          1           0        3.866996   -1.034692    0.860496
      4          1           0        2.529297   -2.205893    0.826296
      5          6           0        2.124495   -0.243493   -0.113304
      6          8           0        2.457394    0.566407   -0.968004
      7          7           0        0.945395   -0.202994    0.588096
      8          1           0        0.827696   -0.911494    1.300396
      9          6           0       -0.097506    0.835905    0.621496
     10          1           0       -0.107506    1.266305    1.629996
     11          6           0        0.069693    1.978705   -0.385004
     12          1           0        0.099294    1.636405   -1.421304
     13          1           0       -0.779007    2.661104   -0.263004
     14          1           0        0.994793    2.527006   -0.204204
     15          6           0       -1.469205    0.128004    0.511796
     16          8           0       -2.193105   -0.001597    1.492596
     17          7           0       -1.788205   -0.332896   -0.730404
     18          1           0       -1.093905   -0.255296   -1.460204
     19          6           0       -3.000404   -1.084797   -1.002004
     20          1           0       -3.632104   -1.017598   -0.115404
     21          1           0       -3.533905   -0.662398   -1.860604
     22          1           0       -2.784603   -2.141497   -1.205404
 ---------------------------------------------------------------------

 SCF Done:  E(RHF) =  -492.914773499     A.U. after   14 cycles
 E2 =    -0.1601054585D+01 EUMP2 =    -0.49451582808442D+03

 The electronic state is 1-A.
 Alpha  occ. eigenvalues --  -20.53727 -20.53374 -15.60741 -15.59805 -11.37220
 Alpha  occ. eigenvalues --  -11.36243 -11.29933 -11.27125 -11.25241 -11.23626
 Alpha  occ. eigenvalues --   -1.39149  -1.38635  -1.24949  -1.23155  -1.06084
 Alpha  occ. eigenvalues --   -0.99525  -0.95790  -0.89400  -0.79838  -0.77687
 Alpha  occ. eigenvalues --   -0.72665  -0.69501  -0.66779  -0.64388  -0.62347
 Alpha  occ. eigenvalues --   -0.62033  -0.59648  -0.59151  -0.57028  -0.56047
 Alpha  occ. eigenvalues --   -0.55236  -0.54165  -0.53253  -0.52123  -0.51280
 Alpha  occ. eigenvalues --   -0.44229  -0.42216  -0.39875  -0.39009
 Alpha virt. eigenvalues --    0.02847   0.03737   0.04200   0.04904   0.05562
 Alpha virt. eigenvalues --    0.05895   0.06224   0.06676   0.07396   0.07741
 Alpha virt. eigenvalues --    0.08903   0.09189   0.11338   0.11898   0.12458

 Mulliken atomic charges:
              1
     1  H    0.021002
     2  C    0.382194
     3  H    0.056425
     4  H   -0.140333
     5  C    0.634320
     6  O   -0.823403
     7  N   -0.399341
     8  H   -0.096755
     9  C    0.295437
    10  H   -0.236975
    11  C    0.760400
    12  H   -0.031244
    13  H   -0.089995
    14  H   -0.008990
    15  C    0.770430
    16  O   -0.835615
    17  N   -0.578675
    18  H   -0.063720
    19  C    0.722894
    20  H   -0.144531
    21  H   -0.105709
    22  H   -0.087817
 Sum of Mulliken atomic charges =   0.00000

 Dipole moment (field-independent basis, Debye):
    X=              0.4335    Y=             -2.1748    Z=             -0.7131  Tot=              2.3294
 Quadrupole moment (field-independent basis, Debye-Ang):
   XX=            -67.7603   YY=            -57.4608   ZZ=            -64.5860
   XY=             -4.7416   XZ=             15.1848   YZ=              1.7337

 Normal termination of Gaussian 09 at Sun Feb 12 18:13:17 2017.
