 Gaussian 09, Revision A.02,
 Gaussian 09:  EM64L-G09RevA.02 11-Jun-2009

 -------------------
 #SP MP2/aug-cc-pVDZ
 -------------------

 -------------------------------
 Single Point calculation at MP2
 -------------------------------
 Symbolic Z-matrix:
 Charge =  0 Multiplicity = 1

                         Standard orientation:
 ---------------------------------------------------------------------
 Center     Atomic      Atomic             Coordinates (Angstroms)
 Number     Number       Type             X           Y           Z
 ---------------------------------------------------------------------
      1          1           0       -3.552001   -1.787313    0.388900
      2          6           0       -3.034501   -1.336113   -0.460800
      3          1           0       -3.796101   -0.897313   -1.115600
      4          1           0       -2.506501   -2.116513   -1.018800
      5          6           0       -2.129201   -0.222113    0.060500
      6          8           0       -2.489801    0.516287    0.963300
      7          7           0       -0.908301   -0.150513   -0.577800
      8          1           0       -0.798901   -0.776913   -1.365000
      9          6           0        0.125499    0.894187   -0.513800
     10          1           0        0.155399    1.406587   -1.483700
     11          6           0       -0.073901    1.958887    0.574800
     12          1           0       -0.092501    1.518487    1.573900
     13          1           0        0.769199    2.652787    0.504200
     14          1           0       -1.006601    2.504887    0.431800
     15          6           0        1.535699    0.283787   -0.355200
     16          8           0        2.517299    0.883387   -0.777400
     17          7           0        1.590999   -0.903513    0.309100
     18          1           0        0.718899   -1.288713    0.644400
     19          6           0        2.842599   -1.558713    0.640700
     20          1           0        3.642399   -1.001113    0.151100
     21          1           0        3.019899   -1.559113    1.723200
     22          1           0        2.850799   -2.594513    0.282100
 ---------------------------------------------------------------------

 SCF Done:  E(RHF) =  -492.916512042     A.U. after   14 cycles
 E2 =    -0.1602064638D+01 EUMP2 =    -0.49451857668040D+03

 The electronic state is 1-A.
 Alpha  occ. eigenvalues --  -20.53861 -20.53117 -15.61040 -15.59849 -11.37607
 Alpha  occ. eigenvalues --  -11.36062 -11.29901 -11.27135 -11.25682 -11.22940
 Alpha  occ. eigenvalues --   -1.39415  -1.38493  -1.25492  -1.22879  -1.05996
 Alpha  occ. eigenvalues --   -0.99700  -0.96113  -0.88621  -0.79963  -0.77610
 Alpha  occ. eigenvalues --   -0.73028  -0.69736  -0.67184  -0.63166  -0.62893
 Alpha  occ. eigenvalues --   -0.62191  -0.60113  -0.59689  -0.57152  -0.56106
 Alpha  occ. eigenvalues --   -0.55068  -0.53599  -0.52921  -0.52162  -0.50399
 Alpha  occ. eigenvalues --   -0.44303  -0.42531  -0.39952  -0.39159
 Alpha virt. eigenvalues --    0.02378   0.03706   0.04280   0.04558   0.05534
 Alpha virt. eigenvalues --    0.06034   0.06231   0.06585   0.07291   0.08145
 Alpha virt. eigenvalues --    0.08462   0.09057   0.10939   0.12128   0.12513

 Mulliken atomic charges:
              1
     1  H    0.013482
     2  C    0.345907
     3  H    0.054458
     4  H   -0.134749
     5  C    0.694308
     6  O   -0.827834
     7  N   -0.281254
     8  H   -0.084095
     9  C   -0.199203
    10  H   -0.168457
    11  C    0.686770
    12  H   -0.005473
    13  H   -0.080807
    14  H    0.007170
    15  C    1.105233
    16  O   -0.877794
    17  N   -0.613232
    18  H   -0.049459
    19  C    0.744606
    20  H   -0.141076
    21  H   -0.084643
    22  H   -0.103860
 Sum of Mulliken atomic charges =   0.00000

 Dipole moment (field-independent basis, Debye):
    X=             -1.3601    Y=             -4.1623    Z=             -1.1927  Tot=              4.5384
 Quadrupole moment (field-independent basis, Debye-Ang):
   XX=            -71.6379   YY=            -57.9055   ZZ=            -61.8978
   XY=             -1.2282   XZ=             12.0965   YZ=             -0.0318

 Normal termination of Gaussian 09 at Sun Feb 12 18:58:56 2017.
