 Gaussian 09, Revision A.02,
 Gaussian 09:  EM64L-G09RevA.02 11-Jun-2009

 -------------------
 #SP MP2/aug-cc-pVDZ
 -------------------

 -------------------------------
 Single Point calculation at MP2
 -------------------------------
 Symbolic Z-matrix:
 Charge =  0 Multiplicity = 1

                         Standard orientation:
 ---------------------------------------------------------------------
 Center     Atomic      Atomic             Coordinates (Angstroms)
 Number     Number       Type             X           Y           Z
 ---------------------------------------------------------------------
      1          1           0       -4.071221   -1.156670    0.005701
      2          6           0       -3.089722   -1.301678    0.466701
      3          1           0       -2.666529   -2.248081    0.116401
      4          1           0       -3.244322   -1.361277    1.548801
      5          6           0       -2.227612   -0.077885    0.166101
      6          8           0       -2.612703    1.048518    0.458601
      7          7           0       -1.044915   -0.371594   -0.453499
      8          1           0       -0.811322   -1.347196   -0.594499
      9          6           0        0.087492    0.500297   -0.780899
     10          1           0        0.157893    0.567596   -1.878099
     11          6           0       -0.006396    1.925997   -0.230999
     12          1           0       -0.027696    1.946798    0.862601
     13          1           0        0.851708    2.506491   -0.592199
     14          1           0       -0.918592    2.411505   -0.573599
     15          6           0        1.341886   -0.307513   -0.356599
     16          8           0        1.409176   -1.500014   -0.650399
     17          7           0        2.309291    0.346079    0.334401
     18          1           0        2.167599    1.316180    0.570701
     19          6           0        3.531486   -0.305631    0.776701
     20          1           0        3.483378   -1.346030    0.453901
     21          1           0        4.413890    0.170362    0.333801
     22          1           0        3.619986   -0.270631    1.868501
 ---------------------------------------------------------------------

 SCF Done:  E(RHF) =  -492.916466873     A.U. after   14 cycles
 E2 =    -0.1601775936D+01 EUMP2 =    -0.49451824280821D+03

 The electronic state is 1-A.
 Alpha  occ. eigenvalues --  -20.53856 -20.52199 -15.60840 -15.59329 -11.37011
 Alpha  occ. eigenvalues --  -11.36136 -11.30238 -11.27641 -11.24139 -11.23837
 Alpha  occ. eigenvalues --   -1.39549  -1.37597  -1.24525  -1.23503  -1.05891
 Alpha  occ. eigenvalues --   -0.98845  -0.96065  -0.89788  -0.80709  -0.76561
 Alpha  occ. eigenvalues --   -0.72987  -0.68776  -0.66148  -0.65450  -0.62561
 Alpha  occ. eigenvalues --   -0.61697  -0.59243  -0.58754  -0.56571  -0.55955
 Alpha  occ. eigenvalues --   -0.55659  -0.54552  -0.53057  -0.52197  -0.50335
 Alpha  occ. eigenvalues --   -0.43963  -0.41439  -0.40316  -0.38651
 Alpha virt. eigenvalues --    0.02832   0.04018   0.04139   0.04697   0.05572
 Alpha virt. eigenvalues --    0.06278   0.06464   0.06606   0.07281   0.07875
 Alpha virt. eigenvalues --    0.09536   0.09868   0.10651   0.11444   0.13078

 Mulliken atomic charges:
              1
     1  H    0.037984
     2  C    0.393706
     3  H   -0.181539
     4  H    0.032675
     5  C    0.580569
     6  O   -0.842577
     7  N   -0.425233
     8  H   -0.040058
     9  C   -0.006538
    10  H   -0.022402
    11  C    0.823573
    12  H    0.044729
    13  H   -0.068005
    14  H   -0.091204
    15  C    0.976551
    16  O   -0.913994
    17  N   -0.560956
    18  H   -0.120891
    19  C    0.731655
    20  H   -0.149545
    21  H   -0.102996
    22  H   -0.095506
 Sum of Mulliken atomic charges =   0.00000

 Dipole moment (field-independent basis, Debye):
    X=              2.6978    Y=              0.4711    Z=              0.4335  Tot=              2.7727
 Quadrupole moment (field-independent basis, Debye-Ang):
   XX=            -59.9429   YY=            -64.1516   ZZ=            -60.7207
   XY=             14.3761   XZ=              5.5870   YZ=             -3.6379

 Normal termination of Gaussian 09 at Sun Feb 12 18:48:31 2017.
