 Gaussian 09, Revision A.02,
 Gaussian 09:  EM64L-G09RevA.02 11-Jun-2009

 -------------------
 #SP MP2/aug-cc-pVDZ
 -------------------

 -------------------------------
 Single Point calculation at MP2
 -------------------------------
 Symbolic Z-matrix:
 Charge =  0 Multiplicity = 1

                         Standard orientation:
 ---------------------------------------------------------------------
 Center     Atomic      Atomic             Coordinates (Angstroms)
 Number     Number       Type             X           Y           Z
 ---------------------------------------------------------------------
      1          1           0       -3.971485   -1.553337   -0.092905
      2          6           0       -2.921085   -1.615429    0.197495
      3          1           0       -2.456079   -2.471626   -0.303105
      4          1           0       -2.876684   -1.786729    1.279595
      5          6           0       -2.248094   -0.284525   -0.127605
      6          8           0       -2.869002    0.767971   -0.108505
      7          7           0       -0.914293   -0.401115   -0.445705
      8          1           0       -0.536687   -1.335413   -0.362505
      9          6           0        0.103299    0.659992   -0.508505
     10          1           0        0.339698    0.850293   -1.567305
     11          6           0       -0.291610    1.986889    0.149095
     12          1           0       -0.473409    1.835388    1.215295
     13          1           0        0.543585    2.688495    0.038595
     14          1           0       -1.185913    2.406683   -0.306805
     15          6           0        1.359303    0.115201    0.209095
     16          8           0        1.403804   -0.017099    1.424595
     17          7           0        2.375706   -0.254792   -0.626905
     18          1           0        2.283304   -0.054393   -1.612605
     19          6           0        3.650209   -0.753283   -0.137605
     20          1           0        3.538910   -0.936584    0.931895
     21          1           0        3.919916   -1.688181   -0.640905
     22          1           0        4.454404   -0.023278   -0.291505
 ---------------------------------------------------------------------

 SCF Done:  E(RHF) =  -492.912533083     A.U. after   14 cycles
 E2 =    -0.1602176712D+01 EUMP2 =    -0.49451470979529D+03

 The electronic state is 1-A.
 Alpha  occ. eigenvalues --  -20.53882 -20.52798 -15.60965 -15.59898 -11.36783
 Alpha  occ. eigenvalues --  -11.36361 -11.30012 -11.27732 -11.24492 -11.22187
 Alpha  occ. eigenvalues --   -1.39450  -1.38115  -1.24644  -1.23486  -1.05566
 Alpha  occ. eigenvalues --   -0.98858  -0.96575  -0.88030  -0.80155  -0.77244
 Alpha  occ. eigenvalues --   -0.73050  -0.68682  -0.66662  -0.64420  -0.62830
 Alpha  occ. eigenvalues --   -0.62031  -0.60192  -0.58642  -0.56446  -0.55659
 Alpha  occ. eigenvalues --   -0.54781  -0.53744  -0.52747  -0.51152  -0.50446
 Alpha  occ. eigenvalues --   -0.44043  -0.41378  -0.40405  -0.39271
 Alpha virt. eigenvalues --    0.02320   0.03702   0.04091   0.04586   0.05677
 Alpha virt. eigenvalues --    0.06111   0.06249   0.06657   0.07765   0.07957
 Alpha virt. eigenvalues --    0.08650   0.09189   0.11540   0.12054   0.12394

 Mulliken atomic charges:
              1
     1  H   -0.028642
     2  C    0.350902
     3  H   -0.091302
     4  H    0.063919
     5  C    0.673649
     6  O   -0.812983
     7  N   -0.393206
     8  H   -0.039799
     9  C   -0.166105
    10  H   -0.252618
    11  C    0.699995
    12  H    0.020492
    13  H   -0.083138
    14  H    0.070953
    15  C    1.012536
    16  O   -0.817935
    17  N   -0.474410
    18  H   -0.111726
    19  C    0.733271
    20  H   -0.146521
    21  H   -0.123356
    22  H   -0.083978
 Sum of Mulliken atomic charges =   0.00000

 Dipole moment (field-independent basis, Debye):
    X=              3.3656    Y=             -2.7465    Z=             -3.4363  Tot=              5.5388
 Quadrupole moment (field-independent basis, Debye-Ang):
   XX=            -62.1361   YY=            -58.1790   ZZ=            -63.7461
   XY=              7.3001   XZ=             -7.4659   YZ=             -0.2553

 Normal termination of Gaussian 09 at Sun Feb 12 18:07:12 2017.
