 Gaussian 09, Revision A.02,
 Gaussian 09:  EM64L-G09RevA.02 11-Jun-2009

 -------------------------------------------
 # HF/6-31G* Opt=(ModRedundant) geom=nocrowd
 -------------------------------------------

 ------------------
 Phi Psi fixed scan
 ------------------
 Symbolic Z-matrix:
 Charge =  0 Multiplicity = 1

 SCF Done:  E(RHF) =  -492.832707358     A.U. after   15 cycles
 SCF Done:  E(RHF) =  -492.848841230     A.U. after   14 cycles
 SCF Done:  E(RHF) =  -492.852259686     A.U. after   13 cycles
 SCF Done:  E(RHF) =  -492.852829373     A.U. after   13 cycles
 SCF Done:  E(RHF) =  -492.853265517     A.U. after   13 cycles
 SCF Done:  E(RHF) =  -492.853673717     A.U. after   12 cycles
 SCF Done:  E(RHF) =  -492.853865415     A.U. after   13 cycles
 SCF Done:  E(RHF) =  -492.854042483     A.U. after   13 cycles
 SCF Done:  E(RHF) =  -492.854130594     A.U. after   11 cycles
 SCF Done:  E(RHF) =  -492.854364913     A.U. after   13 cycles
 SCF Done:  E(RHF) =  -492.854549062     A.U. after   14 cycles
 SCF Done:  E(RHF) =  -492.854702775     A.U. after   11 cycles
 SCF Done:  E(RHF) =  -492.854898941     A.U. after   12 cycles
 SCF Done:  E(RHF) =  -492.854905537     A.U. after   11 cycles
 SCF Done:  E(RHF) =  -492.854912283     A.U. after   10 cycles
 SCF Done:  E(RHF) =  -492.854914084     A.U. after    9 cycles
 SCF Done:  E(RHF) =  -492.854915273     A.U. after    9 cycles
 SCF Done:  E(RHF) =  -492.854915530     A.U. after    9 cycles
 Optimization completed.
    -- Stationary point found.

                         Standard orientation:
 ---------------------------------------------------------------------
 Center     Atomic      Atomic             Coordinates (Angstroms)
 Number     Number       Type             X           Y           Z
 ---------------------------------------------------------------------
      1          1           0       -3.487331   -1.701933    0.078044
      2          6           0       -3.191273   -0.786580   -0.413185
      3          1           0       -3.906575   -0.011330   -0.156406
      4          1           0       -3.211811   -0.925545   -1.488063
      5          6           0       -1.824042   -0.379376    0.092245
      6          8           0       -1.416021   -0.732090    1.169678
      7          7           0       -1.101182    0.395842   -0.745683
      8          1           0       -1.511977    0.613292   -1.624039
      9          6           0        0.109568    1.141833   -0.412994
     10          1           0        0.309280    1.756207   -1.280492
     11          6           0       -0.071789    2.073057    0.791418
     12          1           0       -0.266567    1.510622    1.694201
     13          1           0        0.826398    2.660324    0.927263
     14          1           0       -0.905545    2.744169    0.614332
     15          6           0        1.398552    0.325389   -0.256367
     16          8           0        2.445038    0.917002   -0.302406
     17          7           0        1.310128   -1.011454   -0.124748
     18          1           0        0.452542   -1.370773    0.230004
     19          6           0        2.507069   -1.786166    0.131351
     20          1           0        3.252441   -1.561501   -0.617077
     21          1           0        2.930221   -1.575400    1.108137
     22          1           0        2.255655   -2.837084    0.074130
 ---------------------------------------------------------------------

 The electronic state is 1-A.
 Alpha  occ. eigenvalues --  -20.53868 -20.51495 -15.60060 -15.57107 -11.36485
 Alpha  occ. eigenvalues --  -11.33739 -11.28546 -11.24646 -11.24537 -11.21780
 Alpha  occ. eigenvalues --   -1.40736  -1.38396  -1.25247  -1.21978  -1.05911
 Alpha  occ. eigenvalues --   -1.00081  -0.95039  -0.88535  -0.80652  -0.77161
 Alpha  occ. eigenvalues --   -0.72538  -0.70347  -0.65421  -0.63502  -0.62363
 Alpha  occ. eigenvalues --   -0.61699  -0.60329  -0.59241  -0.57832  -0.56181
 Alpha  occ. eigenvalues --   -0.54560  -0.54289  -0.52387  -0.52081  -0.49455
 Alpha  occ. eigenvalues --   -0.43472  -0.43202  -0.39384  -0.37652
 Alpha virt. eigenvalues --    0.18136   0.19281   0.21348   0.25628   0.26216
 Alpha virt. eigenvalues --    0.28245   0.29247   0.30786   0.31033   0.32271
 Alpha virt. eigenvalues --    0.33161   0.34057   0.34517   0.35211   0.37327

 Mulliken atomic charges:
              1
     1  H    0.217228
     2  C   -0.583879
     3  H    0.204832
     4  H    0.178324
     5  C    0.744862
     6  O   -0.625173
     7  N   -0.810049
     8  H    0.390159
     9  C   -0.024038
    10  H    0.212868
    11  C   -0.504118
    12  H    0.209442
    13  H    0.203771
    14  H    0.162074
    15  C    0.759071
    16  O   -0.622265
    17  N   -0.798461
    18  H    0.423569
    19  C   -0.278543
    20  H    0.197387
    21  H    0.175779
    22  H    0.167163
 Sum of Mulliken atomic charges =   0.00000

 Dipole moment (field-independent basis, Debye):
    X=             -4.0620    Y=             -0.6095    Z=             -2.5181  Tot=              4.8179
 Quadrupole moment (field-independent basis, Debye-Ang):
   XX=            -62.1332   YY=            -57.7637   ZZ=            -61.1401
   XY=             -7.3495   XZ=              7.3260   YZ=              0.4796

 Normal termination of Gaussian 09 at Thu Feb  9 20:34:18 2017.
