 Gaussian 09, Revision A.02,
 Gaussian 09:  EM64L-G09RevA.02 11-Jun-2009

 -------------------------------------------
 # HF/6-31G* Opt=(ModRedundant) geom=nocrowd
 -------------------------------------------

 ------------------
 Phi Psi fixed scan
 ------------------
 Symbolic Z-matrix:
 Charge =  0 Multiplicity = 1

 SCF Done:  E(RHF) =  -492.829552930     A.U. after   15 cycles
 SCF Done:  E(RHF) =  -492.841557638     A.U. after   14 cycles
 SCF Done:  E(RHF) =  -492.844077608     A.U. after   13 cycles
 SCF Done:  E(RHF) =  -492.844196472     A.U. after   12 cycles
 SCF Done:  E(RHF) =  -492.844502555     A.U. after   12 cycles
 SCF Done:  E(RHF) =  -492.844597649     A.U. after   12 cycles
 SCF Done:  E(RHF) =  -492.844768490     A.U. after   13 cycles
 SCF Done:  E(RHF) =  -492.844879778     A.U. after   13 cycles
 SCF Done:  E(RHF) =  -492.845033791     A.U. after   13 cycles
 SCF Done:  E(RHF) =  -492.845279075     A.U. after   13 cycles
 SCF Done:  E(RHF) =  -492.845405066     A.U. after   12 cycles
 SCF Done:  E(RHF) =  -492.845500906     A.U. after   11 cycles
 SCF Done:  E(RHF) =  -492.845577792     A.U. after   11 cycles
 SCF Done:  E(RHF) =  -492.845797613     A.U. after   12 cycles
 SCF Done:  E(RHF) =  -492.845906850     A.U. after   12 cycles
 SCF Done:  E(RHF) =  -492.845916297     A.U. after   12 cycles
 SCF Done:  E(RHF) =  -492.845918946     A.U. after   11 cycles
 SCF Done:  E(RHF) =  -492.845919898     A.U. after    9 cycles
 SCF Done:  E(RHF) =  -492.845920264     A.U. after    8 cycles
 SCF Done:  E(RHF) =  -492.845920346     A.U. after    8 cycles
 Optimization completed.
    -- Stationary point found.

                         Standard orientation:
 ---------------------------------------------------------------------
 Center     Atomic      Atomic             Coordinates (Angstroms)
 Number     Number       Type             X           Y           Z
 ---------------------------------------------------------------------
      1          1           0       -3.495417   -1.684152    0.762548
      2          6           0       -3.072082   -1.257771   -0.134788
      3          1           0       -3.811859   -0.608572   -0.594196
      4          1           0       -2.833304   -2.048893   -0.837283
      5          6           0       -1.848647   -0.446140    0.240993
      6          8           0       -1.635569   -0.092602    1.362070
      7          7           0       -1.012492   -0.167174   -0.804138
      8          1           0       -1.372015   -0.369441   -1.709573
      9          6           0        0.061015    0.827161   -0.765780
     10          1           0        0.401091    0.907436   -1.792258
     11          6           0       -0.383294    2.204959   -0.286214
     12          1           0       -0.675409    2.175209    0.751368
     13          1           0        0.431523    2.911770   -0.392379
     14          1           0       -1.218363    2.550048   -0.888187
     15          6           0        1.256782    0.307566    0.048235
     16          8           0        1.564642    0.762113    1.109511
     17          7           0        2.006935   -0.627614   -0.595404
     18          1           0        1.564913   -1.125065   -1.335193
     19          6           0        3.075971   -1.311788    0.102973
     20          1           0        3.715776   -0.582583    0.576248
     21          1           0        2.704146   -1.987472    0.866880
     22          1           0        3.656760   -1.874772   -0.616344
 ---------------------------------------------------------------------

 The electronic state is 1-A.
 Alpha  occ. eigenvalues --  -20.52836 -20.52106 -15.59394 -15.57922 -11.35245
 Alpha  occ. eigenvalues --  -11.33843 -11.28422 -11.25188 -11.23750 -11.20913
 Alpha  occ. eigenvalues --   -1.39857  -1.38797  -1.24579  -1.22313  -1.05342
 Alpha  occ. eigenvalues --   -0.99326  -0.95567  -0.87515  -0.80367  -0.76968
 Alpha  occ. eigenvalues --   -0.71215  -0.69686  -0.64980  -0.64351  -0.62435
 Alpha  occ. eigenvalues --   -0.61382  -0.60178  -0.58799  -0.57000  -0.56120
 Alpha  occ. eigenvalues --   -0.54666  -0.52709  -0.51950  -0.51178  -0.50928
 Alpha  occ. eigenvalues --   -0.43392  -0.41559  -0.38821  -0.38515
 Alpha virt. eigenvalues --    0.18137   0.19629   0.21606   0.24200   0.26196
 Alpha virt. eigenvalues --    0.27527   0.28734   0.30217   0.31310   0.32037
 Alpha virt. eigenvalues --    0.32392   0.33532   0.34469   0.35068   0.37504

 Mulliken atomic charges:
              1
     1  H    0.220124
     2  C   -0.592889
     3  H    0.193558
     4  H    0.177975
     5  C    0.744696
     6  O   -0.573042
     7  N   -0.817809
     8  H    0.378524
     9  C   -0.058919
    10  H    0.190435
    11  C   -0.483793
    12  H    0.238079
    13  H    0.173091
    14  H    0.149311
    15  C    0.789654
    16  O   -0.585123
    17  N   -0.783428
    18  H    0.373144
    19  C   -0.280819
    20  H    0.207074
    21  H    0.175150
    22  H    0.165005
 Sum of Mulliken atomic charges =   0.00000

 Dipole moment (field-independent basis, Debye):
    X=             -1.2517    Y=             -2.4887    Z=             -6.2449  Tot=              6.8381
 Quadrupole moment (field-independent basis, Debye-Ang):
   XX=            -55.0968   YY=            -57.3005   ZZ=            -63.6396
   XY=             -2.3653   XZ=              2.2299   YZ=             -1.0083

 Normal termination of Gaussian 09 at Thu Feb  9 19:33:06 2017.
