 Gaussian 09, Revision A.02,
 Gaussian 09:  EM64L-G09RevA.02 11-Jun-2009

 -------------------------------------------
 # HF/6-31G* Opt=(ModRedundant) geom=nocrowd
 -------------------------------------------

 ------------------
 Phi Psi fixed scan
 ------------------
 Symbolic Z-matrix:
 Charge =  0 Multiplicity = 1

 SCF Done:  E(RHF) =  -492.839310093     A.U. after   15 cycles
 SCF Done:  E(RHF) =  -492.851555183     A.U. after   16 cycles
 SCF Done:  E(RHF) =  -492.855411219     A.U. after   14 cycles
 SCF Done:  E(RHF) =  -492.856016811     A.U. after   12 cycles
 SCF Done:  E(RHF) =  -492.856223399     A.U. after   13 cycles
 SCF Done:  E(RHF) =  -492.856345759     A.U. after   12 cycles
 SCF Done:  E(RHF) =  -492.856367347     A.U. after   12 cycles
 SCF Done:  E(RHF) =  -492.856402252     A.U. after   11 cycles
 SCF Done:  E(RHF) =  -492.856407348     A.U. after   10 cycles
 SCF Done:  E(RHF) =  -492.856411548     A.U. after   10 cycles
 SCF Done:  E(RHF) =  -492.806691894     A.U. after   16 cycles
 SCF Done:  E(RHF) =  -492.856689818     A.U. after   16 cycles
 SCF Done:  E(RHF) =  -492.856823531     A.U. after   12 cycles
 SCF Done:  E(RHF) =  -492.856925308     A.U. after   12 cycles
 SCF Done:  E(RHF) =  -492.856899718     A.U. after   12 cycles
 SCF Done:  E(RHF) =  -492.856888406     A.U. after   13 cycles
 SCF Done:  E(RHF) =  -492.857002886     A.U. after   12 cycles
 SCF Done:  E(RHF) =  -492.857023233     A.U. after   11 cycles
 SCF Done:  E(RHF) =  -492.857025474     A.U. after   10 cycles
 SCF Done:  E(RHF) =  -492.857025639     A.U. after    9 cycles
 Optimization completed.
    -- Stationary point found.

                         Standard orientation:
 ---------------------------------------------------------------------
 Center     Atomic      Atomic             Coordinates (Angstroms)
 Number     Number       Type             X           Y           Z
 ---------------------------------------------------------------------
      1          1           0       -3.242382   -1.844517   -0.563421
      2          6           0       -3.133347   -0.771121   -0.634741
      3          1           0       -3.938603   -0.315163   -0.068727
      4          1           0       -3.221210   -0.465488   -1.670246
      5          6           0       -1.818602   -0.374694    0.001285
      6          8           0       -1.444636   -0.897153    1.023281
      7          7           0       -1.131720    0.597814   -0.630618
      8          1           0       -1.490734    0.915400   -1.500661
      9          6           0        0.109898    1.233353   -0.187215
     10          1           0        0.271652    2.045871   -0.879517
     11          6           0        0.019068    1.818812    1.224514
     12          1           0       -0.142922    1.055332    1.970570
     13          1           0        0.940539    2.343228    1.453330
     14          1           0       -0.798990    2.529215    1.274154
     15          6           0        1.356602    0.355594   -0.366416
     16          8           0        2.273548    0.757528   -1.035680
     17          7           0        1.377679   -0.818977    0.279705
     18          1           0        0.569626   -1.102817    0.789217
     19          6           0        2.513766   -1.707204    0.176548
     20          1           0        3.417954   -1.218201    0.515973
     21          1           0        2.328491   -2.573969    0.796561
     22          1           0        2.669255   -2.032196   -0.845501
 ---------------------------------------------------------------------

 The electronic state is 1-A.
 Alpha  occ. eigenvalues --  -20.53772 -20.51312 -15.60353 -15.56750 -11.36612
 Alpha  occ. eigenvalues --  -11.33383 -11.28388 -11.24686 -11.24462 -11.22241
 Alpha  occ. eigenvalues --   -1.40629  -1.38034  -1.25257  -1.21837  -1.06076
 Alpha  occ. eigenvalues --   -1.00174  -0.94895  -0.88969  -0.80748  -0.77148
 Alpha  occ. eigenvalues --   -0.72527  -0.70492  -0.65434  -0.63367  -0.62517
 Alpha  occ. eigenvalues --   -0.61555  -0.60211  -0.58793  -0.57770  -0.56722
 Alpha  occ. eigenvalues --   -0.54737  -0.54185  -0.52636  -0.51801  -0.50267
 Alpha  occ. eigenvalues --   -0.43927  -0.42878  -0.38514  -0.37529
 Alpha virt. eigenvalues --    0.17960   0.20191   0.21371   0.25717   0.26136
 Alpha virt. eigenvalues --    0.27767   0.29223   0.30658   0.31527   0.31878
 Alpha virt. eigenvalues --    0.33279   0.34063   0.34575   0.36091   0.37746

 Mulliken atomic charges:
              1
     1  H    0.214388
     2  C   -0.576023
     3  H    0.209627
     4  H    0.172400
     5  C    0.765725
     6  O   -0.641156
     7  N   -0.815515
     8  H    0.394151
     9  C   -0.047385
    10  H    0.220243
    11  C   -0.498481
    12  H    0.210124
    13  H    0.183065
    14  H    0.170354
    15  C    0.762050
    16  O   -0.624412
    17  N   -0.818146
    18  H    0.451945
    19  C   -0.266246
    20  H    0.186150
    21  H    0.168309
    22  H    0.178831
 Sum of Mulliken atomic charges =   0.00000

 Dipole moment (field-independent basis, Debye):
    X=             -3.6917    Y=              0.0549    Z=             -0.8418  Tot=              3.7868
 Quadrupole moment (field-independent basis, Debye-Ang):
   XX=            -61.4052   YY=            -57.5635   ZZ=            -62.4195
   XY=             -6.9322   XZ=             11.1186   YZ=              2.2748

 Normal termination of Gaussian 09 at Thu Feb  9 20:25:50 2017.
