 Gaussian 09, Revision A.02,
 Gaussian 09:  EM64L-G09RevA.02 11-Jun-2009

 -------------------------------------------
 # HF/6-31G* Opt=(ModRedundant) geom=nocrowd
 -------------------------------------------

 ------------------
 Phi Psi fixed scan
 ------------------
 Symbolic Z-matrix:
 Charge =  0 Multiplicity = 1

 SCF Done:  E(RHF) =  -492.835635463     A.U. after   15 cycles
 SCF Done:  E(RHF) =  -492.847124258     A.U. after   14 cycles
 SCF Done:  E(RHF) =  -492.850540782     A.U. after   13 cycles
 SCF Done:  E(RHF) =  -492.851415009     A.U. after   13 cycles
 SCF Done:  E(RHF) =  -492.852074727     A.U. after   13 cycles
 SCF Done:  E(RHF) =  -492.852636586     A.U. after   13 cycles
 SCF Done:  E(RHF) =  -492.852746863     A.U. after   13 cycles
 SCF Done:  E(RHF) =  -492.852958744     A.U. after   11 cycles
 SCF Done:  E(RHF) =  -492.853023066     A.U. after   11 cycles
 SCF Done:  E(RHF) =  -492.853095524     A.U. after   11 cycles
 SCF Done:  E(RHF) =  -492.853387327     A.U. after   12 cycles
 SCF Done:  E(RHF) =  -492.853478799     A.U. after   12 cycles
 SCF Done:  E(RHF) =  -492.853499473     A.U. after   11 cycles
 SCF Done:  E(RHF) =  -492.853525594     A.U. after   11 cycles
 SCF Done:  E(RHF) =  -492.853549251     A.U. after   11 cycles
 SCF Done:  E(RHF) =  -492.853567342     A.U. after   11 cycles
 SCF Done:  E(RHF) =  -492.853572186     A.U. after   11 cycles
 SCF Done:  E(RHF) =  -492.853575053     A.U. after   10 cycles
 SCF Done:  E(RHF) =  -492.853575822     A.U. after    9 cycles
 SCF Done:  E(RHF) =  -492.853576079     A.U. after    9 cycles
 Optimization completed.
    -- Stationary point found.

                         Standard orientation:
 ---------------------------------------------------------------------
 Center     Atomic      Atomic             Coordinates (Angstroms)
 Number     Number       Type             X           Y           Z
 ---------------------------------------------------------------------
      1          1           0       -3.398528   -1.721539    0.653802
      2          6           0       -3.088054   -1.062100   -0.143213
      3          1           0       -3.831372   -0.278052   -0.253985
      4          1           0       -3.036842   -1.613197   -1.075840
      5          6           0       -1.757342   -0.440882    0.223063
      6          8           0       -1.350984   -0.407471    1.348361
      7          7           0       -1.040019    0.059414   -0.827755
      8          1           0       -1.526706    0.131199   -1.693295
      9          6           0        0.055242    1.010216   -0.645179
     10          1           0        0.326298    1.317116   -1.651044
     11          6           0       -0.326685    2.258483    0.147713
     12          1           0       -0.570801    2.011605    1.170417
     13          1           0        0.500120    2.954319    0.151476
     14          1           0       -1.184492    2.736056   -0.316408
     15          6           0        1.330999    0.356653   -0.100951
     16          8           0        2.145549    1.011502    0.488847
     17          7           0        1.530111   -0.933773   -0.439705
     18          1           0        0.741362   -1.450939   -0.748866
     19          6           0        2.668995   -1.662759    0.075653
     20          1           0        3.571405   -1.094887   -0.095670
     21          1           0        2.580724   -1.854103    1.139870
     22          1           0        2.742738   -2.606979   -0.448416
 ---------------------------------------------------------------------

 The electronic state is 1-A.
 Alpha  occ. eigenvalues --  -20.53799 -20.51464 -15.59840 -15.57344 -11.36018
 Alpha  occ. eigenvalues --  -11.33693 -11.28367 -11.24837 -11.24411 -11.21022
 Alpha  occ. eigenvalues --   -1.40677  -1.38361  -1.25162  -1.21920  -1.05495
 Alpha  occ. eigenvalues --   -0.99795  -0.95426  -0.87745  -0.80529  -0.77135
 Alpha  occ. eigenvalues --   -0.71811  -0.70024  -0.65449  -0.63957  -0.62499
 Alpha  occ. eigenvalues --   -0.61453  -0.60234  -0.59039  -0.57655  -0.55967
 Alpha  occ. eigenvalues --   -0.54513  -0.53405  -0.52245  -0.51595  -0.50081
 Alpha  occ. eigenvalues --   -0.43405  -0.42470  -0.39164  -0.38106
 Alpha virt. eigenvalues --    0.18469   0.18847   0.22154   0.25066   0.26109
 Alpha virt. eigenvalues --    0.28116   0.29275   0.29624   0.30619   0.31744
 Alpha virt. eigenvalues --    0.32953   0.33462   0.34477   0.34856   0.37029

 Mulliken atomic charges:
              1
     1  H    0.220238
     2  C   -0.591956
     3  H    0.199431
     4  H    0.179475
     5  C    0.735946
     6  O   -0.582794
     7  N   -0.825305
     8  H    0.382609
     9  C   -0.046623
    10  H    0.204931
    11  C   -0.487247
    12  H    0.216077
    13  H    0.200405
    14  H    0.146977
    15  C    0.789440
    16  O   -0.619420
    17  N   -0.787441
    18  H    0.395880
    19  C   -0.275618
    20  H    0.200640
    21  H    0.181496
    22  H    0.162859
 Sum of Mulliken atomic charges =   0.00000

 Dipole moment (field-independent basis, Debye):
    X=             -3.5318    Y=             -1.9759    Z=             -4.7649  Tot=              6.2516
 Quadrupole moment (field-independent basis, Debye-Ang):
   XX=            -58.7810   YY=            -57.2932   ZZ=            -62.5817
   XY=             -5.3926   XZ=              2.9484   YZ=             -1.0118

 Normal termination of Gaussian 09 at Thu Feb  9 19:25:35 2017.
