 Gaussian 09, Revision A.02,
 Gaussian 09:  EM64L-G09RevA.02 11-Jun-2009

 -------------------------------------------
 # HF/6-31G* Opt=(ModRedundant) geom=nocrowd
 -------------------------------------------

 ------------------
 Phi Psi fixed scan
 ------------------
 Symbolic Z-matrix:
 Charge =  0 Multiplicity = 1

 SCF Done:  E(RHF) =  -492.830931228     A.U. after   15 cycles
 SCF Done:  E(RHF) =  -492.847022918     A.U. after   16 cycles
 SCF Done:  E(RHF) =  -492.851515924     A.U. after   13 cycles
 SCF Done:  E(RHF) =  -492.852265640     A.U. after   13 cycles
 SCF Done:  E(RHF) =  -492.852590505     A.U. after   13 cycles
 SCF Done:  E(RHF) =  -492.852733971     A.U. after   13 cycles
 SCF Done:  E(RHF) =  -492.852966071     A.U. after   12 cycles
 SCF Done:  E(RHF) =  -492.853040446     A.U. after   12 cycles
 SCF Done:  E(RHF) =  -492.853009101     A.U. after   12 cycles
 SCF Done:  E(RHF) =  -492.853214292     A.U. after   12 cycles
 SCF Done:  E(RHF) =  -492.853750788     A.U. after   11 cycles
 SCF Done:  E(RHF) =  -492.853755147     A.U. after   11 cycles
 SCF Done:  E(RHF) =  -492.853766801     A.U. after   12 cycles
 SCF Done:  E(RHF) =  -492.853773199     A.U. after   11 cycles
 SCF Done:  E(RHF) =  -492.853781293     A.U. after   11 cycles
 SCF Done:  E(RHF) =  -492.853785899     A.U. after   10 cycles
 SCF Done:  E(RHF) =  -492.853786101     A.U. after    8 cycles
 SCF Done:  E(RHF) =  -492.853786388     A.U. after    9 cycles
 SCF Done:  E(RHF) =  -492.853786489     A.U. after    9 cycles
 SCF Done:  E(RHF) =  -492.853786523     A.U. after    8 cycles
 Optimization completed.
    -- Stationary point found.

                         Standard orientation:
 ---------------------------------------------------------------------
 Center     Atomic      Atomic             Coordinates (Angstroms)
 Number     Number       Type             X           Y           Z
 ---------------------------------------------------------------------
      1          1           0        3.681449   -1.327749   -0.474140
      2          6           0        3.044928   -1.070597    0.360457
      3          1           0        3.591021   -0.447507    1.058691
      4          1           0        2.760699   -1.987968    0.866476
      5          6           0        1.796673   -0.399034   -0.168806
      6          8           0        1.345698   -0.667331   -1.252542
      7          7           0        1.215137    0.491354    0.667304
      8          1           0        1.544819    0.542125    1.603345
      9          6           0       -0.033080    1.186149    0.373859
     10          1           0       -0.166736    1.874525    1.197345
     11          6           0        0.010705    2.011267   -0.910699
     12          1           0        0.188300    1.413423   -1.791061
     13          1           0       -0.924255    2.547759   -1.030328
     14          1           0        0.811494    2.738504   -0.834655
     15          6           0       -1.206180    0.209419    0.547634
     16          8           0       -1.578809   -0.069067    1.656082
     17          7           0       -1.787683   -0.266769   -0.572555
     18          1           0       -1.233172   -0.249871   -1.399174
     19          6           0       -2.805932   -1.293030   -0.484195
     20          1           0       -3.568726   -0.984045    0.214730
     21          1           0       -3.253761   -1.421744   -1.460733
     22          1           0       -2.401105   -2.243416   -0.151547
 ---------------------------------------------------------------------

 The electronic state is 1-A.
 Alpha  occ. eigenvalues --  -20.53089 -20.51903 -15.59437 -15.57616 -11.35713
 Alpha  occ. eigenvalues --  -11.33842 -11.28232 -11.24925 -11.23777 -11.22176
 Alpha  occ. eigenvalues --   -1.40005  -1.38599  -1.24477  -1.22497  -1.05744
 Alpha  occ. eigenvalues --   -0.99688  -0.94887  -0.89037  -0.80256  -0.76929
 Alpha  occ. eigenvalues --   -0.72076  -0.70149  -0.65398  -0.63969  -0.62442
 Alpha  occ. eigenvalues --   -0.61604  -0.59833  -0.58451  -0.57095  -0.55980
 Alpha  occ. eigenvalues --   -0.54877  -0.54310  -0.52507  -0.51609  -0.50820
 Alpha  occ. eigenvalues --   -0.43288  -0.42341  -0.39209  -0.37884
 Alpha virt. eigenvalues --    0.18934   0.19778   0.22098   0.24643   0.25850
 Alpha virt. eigenvalues --    0.27363   0.29377   0.30052   0.31216   0.32129
 Alpha virt. eigenvalues --    0.32822   0.33912   0.34271   0.35676   0.38615

 Mulliken atomic charges:
              1
     1  H    0.214715
     2  C   -0.584520
     3  H    0.176931
     4  H    0.206416
     5  C    0.755854
     6  O   -0.626576
     7  N   -0.801163
     8  H    0.395787
     9  C   -0.044316
    10  H    0.213501
    11  C   -0.498581
    12  H    0.206263
    13  H    0.175099
    14  H    0.174875
    15  C    0.759910
    16  O   -0.620399
    17  N   -0.778861
    18  H    0.409774
    19  C   -0.279118
    20  H    0.200175
    21  H    0.169778
    22  H    0.174456
 Sum of Mulliken atomic charges =   0.00000

 Dipole moment (field-independent basis, Debye):
    X=              1.9576    Y=              0.8937    Z=             -0.1245  Tot=              2.1556
 Quadrupole moment (field-independent basis, Debye-Ang):
   XX=            -55.3453   YY=            -57.2950   ZZ=            -65.8807
   XY=              1.1775   XZ=             11.7108   YZ=              0.1553

 Normal termination of Gaussian 09 at Thu Feb  9 20:12:24 2017.
