 Gaussian 09, Revision A.02,
 Gaussian 09:  EM64L-G09RevA.02 11-Jun-2009

 -------------------------------------------
 # HF/6-31G* Opt=(ModRedundant) geom=nocrowd
 -------------------------------------------

 ------------------
 Phi Psi fixed scan
 ------------------
 Symbolic Z-matrix:
 Charge =  0 Multiplicity = 1

 SCF Done:  E(RHF) =  -492.833612819     A.U. after   15 cycles
 SCF Done:  E(RHF) =  -492.848686089     A.U. after   16 cycles
 SCF Done:  E(RHF) =  -492.853221077     A.U. after   13 cycles
 SCF Done:  E(RHF) =  -492.854012538     A.U. after   12 cycles
 SCF Done:  E(RHF) =  -492.854385189     A.U. after   13 cycles
 SCF Done:  E(RHF) =  -492.854293677     A.U. after   16 cycles
 SCF Done:  E(RHF) =  -492.854564798     A.U. after   16 cycles
 SCF Done:  E(RHF) =  -492.854656034     A.U. after   10 cycles
 SCF Done:  E(RHF) =  -492.854779664     A.U. after   11 cycles
 SCF Done:  E(RHF) =  -492.854898352     A.U. after   11 cycles
 SCF Done:  E(RHF) =  -492.855329673     A.U. after   14 cycles
 SCF Done:  E(RHF) =  -492.855338025     A.U. after   12 cycles
 SCF Done:  E(RHF) =  -492.855340075     A.U. after   12 cycles
 SCF Done:  E(RHF) =  -492.855351337     A.U. after   11 cycles
 SCF Done:  E(RHF) =  -492.855359376     A.U. after   11 cycles
 SCF Done:  E(RHF) =  -492.855366086     A.U. after   11 cycles
 SCF Done:  E(RHF) =  -492.855368288     A.U. after   10 cycles
 SCF Done:  E(RHF) =  -492.855368854     A.U. after    9 cycles
 SCF Done:  E(RHF) =  -492.855369216     A.U. after    9 cycles
 SCF Done:  E(RHF) =  -492.855369328     A.U. after    9 cycles
 Optimization completed.
    -- Stationary point found.

                         Standard orientation:
 ---------------------------------------------------------------------
 Center     Atomic      Atomic             Coordinates (Angstroms)
 Number     Number       Type             X           Y           Z
 ---------------------------------------------------------------------
      1          1           0        3.737925   -1.232929   -0.210764
      2          6           0        3.043289   -0.963511    0.572552
      3          1           0        3.516936   -0.269456    1.256239
      4          1           0        2.784817   -1.865784    1.117189
      5          6           0        1.788656   -0.407327   -0.064461
      6          8           0        1.360462   -0.856586   -1.098067
      7          7           0        1.180139    0.590214    0.612418
      8          1           0        1.533187    0.830829    1.509349
      9          6           0       -0.058867    1.246206    0.199649
     10          1           0       -0.197760    2.047340    0.911360
     11          6           0        0.009056    1.865353   -1.195465
     12          1           0        0.176054    1.135265   -1.971756
     13          1           0       -0.917760    2.389424   -1.402595
     14          1           0        0.820357    2.584486   -1.227092
     15          6           0       -1.259373    0.326743    0.468764
     16          8           0       -1.844636    0.402319    1.516345
     17          7           0       -1.619104   -0.510911   -0.524882
     18          1           0       -0.919415   -0.719723   -1.203411
     19          6           0       -2.656249   -1.497285   -0.307544
     20          1           0       -3.539674   -1.014570    0.083546
     21          1           0       -2.897790   -1.959579   -1.255484
     22          1           0       -2.349809   -2.267366    0.393475
 ---------------------------------------------------------------------

 The electronic state is 1-A.
 Alpha  occ. eigenvalues --  -20.53431 -20.51835 -15.59949 -15.57139 -11.36165
 Alpha  occ. eigenvalues --  -11.33661 -11.28275 -11.24730 -11.24122 -11.22165
 Alpha  occ. eigenvalues --   -1.40309  -1.38471  -1.24871  -1.22166  -1.05895
 Alpha  occ. eigenvalues --   -0.99932  -0.94771  -0.89043  -0.80535  -0.76825
 Alpha  occ. eigenvalues --   -0.72205  -0.70288  -0.65502  -0.63736  -0.62654
 Alpha  occ. eigenvalues --   -0.61606  -0.60048  -0.58428  -0.57388  -0.56279
 Alpha  occ. eigenvalues --   -0.54788  -0.54067  -0.52457  -0.51454  -0.51163
 Alpha  occ. eigenvalues --   -0.43651  -0.42690  -0.38938  -0.37777
 Alpha virt. eigenvalues --    0.18661   0.19668   0.21826   0.25393   0.25865
 Alpha virt. eigenvalues --    0.27518   0.29190   0.30449   0.31283   0.32558
 Alpha virt. eigenvalues --    0.32828   0.33914   0.34167   0.35932   0.38118

 Mulliken atomic charges:
              1
     1  H    0.215260
     2  C   -0.581146
     3  H    0.174633
     4  H    0.208097
     5  C    0.761221
     6  O   -0.633317
     7  N   -0.810777
     8  H    0.395813
     9  C   -0.048025
    10  H    0.217250
    11  C   -0.490793
    12  H    0.205792
    13  H    0.175792
    14  H    0.171185
    15  C    0.757281
    16  O   -0.619163
    17  N   -0.786657
    18  H    0.426054
    19  C   -0.277442
    20  H    0.198145
    21  H    0.169991
    22  H    0.170806
 Sum of Mulliken atomic charges =   0.00000

 Dipole moment (field-independent basis, Debye):
    X=              2.7462    Y=              0.4672    Z=              0.0849  Tot=              2.7870
 Quadrupole moment (field-independent basis, Debye-Ang):
   XX=            -57.6342   YY=            -57.0726   ZZ=            -65.1790
   XY=              3.9301   XZ=             11.7275   YZ=             -1.6887

 Normal termination of Gaussian 09 at Thu Feb  9 20:16:18 2017.
