 Gaussian 09, Revision A.02,
 Gaussian 09:  EM64L-G09RevA.02 11-Jun-2009

 -------------------------------------------
 # HF/6-31G* Opt=(ModRedundant) geom=nocrowd
 -------------------------------------------

 ------------------
 Phi Psi fixed scan
 ------------------
 Symbolic Z-matrix:
 Charge =  0 Multiplicity = 1

 SCF Done:  E(RHF) =  -492.830977217     A.U. after   15 cycles
 SCF Done:  E(RHF) =  -492.842268285     A.U. after   14 cycles
 SCF Done:  E(RHF) =  -492.845489963     A.U. after   13 cycles
 SCF Done:  E(RHF) =  -492.846053560     A.U. after   13 cycles
 SCF Done:  E(RHF) =  -492.846979622     A.U. after   13 cycles
 SCF Done:  E(RHF) =  -492.847577184     A.U. after   16 cycles
 SCF Done:  E(RHF) =  -492.847846999     A.U. after   13 cycles
 SCF Done:  E(RHF) =  -492.848029222     A.U. after   12 cycles
 SCF Done:  E(RHF) =  -492.848098621     A.U. after   12 cycles
 SCF Done:  E(RHF) =  -492.848128093     A.U. after   11 cycles
 SCF Done:  E(RHF) =  -492.848247030     A.U. after   11 cycles
 SCF Done:  E(RHF) =  -492.848390978     A.U. after   16 cycles
 SCF Done:  E(RHF) =  -492.848311744     A.U. after   16 cycles
 SCF Done:  E(RHF) =  -492.848439666     A.U. after   16 cycles
 SCF Done:  E(RHF) =  -492.848455233     A.U. after   12 cycles
 SCF Done:  E(RHF) =  -492.848467674     A.U. after   11 cycles
 SCF Done:  E(RHF) =  -492.848463297     A.U. after   11 cycles
 SCF Done:  E(RHF) =  -492.848469088     A.U. after   10 cycles
 SCF Done:  E(RHF) =  -492.848472802     A.U. after   10 cycles
 SCF Done:  E(RHF) =  -492.848472958     A.U. after    8 cycles
 Optimization completed.
    -- Stationary point found.

                         Standard orientation:
 ---------------------------------------------------------------------
 Center     Atomic      Atomic             Coordinates (Angstroms)
 Number     Number       Type             X           Y           Z
 ---------------------------------------------------------------------
      1          1           0       -3.895238   -1.177675    0.343798
      2          6           0       -3.045554   -1.204291   -0.322306
      3          1           0       -3.378579   -1.071273   -1.346126
      4          1           0       -2.566107   -2.175152   -0.241446
      5          6           0       -2.057519   -0.136864    0.096677
      6          8           0       -2.098316    0.376792    1.175218
      7          7           0       -1.152181    0.200338   -0.878086
      8          1           0       -1.133454   -0.428913   -1.650136
      9          6           0        0.131598    0.818044   -0.617701
     10          1           0        0.505957    1.119573   -1.591587
     11          6           0        0.063906    2.077582    0.254447
     12          1           0       -0.183589    1.841893    1.276523
     13          1           0        1.020562    2.590556    0.226441
     14          1           0       -0.691904    2.747798   -0.135661
     15          6           0        1.121457   -0.208994   -0.049109
     16          8           0        0.763769   -1.174762    0.564591
     17          7           0        2.420262    0.024278   -0.352173
     18          1           0        2.663846    0.899813   -0.754993
     19          6           0        3.483361   -0.775553    0.220214
     20          1           0        3.235292   -1.822073    0.126619
     21          1           0        4.398092   -0.579702   -0.323695
     22          1           0        3.641442   -0.552942    1.270274
 ---------------------------------------------------------------------

 The electronic state is 1-A.
 Alpha  occ. eigenvalues --  -20.52661 -20.51633 -15.58993 -15.57960 -11.34449
 Alpha  occ. eigenvalues --  -11.34132 -11.28430 -11.26047 -11.22315 -11.22076
 Alpha  occ. eigenvalues --   -1.39701  -1.38270  -1.23769  -1.23235  -1.05381
 Alpha  occ. eigenvalues --   -0.98643  -0.95861  -0.88159  -0.79875  -0.76926
 Alpha  occ. eigenvalues --   -0.71772  -0.69595  -0.65464  -0.63109  -0.62456
 Alpha  occ. eigenvalues --   -0.61885  -0.59445  -0.58498  -0.56408  -0.55887
 Alpha  occ. eigenvalues --   -0.55540  -0.53474  -0.53122  -0.50550  -0.50251
 Alpha  occ. eigenvalues --   -0.43417  -0.40746  -0.39370  -0.38131
 Alpha virt. eigenvalues --    0.19014   0.20085   0.21867   0.23008   0.26149
 Alpha virt. eigenvalues --    0.27926   0.29631   0.30713   0.31660   0.31885
 Alpha virt. eigenvalues --    0.32900   0.33641   0.34265   0.34767   0.37886

 Mulliken atomic charges:
              1
     1  H    0.212161
     2  C   -0.599850
     3  H    0.174352
     4  H    0.206581
     5  C    0.765803
     6  O   -0.592747
     7  N   -0.776484
     8  H    0.375560
     9  C   -0.058562
    10  H    0.184862
    11  C   -0.482361
    12  H    0.234859
    13  H    0.143493
    14  H    0.188253
    15  C    0.759905
    16  O   -0.602724
    17  N   -0.793572
    18  H    0.381995
    19  C   -0.275845
    20  H    0.207364
    21  H    0.168311
    22  H    0.178645
 Sum of Mulliken atomic charges =   0.00000

 Dipole moment (field-independent basis, Debye):
    X=              2.8981    Y=              1.0069    Z=             -4.3838  Tot=              5.3508
 Quadrupole moment (field-independent basis, Debye-Ang):
   XX=            -51.3517   YY=            -60.1986   ZZ=            -62.3988
   XY=              6.8444   XZ=              4.4241   YZ=              0.9241

 Normal termination of Gaussian 09 at Thu Feb  9 19:49:59 2017.
