 Gaussian 09, Revision A.02,
 Gaussian 09:  EM64L-G09RevA.02 11-Jun-2009

 -------------------------------------------
 # HF/6-31G* Opt=(ModRedundant) geom=nocrowd
 -------------------------------------------

 ------------------
 Phi Psi fixed scan
 ------------------
 Symbolic Z-matrix:
 Charge =  0 Multiplicity = 1

 SCF Done:  E(RHF) =  -492.833520761     A.U. after   15 cycles
 SCF Done:  E(RHF) =  -492.845176254     A.U. after   14 cycles
 SCF Done:  E(RHF) =  -492.848502797     A.U. after   13 cycles
 SCF Done:  E(RHF) =  -492.849364234     A.U. after   14 cycles
 SCF Done:  E(RHF) =  -492.850239020     A.U. after   13 cycles
 SCF Done:  E(RHF) =  -492.850952993     A.U. after   13 cycles
 SCF Done:  E(RHF) =  -492.851180014     A.U. after   14 cycles
 SCF Done:  E(RHF) =  -492.851404604     A.U. after   11 cycles
 SCF Done:  E(RHF) =  -492.851488461     A.U. after   11 cycles
 SCF Done:  E(RHF) =  -492.851575136     A.U. after   12 cycles
 SCF Done:  E(RHF) =  -492.851655045     A.U. after   11 cycles
 SCF Done:  E(RHF) =  -492.851853906     A.U. after   12 cycles
 SCF Done:  E(RHF) =  -492.852049432     A.U. after   12 cycles
 SCF Done:  E(RHF) =  -492.852045245     A.U. after   12 cycles
 SCF Done:  E(RHF) =  -492.852070926     A.U. after   11 cycles
 SCF Done:  E(RHF) =  -492.852076953     A.U. after   10 cycles
 SCF Done:  E(RHF) =  -492.852100841     A.U. after   11 cycles
 SCF Done:  E(RHF) =  -492.852106281     A.U. after   11 cycles
 SCF Done:  E(RHF) =  -492.852107201     A.U. after    9 cycles
 SCF Done:  E(RHF) =  -492.852107261     A.U. after    8 cycles
 Optimization completed.
    -- Stationary point found.

                         Standard orientation:
 ---------------------------------------------------------------------
 Center     Atomic      Atomic             Coordinates (Angstroms)
 Number     Number       Type             X           Y           Z
 ---------------------------------------------------------------------
      1          1           0       -3.409102   -1.711226    0.746867
      2          6           0       -3.073293   -1.136859   -0.103822
      3          1           0       -3.819553   -0.380544   -0.329185
      4          1           0       -2.977067   -1.784604   -0.968305
      5          6           0       -1.763917   -0.462504    0.245066
      6          8           0       -1.391807   -0.323301    1.373190
      7          7           0       -1.021916   -0.046306   -0.827310
      8          1           0       -1.499239   -0.040493   -1.701524
      9          6           0        0.041842    0.950451   -0.699353
     10          1           0        0.340593    1.169499   -1.719846
     11          6           0       -0.393702    2.251035   -0.031125
     12          1           0       -0.652619    2.089994    1.004390
     13          1           0        0.412169    2.971155   -0.071537
     14          1           0       -1.252376    2.660111   -0.555552
     15          6           0        1.298932    0.360770   -0.047209
     16          8           0        1.962721    0.997353    0.720135
     17          7           0        1.675802   -0.851177   -0.520310
     18          1           0        0.967424   -1.401367   -0.948734
     19          6           0        2.800218   -1.547230    0.069310
     20          1           0        3.654262   -0.887542    0.103542
     21          1           0        2.588788   -1.886511    1.078179
     22          1           0        3.041714   -2.402487   -0.548752
 ---------------------------------------------------------------------

 The electronic state is 1-A.
 Alpha  occ. eigenvalues --  -20.53714 -20.51755 -15.59764 -15.57351 -11.35881
 Alpha  occ. eigenvalues --  -11.33709 -11.28335 -11.24859 -11.24297 -11.20989
 Alpha  occ. eigenvalues --   -1.40583  -1.38544  -1.25060  -1.21923  -1.05446
 Alpha  occ. eigenvalues --   -0.99719  -0.95420  -0.87593  -0.80499  -0.76840
 Alpha  occ. eigenvalues --   -0.71572  -0.69927  -0.65364  -0.64163  -0.62563
 Alpha  occ. eigenvalues --   -0.61355  -0.60282  -0.58952  -0.57545  -0.56010
 Alpha  occ. eigenvalues --   -0.54464  -0.52937  -0.52352  -0.51438  -0.50474
 Alpha  occ. eigenvalues --   -0.43441  -0.42341  -0.39206  -0.38267
 Alpha virt. eigenvalues --    0.18311   0.18842   0.22269   0.24957   0.26170
 Alpha virt. eigenvalues --    0.27989   0.29053   0.29740   0.30850   0.31658
 Alpha virt. eigenvalues --    0.32680   0.33414   0.34427   0.34787   0.37179

 Mulliken atomic charges:
              1
     1  H    0.220784
     2  C   -0.592936
     3  H    0.197394
     4  H    0.180386
     5  C    0.739312
     6  O   -0.578553
     7  N   -0.819060
     8  H    0.380207
     9  C   -0.058425
    10  H    0.202231
    11  C   -0.482031
    12  H    0.221239
    13  H    0.191887
    14  H    0.145324
    15  C    0.788375
    16  O   -0.608330
    17  N   -0.783735
    18  H    0.389572
    19  C   -0.278231
    20  H    0.202064
    21  H    0.179160
    22  H    0.163367
 Sum of Mulliken atomic charges =   0.00000

 Dipole moment (field-independent basis, Debye):
    X=             -3.0101    Y=             -2.2051    Z=             -5.2452  Tot=              6.4371
 Quadrupole moment (field-independent basis, Debye-Ang):
   XX=            -57.1693   YY=            -57.4171   ZZ=            -63.2061
   XY=             -4.4596   XZ=              2.4025   YZ=             -1.3610

 Normal termination of Gaussian 09 at Thu Feb  9 19:28:02 2017.
