 Gaussian 09, Revision A.02,
 Gaussian 09:  EM64L-G09RevA.02 11-Jun-2009

 -------------------------------------------
 # HF/6-31G* Opt=(ModRedundant) geom=nocrowd
 -------------------------------------------

 ------------------
 Phi Psi fixed scan
 ------------------
 Symbolic Z-matrix:
 Charge =  0 Multiplicity = 1

 SCF Done:  E(RHF) =  -492.835086019     A.U. after   15 cycles
 SCF Done:  E(RHF) =  -492.848707378     A.U. after   14 cycles
 SCF Done:  E(RHF) =  -492.851745200     A.U. after   13 cycles
 SCF Done:  E(RHF) =  -492.852247225     A.U. after   13 cycles
 SCF Done:  E(RHF) =  -492.852477497     A.U. after   13 cycles
 SCF Done:  E(RHF) =  -492.852605164     A.U. after   14 cycles
 SCF Done:  E(RHF) =  -492.852906198     A.U. after   13 cycles
 SCF Done:  E(RHF) =  -492.852975453     A.U. after   12 cycles
 SCF Done:  E(RHF) =  -492.853100585     A.U. after   11 cycles
 SCF Done:  E(RHF) =  -492.853166080     A.U. after   11 cycles
 SCF Done:  E(RHF) =  -492.853464626     A.U. after   13 cycles
 SCF Done:  E(RHF) =  -492.853583043     A.U. after   13 cycles
 SCF Done:  E(RHF) =  -492.853732329     A.U. after   13 cycles
 SCF Done:  E(RHF) =  -492.853749034     A.U. after   11 cycles
 SCF Done:  E(RHF) =  -492.853768293     A.U. after   10 cycles
 SCF Done:  E(RHF) =  -492.853779059     A.U. after   10 cycles
 SCF Done:  E(RHF) =  -492.853788453     A.U. after   11 cycles
 SCF Done:  E(RHF) =  -492.853791959     A.U. after   10 cycles
 SCF Done:  E(RHF) =  -492.853792588     A.U. after    8 cycles
 SCF Done:  E(RHF) =  -492.853792609     A.U. after    7 cycles
 Optimization completed.
    -- Stationary point found.

                         Standard orientation:
 ---------------------------------------------------------------------
 Center     Atomic      Atomic             Coordinates (Angstroms)
 Number     Number       Type             X           Y           Z
 ---------------------------------------------------------------------
      1          1           0       -3.489516   -1.686628    0.295211
      2          6           0       -3.173663   -0.858335   -0.321884
      3          1           0       -3.883836   -0.046023   -0.200799
      4          1           0       -3.175793   -1.157175   -1.364200
      5          6           0       -1.808287   -0.394944    0.139099
      6          8           0       -1.390322   -0.635808    1.239923
      7          7           0       -1.088361    0.295157   -0.779788
      8          1           0       -1.521681    0.460496   -1.658993
      9          6           0        0.094446    1.101436   -0.493434
     10          1           0        0.313133    1.616741   -1.420969
     11          6           0       -0.145520    2.160427    0.587122
     12          1           0       -0.361582    1.700054    1.541253
     13          1           0        0.735179    2.778822    0.686612
     14          1           0       -0.985484    2.786672    0.304586
     15          6           0        1.388098    0.328256   -0.209523
     16          8           0        2.399742    0.957855   -0.047500
     17          7           0        1.358022   -1.017794   -0.240252
     18          1           0        0.480664   -1.453382   -0.078671
     19          6           0        2.542685   -1.771559    0.115925
     20          1           0        3.382154   -1.423141   -0.466845
     21          1           0        2.789906   -1.670258    1.167485
     22          1           0        2.367308   -2.815767   -0.107603
 ---------------------------------------------------------------------

 The electronic state is 1-A.
 Alpha  occ. eigenvalues --  -20.53796 -20.51495 -15.59921 -15.57396 -11.36289
 Alpha  occ. eigenvalues --  -11.33829 -11.28532 -11.24762 -11.24506 -11.21427
 Alpha  occ. eigenvalues --   -1.40689  -1.38460  -1.25188  -1.22076  -1.05743
 Alpha  occ. eigenvalues --   -0.99961  -0.95210  -0.88285  -0.80592  -0.77346
 Alpha  occ. eigenvalues --   -0.72378  -0.70203  -0.65474  -0.63602  -0.62418
 Alpha  occ. eigenvalues --   -0.61692  -0.60335  -0.59182  -0.57776  -0.55990
 Alpha  occ. eigenvalues --   -0.54531  -0.54147  -0.52286  -0.51972  -0.49556
 Alpha  occ. eigenvalues --   -0.43436  -0.42950  -0.39424  -0.37810
 Alpha virt. eigenvalues --    0.18479   0.18980   0.21458   0.25316   0.26118
 Alpha virt. eigenvalues --    0.28298   0.29358   0.30110   0.30956   0.31870
 Alpha virt. eigenvalues --    0.33194   0.33868   0.34467   0.35103   0.36793

 Mulliken atomic charges:
              1
     1  H    0.217943
     2  C   -0.587811
     3  H    0.203099
     4  H    0.179046
     5  C    0.734474
     6  O   -0.609772
     7  N   -0.817279
     8  H    0.388167
     9  C   -0.023444
    10  H    0.210583
    11  C   -0.501246
    12  H    0.210068
    13  H    0.207543
    14  H    0.156708
    15  C    0.770276
    16  O   -0.622651
    17  N   -0.788160
    18  H    0.407480
    19  C   -0.279197
    20  H    0.199613
    21  H    0.178669
    22  H    0.165892
 Sum of Mulliken atomic charges =   0.00000

 Dipole moment (field-independent basis, Debye):
    X=             -3.9886    Y=             -1.1004    Z=             -3.2658  Tot=              5.2712
 Quadrupole moment (field-independent basis, Debye-Ang):
   XX=            -61.4359   YY=            -57.4818   ZZ=            -61.5770
   XY=             -6.8917   XZ=              5.8255   YZ=             -0.0533

 Normal termination of Gaussian 09 at Thu Feb  9 19:20:17 2017.
