 Gaussian 09, Revision A.02,
 Gaussian 09:  EM64L-G09RevA.02 11-Jun-2009

 -------------------------------------------
 # HF/6-31G* Opt=(ModRedundant) geom=nocrowd
 -------------------------------------------

 ------------------
 Phi Psi fixed scan
 ------------------
 Symbolic Z-matrix:
 Charge =  0 Multiplicity = 1

 SCF Done:  E(RHF) =  -492.836604204     A.U. after   15 cycles
 SCF Done:  E(RHF) =  -492.850719411     A.U. after   14 cycles
 SCF Done:  E(RHF) =  -492.854863688     A.U. after   14 cycles
 SCF Done:  E(RHF) =  -492.855059422     A.U. after   13 cycles
 SCF Done:  E(RHF) =  -492.856013524     A.U. after   12 cycles
 SCF Done:  E(RHF) =  -492.856153314     A.U. after   12 cycles
 SCF Done:  E(RHF) =  -492.856171803     A.U. after   12 cycles
 SCF Done:  E(RHF) =  -492.856207331     A.U. after   11 cycles
 SCF Done:  E(RHF) =  -492.856225067     A.U. after   10 cycles
 SCF Done:  E(RHF) =  -492.856324855     A.U. after   13 cycles
 SCF Done:  E(RHF) =  -492.856880420     A.U. after   11 cycles
 SCF Done:  E(RHF) =  -492.856900108     A.U. after   11 cycles
 SCF Done:  E(RHF) =  -492.856900638     A.U. after   11 cycles
 SCF Done:  E(RHF) =  -492.856904336     A.U. after   10 cycles
 SCF Done:  E(RHF) =  -492.856905575     A.U. after   10 cycles
 SCF Done:  E(RHF) =  -492.856907898     A.U. after   10 cycles
 SCF Done:  E(RHF) =  -492.856908714     A.U. after   10 cycles
 SCF Done:  E(RHF) =  -492.856909118     A.U. after    9 cycles
 SCF Done:  E(RHF) =  -492.856909189     A.U. after    8 cycles
 SCF Done:  E(RHF) =  -492.856909196     A.U. after    7 cycles
 Optimization completed.
    -- Stationary point found.

                         Standard orientation:
 ---------------------------------------------------------------------
 Center     Atomic      Atomic             Coordinates (Angstroms)
 Number     Number       Type             X           Y           Z
 ---------------------------------------------------------------------
      1          1           0       -3.337640   -1.794808   -0.405641
      2          6           0       -3.165799   -0.742348   -0.582416
      3          1           0       -3.945339   -0.184458   -0.074120
      4          1           0       -3.230616   -0.536562   -1.644082
      5          6           0       -1.831646   -0.360172    0.021131
      6          8           0       -1.459192   -0.847028    1.061085
      7          7           0       -1.121902    0.558350   -0.663838
      8          1           0       -1.488150    0.849934   -1.539990
      9          6           0        0.121538    1.209120   -0.252360
     10          1           0        0.293617    1.980457   -0.988194
     11          6           0        0.025175    1.878154    1.123198
     12          1           0       -0.138600    1.155016    1.908990
     13          1           0        0.945761    2.414541    1.322517
     14          1           0       -0.794849    2.587915    1.130090
     15          6           0        1.382124    0.339084   -0.341823
     16          8           0        2.387302    0.820061   -0.798250
     17          7           0        1.310557   -0.916545    0.124573
     18          1           0        0.493190   -1.192988    0.623479
     19          6           0        2.485730   -1.758420    0.167481
     20          1           0        2.953864   -1.797827   -0.806300
     21          1           0        3.217413   -1.393747    0.880392
     22          1           0        2.183152   -2.756882    0.453769
 ---------------------------------------------------------------------

 The electronic state is 1-A.
 Alpha  occ. eigenvalues --  -20.53810 -20.51295 -15.60312 -15.56785 -11.36631
 Alpha  occ. eigenvalues --  -11.33457 -11.28446 -11.24657 -11.24500 -11.22204
 Alpha  occ. eigenvalues --   -1.40674  -1.38080  -1.25296  -1.21842  -1.06083
 Alpha  occ. eigenvalues --   -1.00181  -0.94948  -0.88870  -0.80720  -0.77192
 Alpha  occ. eigenvalues --   -0.72631  -0.70488  -0.65407  -0.63353  -0.62357
 Alpha  occ. eigenvalues --   -0.61580  -0.60229  -0.59099  -0.57821  -0.56619
 Alpha  occ. eigenvalues --   -0.54678  -0.54311  -0.52630  -0.51968  -0.49803
 Alpha  occ. eigenvalues --   -0.43873  -0.42949  -0.38768  -0.37480
 Alpha virt. eigenvalues --    0.17888   0.20071   0.21272   0.25771   0.26215
 Alpha virt. eigenvalues --    0.27915   0.29246   0.30876   0.31306   0.32252
 Alpha virt. eigenvalues --    0.33106   0.34226   0.34551   0.35867   0.38155

 Mulliken atomic charges:
              1
     1  H    0.215012
     2  C   -0.576962
     3  H    0.208869
     4  H    0.173247
     5  C    0.763101
     6  O   -0.640284
     7  N   -0.812643
     8  H    0.393134
     9  C   -0.040424
    10  H    0.218136
    11  C   -0.502839
    12  H    0.210342
    13  H    0.190137
    14  H    0.170091
    15  C    0.759402
    16  O   -0.624589
    17  N   -0.819138
    18  H    0.449024
    19  C   -0.268958
    20  H    0.191431
    21  H    0.175955
    22  H    0.167956
 Sum of Mulliken atomic charges =   0.00000

 Dipole moment (field-independent basis, Debye):
    X=             -3.8822    Y=             -0.1024    Z=             -1.3273  Tot=              4.1041
 Quadrupole moment (field-independent basis, Debye-Ang):
   XX=            -62.3999   YY=            -57.7182   ZZ=            -61.4640
   XY=             -7.4208   XZ=             10.1478   YZ=              1.8038

 Normal termination of Gaussian 09 at Thu Feb  9 20:29:19 2017.
