 Gaussian 09, Revision A.02,
 Gaussian 09:  EM64L-G09RevA.02 11-Jun-2009

 -------------------------------------------
 # HF/6-31G* Opt=(ModRedundant) geom=nocrowd
 -------------------------------------------

 ------------------
 Phi Psi fixed scan
 ------------------
 Symbolic Z-matrix:
 Charge =  0 Multiplicity = 1

 SCF Done:  E(RHF) =  -492.834251175     A.U. after   15 cycles
 SCF Done:  E(RHF) =  -492.844315470     A.U. after   14 cycles
 SCF Done:  E(RHF) =  -492.847685165     A.U. after   14 cycles
 SCF Done:  E(RHF) =  -492.848688953     A.U. after   13 cycles
 SCF Done:  E(RHF) =  -492.849489902     A.U. after   13 cycles
 SCF Done:  E(RHF) =  -492.850142173     A.U. after   13 cycles
 SCF Done:  E(RHF) =  -492.850588151     A.U. after   13 cycles
 SCF Done:  E(RHF) =  -492.850671018     A.U. after   13 cycles
 SCF Done:  E(RHF) =  -492.850816629     A.U. after   12 cycles
 SCF Done:  E(RHF) =  -492.850845783     A.U. after   10 cycles
 SCF Done:  E(RHF) =  -492.851161291     A.U. after   10 cycles
 SCF Done:  E(RHF) =  -492.851228327     A.U. after   11 cycles
 SCF Done:  E(RHF) =  -492.851302179     A.U. after   12 cycles
 SCF Done:  E(RHF) =  -492.851315662     A.U. after   12 cycles
 SCF Done:  E(RHF) =  -492.851321530     A.U. after   10 cycles
 SCF Done:  E(RHF) =  -492.851326690     A.U. after   11 cycles
 SCF Done:  E(RHF) =  -492.851331440     A.U. after   10 cycles
 SCF Done:  E(RHF) =  -492.851332375     A.U. after   10 cycles
 SCF Done:  E(RHF) =  -492.851332540     A.U. after    8 cycles
 SCF Done:  E(RHF) =  -492.851332564     A.U. after    7 cycles
 Optimization completed.
    -- Stationary point found.

                         Standard orientation:
 ---------------------------------------------------------------------
 Center     Atomic      Atomic             Coordinates (Angstroms)
 Number     Number       Type             X           Y           Z
 ---------------------------------------------------------------------
      1          1           0       -3.872675   -1.009545    0.694202
      2          6           0       -3.130929   -1.071140   -0.088515
      3          1           0       -3.590285   -0.860773   -1.048006
      4          1           0       -2.730861   -2.080240   -0.114575
      5          6           0       -2.005332   -0.109254    0.221241
      6          8           0       -1.838573    0.346805    1.316063
      7          7           0       -1.215158    0.199155   -0.851680
      8          1           0       -1.283309   -0.441402   -1.610933
      9          6           0        0.097960    0.789556   -0.708979
     10          1           0        0.410021    1.038338   -1.719956
     11          6           0        0.108028    2.094968    0.095755
     12          1           0        0.025227    1.920737    1.156542
     13          1           0        1.015026    2.655897   -0.108864
     14          1           0       -0.728344    2.708570   -0.213562
     15          6           0        1.103348   -0.273247   -0.233624
     16          8           0        0.789517   -1.426491   -0.121432
     17          7           0        2.374711    0.150811   -0.059797
     18          1           0        2.552477    1.125842   -0.005759
     19          6           0        3.403485   -0.751777    0.415236
     20          1           0        3.407530   -1.649182   -0.185726
     21          1           0        4.363584   -0.261483    0.322493
     22          1           0        3.247823   -1.033674    1.450748
 ---------------------------------------------------------------------

 The electronic state is 1-A.
 Alpha  occ. eigenvalues --  -20.52597 -20.51961 -15.58692 -15.57765 -11.34442
 Alpha  occ. eigenvalues --  -11.34232 -11.28368 -11.25839 -11.22441 -11.22367
 Alpha  occ. eigenvalues --   -1.39717  -1.38471  -1.23510  -1.23276  -1.05385
 Alpha  occ. eigenvalues --   -0.98746  -0.95528  -0.88654  -0.79874  -0.76685
 Alpha  occ. eigenvalues --   -0.71985  -0.69695  -0.65349  -0.63506  -0.62116
 Alpha  occ. eigenvalues --   -0.61678  -0.59665  -0.58498  -0.56243  -0.56055
 Alpha  occ. eigenvalues --   -0.55430  -0.53925  -0.53333  -0.50669  -0.50123
 Alpha  occ. eigenvalues --   -0.42698  -0.41138  -0.39297  -0.38735
 Alpha virt. eigenvalues --    0.19441   0.20838   0.21150   0.23409   0.26168
 Alpha virt. eigenvalues --    0.27537   0.29750   0.30943   0.31263   0.32277
 Alpha virt. eigenvalues --    0.32853   0.33753   0.34103   0.35045   0.36921

 Mulliken atomic charges:
              1
     1  H    0.210981
     2  C   -0.597345
     3  H    0.178208
     4  H    0.208347
     5  C    0.754773
     6  O   -0.601971
     7  N   -0.765622
     8  H    0.382500
     9  C   -0.058287
    10  H    0.202243
    11  C   -0.495713
    12  H    0.226108
    13  H    0.140136
    14  H    0.193773
    15  C    0.772565
    16  O   -0.618787
    17  N   -0.799512
    18  H    0.389598
    19  C   -0.272792
    20  H    0.201419
    21  H    0.167036
    22  H    0.182343
 Sum of Mulliken atomic charges =   0.00000

 Dipole moment (field-independent basis, Debye):
    X=              2.0560    Y=              1.6351    Z=             -2.9642  Tot=              3.9607
 Quadrupole moment (field-independent basis, Debye-Ang):
   XX=            -50.0139   YY=            -61.5170   ZZ=            -62.3001
   XY=              6.9247   XZ=              6.4134   YZ=             -0.4475

 Normal termination of Gaussian 09 at Thu Feb  9 19:57:57 2017.
