 Gaussian 09, Revision A.02,
 Gaussian 09:  EM64L-G09RevA.02 11-Jun-2009

 -------------------------------------------
 # HF/6-31G* Opt=(ModRedundant) geom=nocrowd
 -------------------------------------------

 ------------------
 Phi Psi fixed scan
 ------------------
 Symbolic Z-matrix:
 Charge =  0 Multiplicity = 1

 SCF Done:  E(RHF) =  -492.828219207     A.U. after   15 cycles
 SCF Done:  E(RHF) =  -492.840344881     A.U. after   14 cycles
 SCF Done:  E(RHF) =  -492.842810040     A.U. after   13 cycles
 SCF Done:  E(RHF) =  -492.842865400     A.U. after   13 cycles
 SCF Done:  E(RHF) =  -492.843201895     A.U. after   13 cycles
 SCF Done:  E(RHF) =  -492.843239630     A.U. after   12 cycles
 SCF Done:  E(RHF) =  -492.843278380     A.U. after   12 cycles
 SCF Done:  E(RHF) =  -492.843308542     A.U. after   12 cycles
 SCF Done:  E(RHF) =  -492.843360329     A.U. after   13 cycles
 SCF Done:  E(RHF) =  -492.843378429     A.U. after   11 cycles
 SCF Done:  E(RHF) =  -492.843423328     A.U. after   14 cycles
 SCF Done:  E(RHF) =  -492.832418582     A.U. after   16 cycles
 SCF Done:  E(RHF) =  -492.843557768     A.U. after   16 cycles
 SCF Done:  E(RHF) =  -492.843418314     A.U. after   13 cycles
 SCF Done:  E(RHF) =  -492.843546044     A.U. after   13 cycles
 SCF Done:  E(RHF) =  -492.843633434     A.U. after   12 cycles
 SCF Done:  E(RHF) =  -492.843646783     A.U. after   11 cycles
 SCF Done:  E(RHF) =  -492.843648302     A.U. after   11 cycles
 SCF Done:  E(RHF) =  -492.843649081     A.U. after   10 cycles
 SCF Done:  E(RHF) =  -492.843649177     A.U. after    8 cycles
 Optimization completed.
    -- Stationary point found.

                         Standard orientation:
 ---------------------------------------------------------------------
 Center     Atomic      Atomic             Coordinates (Angstroms)
 Number     Number       Type             X           Y           Z
 ---------------------------------------------------------------------
      1          1           0       -3.713796   -1.481445    0.530325
      2          6           0       -2.866536   -1.535928   -0.136936
      3          1           0       -3.212475   -1.531966   -1.165180
      4          1           0       -2.342154   -2.470208    0.040985
      5          6           0       -1.941523   -0.369797    0.155732
      6          8           0       -2.029313    0.271164    1.159893
      7          7           0       -1.022580   -0.134032   -0.826200
      8          1           0       -1.011099   -0.780493   -1.581097
      9          6           0        0.096660    0.802402   -0.772313
     10          1           0        0.463179    0.854503   -1.792399
     11          6           0       -0.298951    2.209744   -0.338287
     12          1           0       -0.591021    2.224911    0.698244
     13          1           0        0.545314    2.877648   -0.476157
     14          1           0       -1.121822    2.563377   -0.949214
     15          6           0        1.223322    0.246764    0.112200
     16          8           0        1.293369    0.463860    1.287222
     17          7           0        2.143703   -0.503217   -0.540768
     18          1           0        2.008629   -0.714326   -1.501175
     19          6           0        3.210623   -1.174913    0.170006
     20          1           0        3.703597   -0.479348    0.833578
     21          1           0        2.840955   -2.005846    0.760977
     22          1           0        3.928814   -1.545890   -0.549435
 ---------------------------------------------------------------------

 The electronic state is 1-A.
 Alpha  occ. eigenvalues --  -20.52091 -20.52043 -15.59043 -15.58798 -11.34778
 Alpha  occ. eigenvalues --  -11.34053 -11.28531 -11.25899 -11.23253 -11.20730
 Alpha  occ. eigenvalues --   -1.39371  -1.38644  -1.24332  -1.22876  -1.05331
 Alpha  occ. eigenvalues --   -0.98957  -0.96072  -0.87601  -0.80284  -0.77523
 Alpha  occ. eigenvalues --   -0.71730  -0.69723  -0.65116  -0.64311  -0.61991
 Alpha  occ. eigenvalues --   -0.61876  -0.59994  -0.58855  -0.56448  -0.55777
 Alpha  occ. eigenvalues --   -0.55035  -0.52848  -0.51332  -0.51270  -0.50933
 Alpha  occ. eigenvalues --   -0.43784  -0.41056  -0.38961  -0.37736
 Alpha virt. eigenvalues --    0.18114   0.19951   0.21406   0.23913   0.26082
 Alpha virt. eigenvalues --    0.27339   0.28773   0.30513   0.31277   0.32549
 Alpha virt. eigenvalues --    0.32818   0.33537   0.34169   0.35630   0.37449

 Mulliken atomic charges:
              1
     1  H    0.218636
     2  C   -0.592684
     3  H    0.175062
     4  H    0.192859
     5  C    0.756557
     6  O   -0.576752
     7  N   -0.818548
     8  H    0.375522
     9  C   -0.037475
    10  H    0.176897
    11  C   -0.487300
    12  H    0.249029
    13  H    0.159665
    14  H    0.165480
    15  C    0.784750
    16  O   -0.590677
    17  N   -0.804838
    18  H    0.375699
    19  C   -0.270832
    20  H    0.205600
    21  H    0.178798
    22  H    0.164552
 Sum of Mulliken atomic charges =   0.00000

 Dipole moment (field-independent basis, Debye):
    X=              1.2403    Y=             -3.1028    Z=             -6.3678  Tot=              7.1913
 Quadrupole moment (field-independent basis, Debye-Ang):
   XX=            -56.3636   YY=            -56.6384   ZZ=            -63.3389
   XY=              0.8981   XZ=              0.5353   YZ=             -0.5889

 Normal termination of Gaussian 09 at Thu Feb  9 19:37:15 2017.
