 Gaussian 09, Revision A.02,
 Gaussian 09:  EM64L-G09RevA.02 11-Jun-2009

 -------------------------------------------
 # HF/6-31G* Opt=(ModRedundant) geom=nocrowd
 -------------------------------------------

 ------------------
 Phi Psi fixed scan
 ------------------
 Symbolic Z-matrix:
 Charge =  0 Multiplicity = 1

 SCF Done:  E(RHF) =  -492.826968191     A.U. after   15 cycles
 SCF Done:  E(RHF) =  -492.839689941     A.U. after   14 cycles
 SCF Done:  E(RHF) =  -492.842513153     A.U. after   13 cycles
 SCF Done:  E(RHF) =  -492.842895127     A.U. after   13 cycles
 SCF Done:  E(RHF) =  -492.843494044     A.U. after   13 cycles
 SCF Done:  E(RHF) =  -492.843918009     A.U. after   13 cycles
 SCF Done:  E(RHF) =  -492.844072233     A.U. after   13 cycles
 SCF Done:  E(RHF) =  -492.844255337     A.U. after   12 cycles
 SCF Done:  E(RHF) =  -492.844305492     A.U. after   12 cycles
 SCF Done:  E(RHF) =  -492.844337315     A.U. after   11 cycles
 SCF Done:  E(RHF) =  -492.844542119     A.U. after   14 cycles
 SCF Done:  E(RHF) =  -492.844567508     A.U. after   14 cycles
 SCF Done:  E(RHF) =  -492.844580788     A.U. after    9 cycles
 SCF Done:  E(RHF) =  -492.844663512     A.U. after   11 cycles
 SCF Done:  E(RHF) =  -492.844705194     A.U. after   11 cycles
 SCF Done:  E(RHF) =  -492.844707379     A.U. after   10 cycles
 SCF Done:  E(RHF) =  -492.844709167     A.U. after   10 cycles
 SCF Done:  E(RHF) =  -492.844709389     A.U. after    9 cycles
 SCF Done:  E(RHF) =  -492.844709754     A.U. after   10 cycles
 SCF Done:  E(RHF) =  -492.844710319     A.U. after    9 cycles
 Optimization completed.
    -- Stationary point found.

                         Standard orientation:
 ---------------------------------------------------------------------
 Center     Atomic      Atomic             Coordinates (Angstroms)
 Number     Number       Type             X           Y           Z
 ---------------------------------------------------------------------
      1          1           0       -3.805142   -1.416799    0.256774
      2          6           0       -2.903773   -1.435260   -0.337666
      3          1           0       -3.161316   -1.429558   -1.391561
      4          1           0       -2.362872   -2.352462   -0.124012
      5          6           0       -2.041579   -0.248469    0.043050
      6          8           0       -2.224269    0.367620    1.049027
      7          7           0       -1.081126    0.059470   -0.888711
      8          1           0       -0.978170   -0.618104   -1.611620
      9          6           0        0.130405    0.826251   -0.641818
     10          1           0        0.522613    1.051171   -1.628619
     11          6           0       -0.105076    2.153572    0.080159
     12          1           0       -0.415041    1.992603    1.099272
     13          1           0        0.815101    2.731009    0.071491
     14          1           0       -0.871451    2.721013   -0.433869
     15          6           0        1.162292   -0.018198    0.117723
     16          8           0        0.922087   -0.516451    1.180720
     17          7           0        2.341861   -0.201283   -0.521934
     18          1           0        2.536537    0.340372   -1.331547
     19          6           0        3.445614   -0.884008    0.120556
     20          1           0        3.094335   -1.807450    0.556196
     21          1           0        4.198139   -1.108011   -0.624091
     22          1           0        3.892272   -0.283781    0.906099
 ---------------------------------------------------------------------

 The electronic state is 1-A.
 Alpha  occ. eigenvalues --  -20.52298 -20.51754 -15.59188 -15.58394 -11.34333
 Alpha  occ. eigenvalues --  -11.34330 -11.28494 -11.26105 -11.22669 -11.21421
 Alpha  occ. eigenvalues --   -1.39506  -1.38393  -1.23973  -1.23199  -1.05325
 Alpha  occ. eigenvalues --   -0.98728  -0.96115  -0.87793  -0.79994  -0.77186
 Alpha  occ. eigenvalues --   -0.71680  -0.69584  -0.65477  -0.63504  -0.62570
 Alpha  occ. eigenvalues --   -0.61682  -0.59641  -0.58631  -0.56271  -0.55703
 Alpha  occ. eigenvalues --   -0.55580  -0.53231  -0.52105  -0.50783  -0.50468
 Alpha  occ. eigenvalues --   -0.43963  -0.40746  -0.39385  -0.37626
 Alpha virt. eigenvalues --    0.18575   0.19715   0.21928   0.23569   0.26085
 Alpha virt. eigenvalues --    0.28249   0.29176   0.30878   0.31174   0.31848
 Alpha virt. eigenvalues --    0.32930   0.33942   0.33993   0.35013   0.37176

 Mulliken atomic charges:
              1
     1  H    0.215239
     2  C   -0.597088
     3  H    0.174694
     4  H    0.198904
     5  C    0.762854
     6  O   -0.580310
     7  N   -0.792884
     8  H    0.374016
     9  C   -0.040342
    10  H    0.173186
    11  C   -0.489885
    12  H    0.244236
    13  H    0.150601
    14  H    0.180748
    15  C    0.762048
    16  O   -0.598435
    17  N   -0.797228
    18  H    0.381632
    19  C   -0.276295
    20  H    0.207244
    21  H    0.167440
    22  H    0.179624
 Sum of Mulliken atomic charges =   0.00000

 Dipole moment (field-independent basis, Debye):
    X=              2.9457    Y=             -0.5784    Z=             -5.6597  Tot=              6.4065
 Quadrupole moment (field-independent basis, Debye-Ang):
   XX=            -53.5129   YY=            -57.7756   ZZ=            -63.3925
   XY=              5.4908   XZ=              1.4577   YZ=              0.8131

 Normal termination of Gaussian 09 at Thu Feb  9 19:44:07 2017.
