 Gaussian 09, Revision A.02,
 Gaussian 09:  EM64L-G09RevA.02 11-Jun-2009

 -------------------------------------------
 # HF/6-31G* Opt=(ModRedundant) geom=nocrowd
 -------------------------------------------

 ------------------
 Phi Psi fixed scan
 ------------------
 Symbolic Z-matrix:
 Charge =  0 Multiplicity = 1

 SCF Done:  E(RHF) =  -492.831311627     A.U. after   15 cycles
 SCF Done:  E(RHF) =  -492.843190602     A.U. after   14 cycles
 SCF Done:  E(RHF) =  -492.846041655     A.U. after   13 cycles
 SCF Done:  E(RHF) =  -492.846507252     A.U. after   13 cycles
 SCF Done:  E(RHF) =  -492.847098292     A.U. after   13 cycles
 SCF Done:  E(RHF) =  -492.847724786     A.U. after   14 cycles
 SCF Done:  E(RHF) =  -492.848241893     A.U. after   13 cycles
 SCF Done:  E(RHF) =  -492.848429132     A.U. after   13 cycles
 SCF Done:  E(RHF) =  -492.848552299     A.U. after   12 cycles
 SCF Done:  E(RHF) =  -492.848638069     A.U. after   11 cycles
 SCF Done:  E(RHF) =  -492.849005712     A.U. after   11 cycles
 SCF Done:  E(RHF) =  -492.849192578     A.U. after   12 cycles
 SCF Done:  E(RHF) =  -492.849209286     A.U. after   11 cycles
 SCF Done:  E(RHF) =  -492.849216067     A.U. after   11 cycles
 SCF Done:  E(RHF) =  -492.849222386     A.U. after   10 cycles
 SCF Done:  E(RHF) =  -492.849226147     A.U. after   10 cycles
 SCF Done:  E(RHF) =  -492.849228867     A.U. after   11 cycles
 SCF Done:  E(RHF) =  -492.849230090     A.U. after   10 cycles
 SCF Done:  E(RHF) =  -492.849230177     A.U. after    8 cycles
 SCF Done:  E(RHF) =  -492.849230202     A.U. after    8 cycles
 Optimization completed.
    -- Stationary point found.

                         Standard orientation:
 ---------------------------------------------------------------------
 Center     Atomic      Atomic             Coordinates (Angstroms)
 Number     Number       Type             X           Y           Z
 ---------------------------------------------------------------------
      1          1           0       -3.448467   -1.693935    0.779050
      2          6           0       -3.073684   -1.196094   -0.102966
      3          1           0       -3.817452   -0.480459   -0.441292
      4          1           0       -2.917954   -1.921362   -0.894148
      5          6           0       -1.795509   -0.466155    0.252556
      6          8           0       -1.485260   -0.226199    1.381619
      7          7           0       -1.012354   -0.124700   -0.817128
      8          1           0       -1.451727   -0.203103   -1.707447
      9          6           0        0.043642    0.886852   -0.740742
     10          1           0        0.365606    1.029496   -1.766854
     11          6           0       -0.413980    2.228338   -0.178094
     12          1           0       -0.689359    2.139932    0.861281
     13          1           0        0.387042    2.952421   -0.256530
     14          1           0       -1.264746    2.591425   -0.747261
     15          6           0        1.274395    0.345330    0.001075
     16          8           0        1.766515    0.919905    0.927216
     17          7           0        1.841427   -0.746950   -0.575422
     18          1           0        1.245268   -1.303149   -1.145851
     19          6           0        2.939940   -1.426196    0.080720
     20          1           0        3.705860   -0.707789    0.330927
     21          1           0        2.629773   -1.927089    0.992321
     22          1           0        3.353777   -2.156927   -0.602321
 ---------------------------------------------------------------------

 The electronic state is 1-A.
 Alpha  occ. eigenvalues --  -20.53394 -20.52016 -15.59617 -15.57555 -11.35622
 Alpha  occ. eigenvalues --  -11.33771 -11.28347 -11.24975 -11.24076 -11.20959
 Alpha  occ. eigenvalues --   -1.40305  -1.38732  -1.24853  -1.22065  -1.05388
 Alpha  occ. eigenvalues --   -0.99565  -0.95459  -0.87514  -0.80436  -0.76765
 Alpha  occ. eigenvalues --   -0.71352  -0.69798  -0.65201  -0.64290  -0.62568
 Alpha  occ. eigenvalues --   -0.61334  -0.60278  -0.58871  -0.57333  -0.56076
 Alpha  occ. eigenvalues --   -0.54499  -0.52517  -0.52433  -0.51253  -0.50831
 Alpha  occ. eigenvalues --   -0.43438  -0.42049  -0.39131  -0.38414
 Alpha virt. eigenvalues --    0.18173   0.19044   0.22106   0.24633   0.26206
 Alpha virt. eigenvalues --    0.27825   0.28775   0.29951   0.31205   0.31677
 Alpha virt. eigenvalues --    0.32453   0.33455   0.34466   0.34822   0.37378

 Mulliken atomic charges:
              1
     1  H    0.220687
     2  C   -0.593403
     3  H    0.195380
     4  H    0.180092
     5  C    0.741072
     6  O   -0.575100
     7  N   -0.814659
     8  H    0.378741
     9  C   -0.065241
    10  H    0.197886
    11  C   -0.480399
    12  H    0.228806
    13  H    0.182371
    14  H    0.145854
    15  C    0.789074
    16  O   -0.595441
    17  N   -0.781095
    18  H    0.380455
    19  C   -0.280437
    20  H    0.204259
    21  H    0.176827
    22  H    0.164270
 Sum of Mulliken atomic charges =   0.00000

 Dipole moment (field-independent basis, Debye):
    X=             -2.2647    Y=             -2.3668    Z=             -5.7295  Tot=              6.5998
 Quadrupole moment (field-independent basis, Debye-Ang):
   XX=            -55.8996   YY=            -57.4028   ZZ=            -63.6210
   XY=             -3.4972   XZ=              2.2771   YZ=             -1.3501

 Normal termination of Gaussian 09 at Thu Feb  9 19:30:38 2017.
