 Gaussian 09, Revision A.02,
 Gaussian 09:  EM64L-G09RevA.02 11-Jun-2009

 -------------------------------------------
 # HF/6-31G* Opt=(ModRedundant) geom=nocrowd
 -------------------------------------------

 ------------------
 Phi Psi fixed scan
 ------------------
 Symbolic Z-matrix:
 Charge =  0 Multiplicity = 1

 SCF Done:  E(RHF) =  -492.833012575     A.U. after   15 cycles
 SCF Done:  E(RHF) =  -492.849360261     A.U. after   14 cycles
 SCF Done:  E(RHF) =  -492.853086790     A.U. after   14 cycles
 SCF Done:  E(RHF) =  -492.853945990     A.U. after   13 cycles
 SCF Done:  E(RHF) =  -492.854987385     A.U. after   13 cycles
 SCF Done:  E(RHF) =  -492.855250408     A.U. after   12 cycles
 SCF Done:  E(RHF) =  -492.855285783     A.U. after   12 cycles
 SCF Done:  E(RHF) =  -492.855380437     A.U. after   12 cycles
 SCF Done:  E(RHF) =  -492.855457610     A.U. after   12 cycles
 SCF Done:  E(RHF) =  -492.855576538     A.U. after   14 cycles
 SCF Done:  E(RHF) =  -492.856140187     A.U. after   11 cycles
 SCF Done:  E(RHF) =  -492.856143507     A.U. after   10 cycles
 SCF Done:  E(RHF) =  -492.856149289     A.U. after   10 cycles
 SCF Done:  E(RHF) =  -492.856152555     A.U. after   10 cycles
 SCF Done:  E(RHF) =  -492.856155874     A.U. after   10 cycles
 SCF Done:  E(RHF) =  -492.856158059     A.U. after   10 cycles
 SCF Done:  E(RHF) =  -492.856159742     A.U. after    9 cycles
 SCF Done:  E(RHF) =  -492.856160943     A.U. after   10 cycles
 SCF Done:  E(RHF) =  -492.856161426     A.U. after    9 cycles
 SCF Done:  E(RHF) =  -492.856161477     A.U. after    8 cycles
 Optimization completed.
    -- Stationary point found.

                         Standard orientation:
 ---------------------------------------------------------------------
 Center     Atomic      Atomic             Coordinates (Angstroms)
 Number     Number       Type             X           Y           Z
 ---------------------------------------------------------------------
      1          1           0       -3.429337   -1.746687   -0.167956
      2          6           0       -3.186271   -0.748625   -0.503057
      3          1           0       -3.931161   -0.065970   -0.106593
      4          1           0       -3.225691   -0.707489   -1.585216
      5          6           0       -1.832281   -0.363710    0.052740
      6          8           0       -1.445055   -0.792579    1.111888
      7          7           0       -1.111312    0.486984   -0.705823
      8          1           0       -1.496645    0.742840   -1.585095
      9          6           0        0.121056    1.178400   -0.332815
     10          1           0        0.304936    1.880692   -1.133008
     11          6           0       -0.007824    1.973118    0.972314
     12          1           0       -0.181495    1.320311    1.816251
     13          1           0        0.903945    2.533022    1.138868
     14          1           0       -0.835195    2.670538    0.898162
     15          6           0        1.397255    0.327994   -0.303986
     16          8           0        2.443615    0.868508   -0.552410
     17          7           0        1.290679   -0.978170   -0.006240
     18          1           0        0.454459   -1.280355    0.443650
     19          6           0        2.481183   -1.786058    0.152802
     20          1           0        3.114337   -1.681451   -0.716237
     21          1           0        3.055162   -1.499389    1.027994
     22          1           0        2.183927   -2.821910    0.249803
 ---------------------------------------------------------------------

 The electronic state is 1-A.
 Alpha  occ. eigenvalues --  -20.53858 -20.51392 -15.60214 -15.56896 -11.36600
 Alpha  occ. eigenvalues --  -11.33596 -11.28509 -11.24622 -11.24534 -11.22043
 Alpha  occ. eigenvalues --   -1.40724  -1.38235  -1.25295  -1.21893  -1.06030
 Alpha  occ. eigenvalues --   -1.00154  -0.94969  -0.88726  -0.80692  -0.77152
 Alpha  occ. eigenvalues --   -0.72635  -0.70447  -0.65406  -0.63399  -0.62309
 Alpha  occ. eigenvalues --   -0.61660  -0.60274  -0.59245  -0.57845  -0.56405
 Alpha  occ. eigenvalues --   -0.54614  -0.54351  -0.52524  -0.52067  -0.49531
 Alpha  occ. eigenvalues --   -0.43696  -0.43106  -0.39119  -0.37533
 Alpha virt. eigenvalues --    0.17931   0.19715   0.21250   0.25742   0.26263
 Alpha virt. eigenvalues --    0.28106   0.29222   0.31028   0.31093   0.32601
 Alpha virt. eigenvalues --    0.32952   0.34265   0.34517   0.35493   0.38052

 Mulliken atomic charges:
              1
     1  H    0.216119
     2  C   -0.579842
     3  H    0.207133
     4  H    0.175596
     5  C    0.755158
     6  O   -0.634792
     7  N   -0.809939
     8  H    0.391909
     9  C   -0.030832
    10  H    0.215287
    11  C   -0.504485
    12  H    0.210013
    13  H    0.197509
    14  H    0.166952
    15  C    0.756436
    16  O   -0.623611
    17  N   -0.810626
    18  H    0.438841
    19  C   -0.274481
    20  H    0.195424
    21  H    0.174493
    22  H    0.167738
 Sum of Mulliken atomic charges =   0.00000

 Dipole moment (field-independent basis, Debye):
    X=             -4.0187    Y=             -0.3005    Z=             -1.8957  Tot=              4.4535
 Quadrupole moment (field-independent basis, Debye-Ang):
   XX=            -62.5732   YY=            -57.7981   ZZ=            -61.0694
   XY=             -7.5122   XZ=              8.8194   YZ=              1.1414

 Normal termination of Gaussian 09 at Thu Feb  9 20:32:07 2017.
