 Gaussian 09, Revision A.02,
 Gaussian 09:  EM64L-G09RevA.02 11-Jun-2009

 -------------------------------------------
 # HF/6-31G* Opt=(ModRedundant) geom=nocrowd
 -------------------------------------------

 ------------------
 Phi Psi fixed scan
 ------------------
 Symbolic Z-matrix:
 Charge =  0 Multiplicity = 1

 SCF Done:  E(RHF) =  -492.837738458     A.U. after   15 cycles
 SCF Done:  E(RHF) =  -492.850897231     A.U. after   16 cycles
 SCF Done:  E(RHF) =  -492.855120966     A.U. after   13 cycles
 SCF Done:  E(RHF) =  -492.855586873     A.U. after   12 cycles
 SCF Done:  E(RHF) =  -492.855625455     A.U. after   13 cycles
 SCF Done:  E(RHF) =  -492.855802923     A.U. after   12 cycles
 SCF Done:  E(RHF) =  -492.855846425     A.U. after   12 cycles
 SCF Done:  E(RHF) =  -492.855894568     A.U. after   11 cycles
 SCF Done:  E(RHF) =  -492.855927490     A.U. after   10 cycles
 SCF Done:  E(RHF) =  -492.855988095     A.U. after   11 cycles
 SCF Done:  E(RHF) =  -492.856560976     A.U. after   11 cycles
 SCF Done:  E(RHF) =  -492.856572719     A.U. after   10 cycles
 SCF Done:  E(RHF) =  -492.856580063     A.U. after   11 cycles
 SCF Done:  E(RHF) =  -492.856581442     A.U. after   12 cycles
 SCF Done:  E(RHF) =  -492.856587472     A.U. after   11 cycles
 SCF Done:  E(RHF) =  -492.856587951     A.U. after    9 cycles
 SCF Done:  E(RHF) =  -492.856588179     A.U. after    9 cycles
 SCF Done:  E(RHF) =  -492.856588293     A.U. after    9 cycles
 SCF Done:  E(RHF) =  -492.856588327     A.U. after    8 cycles
 SCF Done:  E(RHF) =  -492.856588331     A.U. after    6 cycles
 Optimization completed.
    -- Stationary point found.

                         Standard orientation:
 ---------------------------------------------------------------------
 Center     Atomic      Atomic             Coordinates (Angstroms)
 Number     Number       Type             X           Y           Z
 ---------------------------------------------------------------------
      1          1           0       -3.820569   -1.027220    0.112015
      2          6           0       -3.069772   -0.865435   -0.649496
      3          1           0       -3.453075   -0.180484   -1.395801
      4          1           0       -2.864983   -1.819872   -1.122325
      5          6           0       -1.803114   -0.379803    0.021015
      6          8           0       -1.413412   -0.884510    1.045502
      7          7           0       -1.149263    0.617214   -0.609336
      8          1           0       -1.501964    0.914591   -1.489141
      9          6           0        0.092290    1.252656   -0.166325
     10          1           0        0.244678    2.072907   -0.852030
     11          6           0        0.012561    1.824178    1.249768
     12          1           0       -0.149034    1.060903    1.995095
     13          1           0        0.936406    2.344919    1.478318
     14          1           0       -0.802708    2.537245    1.306770
     15          6           0        1.314120    0.354291   -0.408289
     16          8           0        2.088087    0.620757   -1.290278
     17          7           0        1.475002   -0.686762    0.427740
     18          1           0        0.696501   -0.952090    0.991308
     19          6           0        2.546906   -1.637213    0.228065
     20          1           0        3.491209   -1.117711    0.149411
     21          1           0        2.580795   -2.302626    1.080414
     22          1           0        2.407223   -2.225728   -0.673085
 ---------------------------------------------------------------------

 The electronic state is 1-A.
 Alpha  occ. eigenvalues --  -20.53648 -20.51598 -15.60270 -15.56864 -11.36474
 Alpha  occ. eigenvalues --  -11.33504 -11.28339 -11.24686 -11.24346 -11.22196
 Alpha  occ. eigenvalues --   -1.40516  -1.38246  -1.25144  -1.21961  -1.06016
 Alpha  occ. eigenvalues --   -1.00095  -0.94812  -0.89033  -0.80697  -0.76957
 Alpha  occ. eigenvalues --   -0.72380  -0.70419  -0.65524  -0.63499  -0.62682
 Alpha  occ. eigenvalues --   -0.61573  -0.60202  -0.58560  -0.57597  -0.56549
 Alpha  occ. eigenvalues --   -0.54760  -0.54067  -0.52587  -0.51513  -0.50919
 Alpha  occ. eigenvalues --   -0.43888  -0.42822  -0.38656  -0.37658
 Alpha virt. eigenvalues --    0.18342   0.19804   0.21573   0.25568   0.26090
 Alpha virt. eigenvalues --    0.27621   0.29205   0.30687   0.31420   0.32542
 Alpha virt. eigenvalues --    0.33179   0.33930   0.34105   0.36037   0.37631

 Mulliken atomic charges:
              1
     1  H    0.215362
     2  C   -0.578352
     3  H    0.172937
     4  H    0.209283
     5  C    0.765571
     6  O   -0.638480
     7  N   -0.815988
     8  H    0.395266
     9  C   -0.050159
    10  H    0.220023
    11  C   -0.492804
    12  H    0.208623
    13  H    0.177820
    14  H    0.170517
    15  C    0.759914
    16  O   -0.621501
    17  N   -0.803260
    18  H    0.442016
    19  C   -0.272484
    20  H    0.195394
    21  H    0.169533
    22  H    0.170769
 Sum of Mulliken atomic charges =   0.00000

 Dipole moment (field-independent basis, Debye):
    X=             -3.2689    Y=              0.1852    Z=             -0.4832  Tot=              3.3096
 Quadrupole moment (field-independent basis, Debye-Ang):
   XX=            -59.9202   YY=            -57.1884   ZZ=            -63.8441
   XY=             -5.4787   XZ=             11.7156   YZ=              2.3201

 Normal termination of Gaussian 09 at Thu Feb  9 20:21:57 2017.
