 Gaussian 09, Revision A.02,
 Gaussian 09:  EM64L-G09RevA.02 11-Jun-2009

 -------------------------------------------
 # HF/6-31G* Opt=(ModRedundant) geom=nocrowd
 -------------------------------------------

 ------------------
 Phi Psi fixed scan
 ------------------
 Symbolic Z-matrix:
 Charge =  0 Multiplicity = 1

 SCF Done:  E(RHF) =  -492.833485859     A.U. after   15 cycles
 SCF Done:  E(RHF) =  -492.843644038     A.U. after   14 cycles
 SCF Done:  E(RHF) =  -492.846912996     A.U. after   14 cycles
 SCF Done:  E(RHF) =  -492.847598887     A.U. after   13 cycles
 SCF Done:  E(RHF) =  -492.848541608     A.U. after   13 cycles
 SCF Done:  E(RHF) =  -492.849148838     A.U. after   13 cycles
 SCF Done:  E(RHF) =  -492.849458158     A.U. after   13 cycles
 SCF Done:  E(RHF) =  -492.849715942     A.U. after   11 cycles
 SCF Done:  E(RHF) =  -492.849767984     A.U. after   12 cycles
 SCF Done:  E(RHF) =  -492.849787448     A.U. after   11 cycles
 SCF Done:  E(RHF) =  -492.850105492     A.U. after   13 cycles
 SCF Done:  E(RHF) =  -492.849962884     A.U. after   14 cycles
 SCF Done:  E(RHF) =  -492.806807371     A.U. after   15 cycles
 SCF Done:  E(RHF) =  -492.850125455     A.U. after   14 cycles
 SCF Done:  E(RHF) =  -492.850134500     A.U. after   10 cycles
 SCF Done:  E(RHF) =  -492.850144806     A.U. after   11 cycles
 SCF Done:  E(RHF) =  -492.850151364     A.U. after   10 cycles
 SCF Done:  E(RHF) =  -492.850156566     A.U. after   10 cycles
 SCF Done:  E(RHF) =  -492.850159084     A.U. after    9 cycles
 SCF Done:  E(RHF) =  -492.850159406     A.U. after    9 cycles
 Optimization completed.
    -- Stationary point found.

                         Standard orientation:
 ---------------------------------------------------------------------
 Center     Atomic      Atomic             Coordinates (Angstroms)
 Number     Number       Type             X           Y           Z
 ---------------------------------------------------------------------
      1          1           0       -3.898190   -1.081878    0.504722
      2          6           0       -3.098450   -1.124585   -0.219915
      3          1           0       -3.494070   -0.946293   -1.213952
      4          1           0       -2.657940   -2.116751   -0.199275
      5          6           0       -2.037046   -0.114167    0.156673
      6          8           0       -1.975277    0.365576    1.251041
      7          7           0       -1.184736    0.212069   -0.865372
      8          1           0       -1.211136   -0.419385   -1.635109
      9          6           0        0.118380    0.805011   -0.656629
     10          1           0        0.466043    1.089661   -1.645857
     11          6           0        0.099054    2.078558    0.198665
     12          1           0       -0.070013    1.861987    1.240887
     13          1           0        1.038171    2.612682    0.091764
     14          1           0       -0.693889    2.729466   -0.147281
     15          6           0        1.109608   -0.252114   -0.143470
     16          8           0        0.753166   -1.338124    0.220430
     17          7           0        2.414125    0.098771   -0.213693
     18          1           0        2.645536    1.046609   -0.400382
     19          6           0        3.453809   -0.762471    0.310842
     20          1           0        3.316096   -1.766313   -0.062682
     21          1           0        4.413615   -0.390858   -0.023084
     22          1           0        3.444824   -0.795809    1.394941
 ---------------------------------------------------------------------

 The electronic state is 1-A.
 Alpha  occ. eigenvalues --  -20.52694 -20.51740 -15.58825 -15.57821 -11.34456
 Alpha  occ. eigenvalues --  -11.34135 -11.28397 -11.25965 -11.22295 -11.22276
 Alpha  occ. eigenvalues --   -1.39731  -1.38329  -1.23629  -1.23248  -1.05375
 Alpha  occ. eigenvalues --   -0.98655  -0.95691  -0.88405  -0.79866  -0.76795
 Alpha  occ. eigenvalues --   -0.71877  -0.69627  -0.65415  -0.63216  -0.62288
 Alpha  occ. eigenvalues --   -0.61828  -0.59503  -0.58474  -0.56334  -0.56031
 Alpha  occ. eigenvalues --   -0.55466  -0.53586  -0.53385  -0.50567  -0.50184
 Alpha  occ. eigenvalues --   -0.43023  -0.40902  -0.39301  -0.38465
 Alpha virt. eigenvalues --    0.19300   0.20470   0.21401   0.23079   0.26138
 Alpha virt. eigenvalues --    0.27696   0.29937   0.30744   0.31657   0.32088
 Alpha virt. eigenvalues --    0.32763   0.33611   0.34105   0.35003   0.37397

 Mulliken atomic charges:
              1
     1  H    0.211248
     2  C   -0.599223
     3  H    0.175839
     4  H    0.208375
     5  C    0.761188
     6  O   -0.597856
     7  N   -0.769967
     8  H    0.378240
     9  C   -0.061142
    10  H    0.193566
    11  C   -0.483689
    12  H    0.230156
    13  H    0.139343
    14  H    0.190888
    15  C    0.765214
    16  O   -0.609539
    17  N   -0.796595
    18  H    0.385049
    19  C   -0.273151
    20  H    0.203862
    21  H    0.167513
    22  H    0.180683
 Sum of Mulliken atomic charges =   0.00000

 Dipole moment (field-independent basis, Debye):
    X=              2.5639    Y=              1.3980    Z=             -3.7093  Tot=              4.7209
 Quadrupole moment (field-independent basis, Debye-Ang):
   XX=            -50.4715   YY=            -61.0147   ZZ=            -62.2565
   XY=              6.9466   XZ=              5.4588   YZ=              0.3107

 Normal termination of Gaussian 09 at Thu Feb  9 19:53:33 2017.
