 Gaussian 09, Revision A.02,
 Gaussian 09:  EM64L-G09RevA.02 11-Jun-2009

 -------------------------------------------
 # HF/6-31G* Opt=(ModRedundant) geom=nocrowd
 -------------------------------------------

 ------------------
 Phi Psi fixed scan
 ------------------
 Symbolic Z-matrix:
 Charge =  0 Multiplicity = 1

 SCF Done:  E(RHF) =  -492.827189779     A.U. after   15 cycles
 SCF Done:  E(RHF) =  -492.839638163     A.U. after   14 cycles
 SCF Done:  E(RHF) =  -492.842217946     A.U. after   13 cycles
 SCF Done:  E(RHF) =  -492.842405731     A.U. after   13 cycles
 SCF Done:  E(RHF) =  -492.842826361     A.U. after   13 cycles
 SCF Done:  E(RHF) =  -492.843018639     A.U. after   13 cycles
 SCF Done:  E(RHF) =  -492.843133010     A.U. after   13 cycles
 SCF Done:  E(RHF) =  -492.843332249     A.U. after   12 cycles
 SCF Done:  E(RHF) =  -492.843408791     A.U. after   11 cycles
 SCF Done:  E(RHF) =  -492.843427884     A.U. after   11 cycles
 SCF Done:  E(RHF) =  -492.843611854     A.U. after   12 cycles
 SCF Done:  E(RHF) =  -492.843738359     A.U. after   12 cycles
 SCF Done:  E(RHF) =  -492.843769077     A.U. after   10 cycles
 SCF Done:  E(RHF) =  -492.843779482     A.U. after    9 cycles
 SCF Done:  E(RHF) =  -492.843794737     A.U. after   12 cycles
 SCF Done:  E(RHF) =  -492.843834508     A.U. after   11 cycles
 SCF Done:  E(RHF) =  -492.843834906     A.U. after    9 cycles
 SCF Done:  E(RHF) =  -492.843835054     A.U. after    9 cycles
 SCF Done:  E(RHF) =  -492.843835087     A.U. after    8 cycles
 SCF Done:  E(RHF) =  -492.843835095     A.U. after    7 cycles
 Optimization completed.
    -- Stationary point found.

                         Standard orientation:
 ---------------------------------------------------------------------
 Center     Atomic      Atomic             Coordinates (Angstroms)
 Number     Number       Type             X           Y           Z
 ---------------------------------------------------------------------
      1          1           0       -3.740580   -1.503888    0.363241
      2          6           0       -2.844422   -1.535620   -0.238428
      3          1           0       -3.111772   -1.586985   -1.288572
      4          1           0       -2.285931   -2.432153    0.014479
      5          6           0       -2.003231   -0.313306    0.073899
      6          8           0       -2.194010    0.352697    1.045950
      7          7           0       -1.048379   -0.044709   -0.872640
      8          1           0       -0.929994   -0.755376   -1.559869
      9          6           0        0.117819    0.814446   -0.704910
     10          1           0        0.505238    0.952198   -1.709359
     11          6           0       -0.204474    2.192532   -0.132257
     12          1           0       -0.509312    2.121169    0.898269
     13          1           0        0.678289    2.821669   -0.200844
     14          1           0       -0.999936    2.652744   -0.706311
     15          6           0        1.184219    0.109569    0.145165
     16          8           0        1.058930   -0.054639    1.324926
     17          7           0        2.252682   -0.360094   -0.543813
     18          1           0        2.386291   -0.064732   -1.482512
     19          6           0        3.367235   -0.984069    0.138342
     20          1           0        2.999556   -1.734037    0.822871
     21          1           0        4.004697   -1.458194   -0.596443
     22          1           0        3.951098   -0.264558    0.702361
 ---------------------------------------------------------------------

 The electronic state is 1-A.
 Alpha  occ. eigenvalues --  -20.52241 -20.51913 -15.59122 -15.58652 -11.34502
 Alpha  occ. eigenvalues --  -11.34263 -11.28513 -11.26067 -11.22895 -11.21071
 Alpha  occ. eigenvalues --   -1.39469  -1.38540  -1.24117  -1.23114  -1.05302
 Alpha  occ. eigenvalues --   -0.98792  -0.96155  -0.87683  -0.80036  -0.77302
 Alpha  occ. eigenvalues --   -0.71709  -0.69637  -0.65418  -0.63778  -0.62573
 Alpha  occ. eigenvalues --   -0.61621  -0.59812  -0.58747  -0.56286  -0.55716
 Alpha  occ. eigenvalues --   -0.55267  -0.53065  -0.51628  -0.50991  -0.50737
 Alpha  occ. eigenvalues --   -0.44080  -0.40863  -0.39368  -0.37559
 Alpha virt. eigenvalues --    0.18442   0.19695   0.21865   0.23544   0.26072
 Alpha virt. eigenvalues --    0.28249   0.28769   0.30794   0.31200   0.32199
 Alpha virt. eigenvalues --    0.32671   0.33666   0.34243   0.35344   0.37259

 Mulliken atomic charges:
              1
     1  H    0.216701
     2  C   -0.595544
     3  H    0.175826
     4  H    0.195456
     5  C    0.757947
     6  O   -0.576128
     7  N   -0.801245
     8  H    0.374575
     9  C   -0.033820
    10  H    0.171230
    11  C   -0.490728
    12  H    0.247928
    13  H    0.152841
    14  H    0.175522
    15  C    0.767684
    16  O   -0.594387
    17  N   -0.801667
    18  H    0.380084
    19  C   -0.275005
    20  H    0.206365
    21  H    0.166419
    22  H    0.179946
 Sum of Mulliken atomic charges =   0.00000

 Dipole moment (field-independent basis, Debye):
    X=              2.5672    Y=             -1.7139    Z=             -6.0193  Tot=              6.7646
 Quadrupole moment (field-independent basis, Debye-Ang):
   XX=            -54.6736   YY=            -56.9756   ZZ=            -63.6970
   XY=              3.9965   XZ=              0.2457   YZ=             -0.1973

 Normal termination of Gaussian 09 at Thu Feb  9 19:41:05 2017.
