 Gaussian 09, Revision A.02,
 Gaussian 09:  EM64L-G09RevA.02 11-Jun-2009

 -------------------------------------------
 # HF/6-31G* Opt=(ModRedundant) geom=nocrowd
 -------------------------------------------

 ------------------
 Phi Psi fixed scan
 ------------------
 Symbolic Z-matrix:
 Charge =  0 Multiplicity = 1

 SCF Done:  E(RHF) =  -492.828314171     A.U. after   15 cycles
 SCF Done:  E(RHF) =  -492.840669810     A.U. after   14 cycles
 SCF Done:  E(RHF) =  -492.843754070     A.U. after   13 cycles
 SCF Done:  E(RHF) =  -492.844270642     A.U. after   13 cycles
 SCF Done:  E(RHF) =  -492.845072060     A.U. after   13 cycles
 SCF Done:  E(RHF) =  -492.845631571     A.U. after   13 cycles
 SCF Done:  E(RHF) =  -492.845896666     A.U. after   16 cycles
 SCF Done:  E(RHF) =  -492.845888386     A.U. after   13 cycles
 SCF Done:  E(RHF) =  -492.846030418     A.U. after   12 cycles
 SCF Done:  E(RHF) =  -492.846069532     A.U. after   11 cycles
 SCF Done:  E(RHF) =  -492.846158469     A.U. after   11 cycles
 SCF Done:  E(RHF) =  -492.846206404     A.U. after   11 cycles
 SCF Done:  E(RHF) =  -492.846372679     A.U. after   12 cycles
 SCF Done:  E(RHF) =  -492.846412971     A.U. after   16 cycles
 SCF Done:  E(RHF) =  -492.846419643     A.U. after   10 cycles
 SCF Done:  E(RHF) =  -492.846421684     A.U. after   16 cycles
 SCF Done:  E(RHF) =  -492.846424310     A.U. after   11 cycles
 SCF Done:  E(RHF) =  -492.846426241     A.U. after    9 cycles
 SCF Done:  E(RHF) =  -492.846427478     A.U. after   10 cycles
 SCF Done:  E(RHF) =  -492.846427499     A.U. after    8 cycles
 Optimization completed.
    -- Stationary point found.

                         Standard orientation:
 ---------------------------------------------------------------------
 Center     Atomic      Atomic             Coordinates (Angstroms)
 Number     Number       Type             X           Y           Z
 ---------------------------------------------------------------------
      1          1           0        3.860151   -1.298815   -0.248003
      2          6           0        2.974745   -1.314544    0.370107
      3          1           0        3.257075   -1.241060    1.415063
      4          1           0        2.459793   -2.258875    0.220808
      5          6           0        2.060138   -0.183795   -0.052566
      6          8           0        2.189430    0.376554   -1.099318
      7          7           0        1.116797    0.150260    0.888337
      8          1           0        1.050736   -0.494404    1.645063
      9          6           0       -0.135482    0.828033    0.608206
     10          1           0       -0.524582    1.113546    1.580743
     11          6           0        0.008952    2.105706   -0.224039
     12          1           0        0.303043    1.884694   -1.236840
     13          1           0       -0.939254    2.635576   -0.232428
     14          1           0        0.757318    2.749702    0.221249
     15          6           0       -1.140122   -0.130259   -0.045305
     16          8           0       -0.821706   -0.905808   -0.901900
     17          7           0       -2.396502   -0.071893    0.456491
     18          1           0       -2.628390    0.672339    1.073026
     19          6           0       -3.483446   -0.813236   -0.148801
     20          1           0       -3.171016   -1.832315   -0.320332
     21          1           0       -4.326906   -0.811562    0.529092
     22          1           0       -3.790535   -0.384801   -1.097108
 ---------------------------------------------------------------------

 The electronic state is 1-A.
 Alpha  occ. eigenvalues --  -20.52482 -20.51644 -15.59135 -15.58152 -11.34402
 Alpha  occ. eigenvalues --  -11.34201 -11.28467 -11.26095 -11.22458 -11.21780
 Alpha  occ. eigenvalues --   -1.39605  -1.38292  -1.23873  -1.23225  -1.05362
 Alpha  occ. eigenvalues --   -0.98674  -0.96013  -0.87951  -0.79934  -0.77057
 Alpha  occ. eigenvalues --   -0.71702  -0.69573  -0.65486  -0.63243  -0.62545
 Alpha  occ. eigenvalues --   -0.61805  -0.59505  -0.58545  -0.56344  -0.55764
 Alpha  occ. eigenvalues --   -0.55635  -0.53378  -0.52644  -0.50620  -0.50325
 Alpha  occ. eigenvalues --   -0.43743  -0.40693  -0.39406  -0.37826
 Alpha virt. eigenvalues --    0.18734   0.19866   0.21982   0.23343   0.26126
 Alpha virt. eigenvalues --    0.28190   0.29290   0.30764   0.31348   0.31821
 Alpha virt. eigenvalues --    0.32956   0.33861   0.34293   0.34647   0.37252

 Mulliken atomic charges:
              1
     1  H    0.213595
     2  C   -0.598879
     3  H    0.174019
     4  H    0.203111
     5  C    0.766415
     6  O   -0.586638
     7  N   -0.784177
     8  H    0.374222
     9  C   -0.050440
    10  H    0.177778
    11  C   -0.485909
    12  H    0.239579
    13  H    0.147683
    14  H    0.185127
    15  C    0.758866
    16  O   -0.600112
    17  N   -0.793911
    18  H    0.381594
    19  C   -0.276945
    20  H    0.208118
    21  H    0.168229
    22  H    0.178675
 Sum of Mulliken atomic charges =   0.00000

 Dipole moment (field-independent basis, Debye):
    X=             -3.0503    Y=              0.3753    Z=              5.0610  Tot=              5.9210
 Quadrupole moment (field-independent basis, Debye-Ang):
   XX=            -52.3973   YY=            -59.0323   ZZ=            -62.8095
   XY=             -6.4477   XZ=              3.0207   YZ=             -1.1952

 Normal termination of Gaussian 09 at Thu Feb  9 19:47:05 2017.
