 Gaussian 09, Revision A.02,
 Gaussian 09:  EM64L-G09RevA.02 11-Jun-2009

 -------------------------------------------
 # HF/6-31G* Opt=(ModRedundant) geom=nocrowd
 -------------------------------------------

 ------------------
 Phi Psi fixed scan
 ------------------
 Symbolic Z-matrix:
 Charge =  0 Multiplicity = 1

 SCF Done:  E(RHF) =  -492.836493651     A.U. after   15 cycles
 SCF Done:  E(RHF) =  -492.848372624     A.U. after   14 cycles
 SCF Done:  E(RHF) =  -492.851516949     A.U. after   13 cycles
 SCF Done:  E(RHF) =  -492.852137697     A.U. after   13 cycles
 SCF Done:  E(RHF) =  -492.852424723     A.U. after   13 cycles
 SCF Done:  E(RHF) =  -492.852816665     A.U. after   13 cycles
 SCF Done:  E(RHF) =  -492.852996351     A.U. after   13 cycles
 SCF Done:  E(RHF) =  -492.853019351     A.U. after   13 cycles
 SCF Done:  E(RHF) =  -492.853142885     A.U. after   11 cycles
 SCF Done:  E(RHF) =  -492.853188628     A.U. after   11 cycles
 SCF Done:  E(RHF) =  -492.853518776     A.U. after   12 cycles
 SCF Done:  E(RHF) =  -492.853573375     A.U. after   12 cycles
 SCF Done:  E(RHF) =  -492.853597712     A.U. after   11 cycles
 SCF Done:  E(RHF) =  -492.853600945     A.U. after   10 cycles
 SCF Done:  E(RHF) =  -492.853641606     A.U. after   11 cycles
 SCF Done:  E(RHF) =  -492.853658411     A.U. after   12 cycles
 SCF Done:  E(RHF) =  -492.853665488     A.U. after   11 cycles
 SCF Done:  E(RHF) =  -492.853670092     A.U. after   11 cycles
 SCF Done:  E(RHF) =  -492.853672074     A.U. after    9 cycles
 SCF Done:  E(RHF) =  -492.853672511     A.U. after    9 cycles
 Optimization completed.
    -- Stationary point found.

                         Standard orientation:
 ---------------------------------------------------------------------
 Center     Atomic      Atomic             Coordinates (Angstroms)
 Number     Number       Type             X           Y           Z
 ---------------------------------------------------------------------
      1          1           0       -3.431524   -1.711877    0.495233
      2          6           0       -3.125148   -0.965778   -0.223174
      3          1           0       -3.856360   -0.162941   -0.221321
      4          1           0       -3.103505   -1.400852   -1.216295
      5          6           0       -1.777667   -0.411524    0.188021
      6          8           0       -1.362628   -0.501034    1.308741
      7          7           0       -1.064324    0.180592   -0.810977
      8          1           0       -1.529105    0.296711   -1.682704
      9          6           0        0.077916    1.060122   -0.577469
     10          1           0        0.319980    1.466729   -1.554093
     11          6           0       -0.229869    2.231522    0.356858
     12          1           0       -0.459865    1.883944    1.353825
     13          1           0        0.626046    2.888723    0.407114
     14          1           0       -1.079667    2.788295   -0.025686
     15          6           0        1.365238    0.339862   -0.159199
     16          8           0        2.300923    0.987739    0.227327
     17          7           0        1.422891   -0.991593   -0.343976
     18          1           0        0.569053   -1.476826   -0.480426
     19          6           0        2.574954   -1.746859    0.099535
     20          1           0        3.477708   -1.283727   -0.270107
     21          1           0        2.632996   -1.797928    1.181510
     22          1           0        2.505367   -2.750953   -0.298349
 ---------------------------------------------------------------------

 The electronic state is 1-A.
 Alpha  occ. eigenvalues --  -20.53744 -20.51343 -15.59880 -15.57472 -11.36106
 Alpha  occ. eigenvalues --  -11.33756 -11.28442 -11.24864 -11.24460 -11.21116
 Alpha  occ. eigenvalues --   -1.40652  -1.38327  -1.25178  -1.22037  -1.05575
 Alpha  occ. eigenvalues --   -0.99843  -0.95408  -0.87977  -0.80550  -0.77440
 Alpha  occ. eigenvalues --   -0.72102  -0.70089  -0.65495  -0.63718  -0.62441
 Alpha  occ. eigenvalues --   -0.61605  -0.60243  -0.59113  -0.57706  -0.55940
 Alpha  occ. eigenvalues --   -0.54565  -0.53832  -0.52210  -0.51754  -0.49762
 Alpha  occ. eigenvalues --   -0.43390  -0.42617  -0.39189  -0.37948
 Alpha virt. eigenvalues --    0.18594   0.18880   0.21794   0.25039   0.26101
 Alpha virt. eigenvalues --    0.28264   0.29363   0.29607   0.30747   0.31792
 Alpha virt. eigenvalues --    0.33170   0.33627   0.34549   0.34975   0.36829

 Mulliken atomic charges:
              1
     1  H    0.219027
     2  C   -0.590586
     3  H    0.201600
     4  H    0.178303
     5  C    0.730971
     6  O   -0.590990
     7  N   -0.827170
     8  H    0.385732
     9  C   -0.032878
    10  H    0.207411
    11  C   -0.494376
    12  H    0.212843
    13  H    0.206298
    14  H    0.150894
    15  C    0.785613
    16  O   -0.624762
    17  N   -0.788107
    18  H    0.399635
    19  C   -0.275562
    20  H    0.200552
    21  H    0.181880
    22  H    0.163674
 Sum of Mulliken atomic charges =   0.00000

 Dipole moment (field-independent basis, Debye):
    X=             -3.8349    Y=             -1.6567    Z=             -4.1494  Tot=              5.8881
 Quadrupole moment (field-independent basis, Debye-Ang):
   XX=            -60.4472   YY=            -57.1612   ZZ=            -62.0308
   XY=             -6.2073   XZ=              4.1975   YZ=             -0.4780

 Normal termination of Gaussian 09 at Thu Feb  9 19:22:51 2017.
