 Gaussian 09, Revision A.02,
 Gaussian 09:  EM64L-G09RevA.02 11-Jun-2009

 -------------------------------------------
 # HF/6-31G* Opt=(ModRedundant) geom=nocrowd
 -------------------------------------------

 ------------------
 Phi Psi fixed scan
 ------------------
 Symbolic Z-matrix:
 Charge =  0 Multiplicity = 1

 SCF Done:  E(RHF) =  -492.829406974     A.U. after   15 cycles
 SCF Done:  E(RHF) =  -492.845493065     A.U. after   15 cycles
 SCF Done:  E(RHF) =  -492.850279370     A.U. after   13 cycles
 SCF Done:  E(RHF) =  -492.850957611     A.U. after   13 cycles
 SCF Done:  E(RHF) =  -492.851225759     A.U. after   13 cycles
 SCF Done:  E(RHF) =  -492.851536347     A.U. after   13 cycles
 SCF Done:  E(RHF) =  -492.851760840     A.U. after   12 cycles
 SCF Done:  E(RHF) =  -492.851818290     A.U. after   12 cycles
 SCF Done:  E(RHF) =  -492.851927337     A.U. after   11 cycles
 SCF Done:  E(RHF) =  -492.851963223     A.U. after   10 cycles
 SCF Done:  E(RHF) =  -492.852422641     A.U. after   11 cycles
 SCF Done:  E(RHF) =  -492.852461819     A.U. after   12 cycles
 SCF Done:  E(RHF) =  -492.852491037     A.U. after   12 cycles
 SCF Done:  E(RHF) =  -492.852504654     A.U. after   11 cycles
 SCF Done:  E(RHF) =  -492.852511242     A.U. after   11 cycles
 SCF Done:  E(RHF) =  -492.852512516     A.U. after   10 cycles
 SCF Done:  E(RHF) =  -492.852513608     A.U. after   10 cycles
 SCF Done:  E(RHF) =  -492.852514896     A.U. after   10 cycles
 SCF Done:  E(RHF) =  -492.852515930     A.U. after   10 cycles
 SCF Done:  E(RHF) =  -492.852515968     A.U. after    8 cycles
 Optimization completed.
    -- Stationary point found.

                         Standard orientation:
 ---------------------------------------------------------------------
 Center     Atomic      Atomic             Coordinates (Angstroms)
 Number     Number       Type             X           Y           Z
 ---------------------------------------------------------------------
      1          1           0       -3.713759   -1.035358    1.024763
      2          6           0       -3.102651   -1.067113    0.134573
      3          1           0       -3.683409   -0.746221   -0.722473
      4          1           0       -2.785786   -2.092322   -0.032485
      5          6           0       -1.879945   -0.201456    0.347253
      6          8           0       -1.492722    0.097757    1.443857
      7          7           0       -1.255598    0.194483   -0.793954
      8          1           0       -1.466888   -0.322105   -1.617449
      9          6           0        0.038085    0.855748   -0.798445
     10          1           0        0.213891    1.116659   -1.836570
     11          6           0        0.058361    2.160081   -0.003136
     12          1           0       -0.061051    2.001014    1.057764
     13          1           0        0.985554    2.691910   -0.191310
     14          1           0       -0.757746    2.788712   -0.339030
     15          6           0        1.134782   -0.182489   -0.508867
     16          8           0        1.131391   -1.218418   -1.120030
     17          7           0        2.096180    0.142177    0.376041
     18          1           0        1.921805    0.891408    1.003744
     19          6           0        3.117469   -0.817148    0.743129
     20          1           0        3.561457   -1.232031   -0.149416
     21          1           0        3.882513   -0.308062    1.314375
     22          1           0        2.713390   -1.630666    1.335831
 ---------------------------------------------------------------------

 The electronic state is 1-A.
 Alpha  occ. eigenvalues --  -20.52583 -20.51947 -15.58445 -15.58383 -11.34911
 Alpha  occ. eigenvalues --  -11.34194 -11.28265 -11.25457 -11.23046 -11.22316
 Alpha  occ. eigenvalues --   -1.39619  -1.38666  -1.23773  -1.23136  -1.05551
 Alpha  occ. eigenvalues --   -0.99216  -0.95265  -0.89002  -0.79969  -0.76923
 Alpha  occ. eigenvalues --   -0.72025  -0.70024  -0.65160  -0.64207  -0.61958
 Alpha  occ. eigenvalues --   -0.61625  -0.59686  -0.58640  -0.56579  -0.55587
 Alpha  occ. eigenvalues --   -0.55269  -0.54714  -0.52942  -0.51268  -0.50337
 Alpha  occ. eigenvalues --   -0.42635  -0.41683  -0.39467  -0.38291
 Alpha virt. eigenvalues --    0.19268   0.20244   0.22350   0.23737   0.26063
 Alpha virt. eigenvalues --    0.27238   0.29522   0.30500   0.31321   0.31919
 Alpha virt. eigenvalues --    0.32677   0.33995   0.34457   0.34583   0.37906

 Mulliken atomic charges:
              1
     1  H    0.213016
     2  C   -0.590927
     3  H    0.181623
     4  H    0.204344
     5  C    0.749123
     6  O   -0.612240
     7  N   -0.777436
     8  H    0.393546
     9  C   -0.046356
    10  H    0.208855
    11  C   -0.522008
    12  H    0.217557
    13  H    0.164476
    14  H    0.187606
    15  C    0.779193
    16  O   -0.629755
    17  N   -0.796363
    18  H    0.399606
    19  C   -0.276376
    20  H    0.202378
    21  H    0.168262
    22  H    0.181875
 Sum of Mulliken atomic charges =   0.00000

 Dipole moment (field-independent basis, Debye):
    X=              0.0254    Y=              1.6696    Z=             -0.8738  Tot=              1.8846
 Quadrupole moment (field-independent basis, Debye-Ang):
   XX=            -51.6625   YY=            -60.8065   ZZ=            -63.4382
   XY=              5.5010   XZ=              9.4278   YZ=             -2.9050

 Normal termination of Gaussian 09 at Thu Feb  9 20:06:29 2017.
