 Gaussian 09, Revision A.02,
 Gaussian 09:  EM64L-G09RevA.02 11-Jun-2009

 -------------------------------------------
 # HF/6-31G* Opt=(ModRedundant) geom=nocrowd
 -------------------------------------------

 ------------------
 Phi Psi fixed scan
 ------------------
 Symbolic Z-matrix:
 Charge =  0 Multiplicity = 1

 SCF Done:  E(RHF) =  -492.832655933     A.U. after   15 cycles
 SCF Done:  E(RHF) =  -492.844678762     A.U. after   14 cycles
 SCF Done:  E(RHF) =  -492.848582035     A.U. after   13 cycles
 SCF Done:  E(RHF) =  -492.849518961     A.U. after   13 cycles
 SCF Done:  E(RHF) =  -492.850221547     A.U. after   13 cycles
 SCF Done:  E(RHF) =  -492.850823831     A.U. after   13 cycles
 SCF Done:  E(RHF) =  -492.851260841     A.U. after   13 cycles
 SCF Done:  E(RHF) =  -492.851447211     A.U. after   12 cycles
 SCF Done:  E(RHF) =  -492.851512428     A.U. after   12 cycles
 SCF Done:  E(RHF) =  -492.851538558     A.U. after   10 cycles
 SCF Done:  E(RHF) =  -492.851875257     A.U. after   14 cycles
 SCF Done:  E(RHF) =  -492.851867457     A.U. after   10 cycles
 SCF Done:  E(RHF) =  -492.851967645     A.U. after   11 cycles
 SCF Done:  E(RHF) =  -492.852085152     A.U. after   12 cycles
 SCF Done:  E(RHF) =  -492.852103334     A.U. after   11 cycles
 SCF Done:  E(RHF) =  -492.852106091     A.U. after   11 cycles
 SCF Done:  E(RHF) =  -492.852111574     A.U. after   11 cycles
 SCF Done:  E(RHF) =  -492.852113060     A.U. after   10 cycles
 SCF Done:  E(RHF) =  -492.852113773     A.U. after    9 cycles
 SCF Done:  E(RHF) =  -492.852114135     A.U. after    9 cycles
 Optimization completed.
    -- Stationary point found.

                         Standard orientation:
 ---------------------------------------------------------------------
 Center     Atomic      Atomic             Coordinates (Angstroms)
 Number     Number       Type             X           Y           Z
 ---------------------------------------------------------------------
      1          1           0       -3.828370   -0.964607    0.868300
      2          6           0       -3.142390   -1.040501    0.037396
      3          1           0       -3.656345   -0.804029   -0.887456
      4          1           0       -2.779649   -2.062137   -0.025113
      5          6           0       -1.968290   -0.118449    0.281037
      6          8           0       -1.709482    0.313267    1.369058
      7          7           0       -1.240184    0.179210   -0.834709
      8          1           0       -1.352515   -0.457653   -1.591465
      9          6           0        0.075622    0.779610   -0.762375
     10          1           0        0.344253    0.995820   -1.793193
     11          6           0        0.104238    2.112583   -0.008718
     12          1           0        0.050712    1.980697    1.060568
     13          1           0        1.001774    2.667708   -0.264722
     14          1           0       -0.743540    2.710965   -0.317413
     15          6           0        1.104379   -0.276729   -0.324338
     16          8           0        0.867609   -1.447690   -0.451495
     17          7           0        2.305385    0.178686    0.090493
     18          1           0        2.387801    1.129168    0.363321
     19          6           0        3.333751   -0.740929    0.533105
     20          1           0        3.484362   -1.506150   -0.213969
     21          1           0        4.256146   -0.190879    0.665157
     22          1           0        3.070095   -1.222303    1.468358
 ---------------------------------------------------------------------

 The electronic state is 1-A.
 Alpha  occ. eigenvalues --  -20.52391 -20.52205 -15.58629 -15.57839 -11.34412
 Alpha  occ. eigenvalues --  -11.34401 -11.28340 -11.25716 -11.22552 -11.22453
 Alpha  occ. eigenvalues --   -1.39660  -1.38608  -1.23486  -1.23301  -1.05431
 Alpha  occ. eigenvalues --   -0.98891  -0.95412  -0.88840  -0.79904  -0.76661
 Alpha  occ. eigenvalues --   -0.72044  -0.69809  -0.65261  -0.63840  -0.61996
 Alpha  occ. eigenvalues --   -0.61563  -0.59767  -0.58559  -0.56323  -0.55844
 Alpha  occ. eigenvalues --   -0.55426  -0.54280  -0.53225  -0.50847  -0.50108
 Alpha  occ. eigenvalues --   -0.42507  -0.41361  -0.39378  -0.38771
 Alpha virt. eigenvalues --    0.19420   0.20585   0.21750   0.23690   0.26195
 Alpha virt. eigenvalues --    0.27413   0.29559   0.30864   0.31198   0.32306
 Alpha virt. eigenvalues --    0.33259   0.33506   0.34261   0.34802   0.36851

 Mulliken atomic charges:
              1
     1  H    0.211355
     2  C   -0.595199
     3  H    0.180375
     4  H    0.206991
     5  C    0.750226
     6  O   -0.605276
     7  N   -0.765514
     8  H    0.387307
     9  C   -0.053933
    10  H    0.207033
    11  C   -0.512445
    12  H    0.223739
    13  H    0.147250
    14  H    0.194256
    15  C    0.780345
    16  O   -0.626629
    17  N   -0.801565
    18  H    0.394386
    19  C   -0.274085
    20  H    0.201190
    21  H    0.167195
    22  H    0.182998
 Sum of Mulliken atomic charges =   0.00000

 Dipole moment (field-independent basis, Debye):
    X=              1.4486    Y=              1.7436    Z=             -2.2310  Tot=              3.1806
 Quadrupole moment (field-independent basis, Debye-Ang):
   XX=            -50.0708   YY=            -61.7859   ZZ=            -62.3967
   XY=              6.7619   XZ=              7.3039   YZ=             -1.3344

 Normal termination of Gaussian 09 at Thu Feb  9 20:01:03 2017.
