 Gaussian 09, Revision A.02,
 Gaussian 09:  EM64L-G09RevA.02 11-Jun-2009

 -------------------------------------------
 # HF/6-31G* Opt=(ModRedundant) geom=nocrowd
 -------------------------------------------

 ------------------
 Phi Psi fixed scan
 ------------------
 Symbolic Z-matrix:
 Charge =  0 Multiplicity = 1

 SCF Done:  E(RHF) =  -492.830157494     A.U. after   15 cycles
 SCF Done:  E(RHF) =  -492.844862856     A.U. after   15 cycles
 SCF Done:  E(RHF) =  -492.849644695     A.U. after   14 cycles
 SCF Done:  E(RHF) =  -492.850399816     A.U. after   13 cycles
 SCF Done:  E(RHF) =  -492.850880876     A.U. after   13 cycles
 SCF Done:  E(RHF) =  -492.851297498     A.U. after   13 cycles
 SCF Done:  E(RHF) =  -492.851626352     A.U. after   13 cycles
 SCF Done:  E(RHF) =  -492.851808240     A.U. after   12 cycles
 SCF Done:  E(RHF) =  -492.851847601     A.U. after   11 cycles
 SCF Done:  E(RHF) =  -492.851882635     A.U. after   10 cycles
 SCF Done:  E(RHF) =  -492.852249348     A.U. after   12 cycles
 SCF Done:  E(RHF) =  -492.852316783     A.U. after   12 cycles
 SCF Done:  E(RHF) =  -492.852364542     A.U. after   12 cycles
 SCF Done:  E(RHF) =  -492.852388488     A.U. after   10 cycles
 SCF Done:  E(RHF) =  -492.852423876     A.U. after   11 cycles
 SCF Done:  E(RHF) =  -492.852436310     A.U. after   11 cycles
 SCF Done:  E(RHF) =  -492.852444804     A.U. after   11 cycles
 SCF Done:  E(RHF) =  -492.852450810     A.U. after   10 cycles
 SCF Done:  E(RHF) =  -492.852454549     A.U. after   10 cycles
 SCF Done:  E(RHF) =  -492.852454927     A.U. after    9 cycles
 Optimization completed.
    -- Stationary point found.

                         Standard orientation:
 ---------------------------------------------------------------------
 Center     Atomic      Atomic             Coordinates (Angstroms)
 Number     Number       Type             X           Y           Z
 ---------------------------------------------------------------------
      1          1           0       -3.772553   -0.964460    0.991493
      2          6           0       -3.131312   -1.038060    0.125357
      3          1           0       -3.685919   -0.772473   -0.767360
      4          1           0       -2.796419   -2.066274    0.025560
      5          6           0       -1.926472   -0.145670    0.327357
      6          8           0       -1.595343    0.244984    1.412402
      7          7           0       -1.254551    0.169657   -0.815232
      8          1           0       -1.414253   -0.434925   -1.589373
      9          6           0        0.054952    0.792984   -0.802252
     10          1           0        0.275471    1.003158   -1.844881
     11          6           0        0.087658    2.132823   -0.065660
     12          1           0        0.011058    2.016946    1.004521
     13          1           0        0.998192    2.669828   -0.313205
     14          1           0       -0.747489    2.737326   -0.397502
     15          6           0        1.114850   -0.253001   -0.417407
     16          8           0        0.980798   -1.392776   -0.775812
     17          7           0        2.212216    0.180642    0.233723
     18          1           0        2.178247    1.063531    0.685560
     19          6           0        3.239894   -0.750608    0.652514
     20          1           0        3.536581   -1.364785   -0.184690
     21          1           0        4.096912   -0.188075    0.998738
     22          1           0        2.895455   -1.400367    1.449527
 ---------------------------------------------------------------------

 The electronic state is 1-A.
 Alpha  occ. eigenvalues --  -20.52408 -20.52142 -15.58579 -15.58047 -11.34640
 Alpha  occ. eigenvalues --  -11.34318 -11.28307 -11.25602 -11.22780 -11.22390
 Alpha  occ. eigenvalues --   -1.39604  -1.38672  -1.23580  -1.23265  -1.05489
 Alpha  occ. eigenvalues --   -0.99047  -0.95342  -0.88947  -0.79947  -0.76756
 Alpha  occ. eigenvalues --   -0.72047  -0.69929  -0.65176  -0.64096  -0.61927
 Alpha  occ. eigenvalues --   -0.61579  -0.59744  -0.58618  -0.56428  -0.55656
 Alpha  occ. eigenvalues --   -0.55396  -0.54561  -0.53093  -0.51060  -0.50180
 Alpha  occ. eigenvalues --   -0.42482  -0.41528  -0.39462  -0.38574
 Alpha virt. eigenvalues --    0.19363   0.20386   0.22183   0.23769   0.26151
 Alpha virt. eigenvalues --    0.27311   0.29501   0.30721   0.31269   0.32229
 Alpha virt. eigenvalues --    0.32916   0.33860   0.34152   0.34639   0.37338

 Mulliken atomic charges:
              1
     1  H    0.212091
     2  C   -0.593112
     3  H    0.181580
     4  H    0.205417
     5  C    0.748642
     6  O   -0.608357
     7  N   -0.769575
     8  H    0.391141
     9  C   -0.050597
    10  H    0.208374
    11  C   -0.521704
    12  H    0.221381
    13  H    0.156031
    14  H    0.191837
    15  C    0.783913
    16  O   -0.630284
    17  N   -0.801680
    18  H    0.397703
    19  C   -0.275209
    20  H    0.201749
    21  H    0.167628
    22  H    0.183032
 Sum of Mulliken atomic charges =   0.00000

 Dipole moment (field-independent basis, Debye):
    X=              0.7893    Y=              1.7590    Z=             -1.5492  Tot=              2.4733
 Quadrupole moment (field-independent basis, Debye-Ang):
   XX=            -50.5950   YY=            -61.6447   ZZ=            -62.6971
   XY=              6.4122   XZ=              8.2228   YZ=             -2.2578

 Normal termination of Gaussian 09 at Thu Feb  9 20:03:39 2017.
