 Gaussian 09, Revision A.02,
 Gaussian 09:  EM64L-G09RevA.02 11-Jun-2009

 -------------------------------------------
 # HF/6-31G* Opt=(ModRedundant) geom=nocrowd
 -------------------------------------------

 ------------------
 Phi Psi fixed scan
 ------------------
 Symbolic Z-matrix:
 Charge =  0 Multiplicity = 1

 SCF Done:  E(RHF) =  -492.830004953     A.U. after   15 cycles
 SCF Done:  E(RHF) =  -492.846215540     A.U. after   16 cycles
 SCF Done:  E(RHF) =  -492.850700083     A.U. after   13 cycles
 SCF Done:  E(RHF) =  -492.851366531     A.U. after   13 cycles
 SCF Done:  E(RHF) =  -492.851742693     A.U. after   13 cycles
 SCF Done:  E(RHF) =  -492.851776180     A.U. after   13 cycles
 SCF Done:  E(RHF) =  -492.852052380     A.U. after   11 cycles
 SCF Done:  E(RHF) =  -492.852120968     A.U. after   11 cycles
 SCF Done:  E(RHF) =  -492.852185772     A.U. after   11 cycles
 SCF Done:  E(RHF) =  -492.852253085     A.U. after   11 cycles
 SCF Done:  E(RHF) =  -492.852757437     A.U. after   10 cycles
 SCF Done:  E(RHF) =  -492.852764454     A.U. after   10 cycles
 SCF Done:  E(RHF) =  -492.852771406     A.U. after   10 cycles
 SCF Done:  E(RHF) =  -492.852774429     A.U. after   10 cycles
 SCF Done:  E(RHF) =  -492.852775006     A.U. after    9 cycles
 SCF Done:  E(RHF) =  -492.852775318     A.U. after    8 cycles
 SCF Done:  E(RHF) =  -492.852775649     A.U. after    9 cycles
 SCF Done:  E(RHF) =  -492.852776144     A.U. after    9 cycles
 SCF Done:  E(RHF) =  -492.852776547     A.U. after    9 cycles
 SCF Done:  E(RHF) =  -492.852776588     A.U. after    7 cycles
 Optimization completed.
    -- Stationary point found.

                         Standard orientation:
 ---------------------------------------------------------------------
 Center     Atomic      Atomic             Coordinates (Angstroms)
 Number     Number       Type             X           Y           Z
 ---------------------------------------------------------------------
      1          1           0        3.671987   -1.206644   -0.862369
      2          6           0        3.068018   -1.110969    0.028266
      3          1           0        3.652338   -0.660156    0.821870
      4          1           0        2.765669   -2.103848    0.347483
      5          6           0        1.832055   -0.303381   -0.303364
      6          8           0        1.400795   -0.230386   -1.423192
      7          7           0        1.242203    0.306644    0.754880
      8          1           0        1.513207    0.011170    1.664739
      9          6           0       -0.028131    1.011531    0.666600
     10          1           0       -0.172879    1.446771    1.647735
     11          6           0       -0.019482    2.161290   -0.338679
     12          1           0        0.142455    1.829957   -1.352994
     13          1           0       -0.956784    2.704611   -0.282058
     14          1           0        0.781309    2.845286   -0.081953
     15          6           0       -1.164577   -0.019358    0.575886
     16          8           0       -1.330327   -0.781909    1.490915
     17          7           0       -1.954094    0.005848   -0.515275
     18          1           0       -1.598320    0.458801   -1.325294
     19          6           0       -2.967368   -1.010032   -0.713124
     20          1           0       -3.569658   -1.096158    0.178784
     21          1           0       -3.600062   -0.713045   -1.539124
     22          1           0       -2.532859   -1.980314   -0.929358
 ---------------------------------------------------------------------

 The electronic state is 1-A.
 Alpha  occ. eigenvalues --  -20.52787 -20.51877 -15.58856 -15.58129 -11.35259
 Alpha  occ. eigenvalues --  -11.34030 -11.28231 -11.25225 -11.23379 -11.22241
 Alpha  occ. eigenvalues --   -1.39747  -1.38637  -1.24072  -1.22875  -1.05627
 Alpha  occ. eigenvalues --   -0.99425  -0.95111  -0.89028  -0.80023  -0.77037
 Alpha  occ. eigenvalues --   -0.72021  -0.70086  -0.65252  -0.64147  -0.62155
 Alpha  occ. eigenvalues --   -0.61608  -0.59694  -0.58580  -0.56798  -0.55706
 Alpha  occ. eigenvalues --   -0.55050  -0.54639  -0.52754  -0.51458  -0.50548
 Alpha  occ. eigenvalues --   -0.42924  -0.41933  -0.39388  -0.38039
 Alpha virt. eigenvalues --    0.19114   0.20082   0.22296   0.23896   0.25967
 Alpha virt. eigenvalues --    0.27236   0.29547   0.30124   0.31254   0.31815
 Alpha virt. eigenvalues --    0.32751   0.33921   0.34344   0.35214   0.38436

 Mulliken atomic charges:
              1
     1  H    0.213994
     2  C   -0.588287
     3  H    0.180064
     4  H    0.204552
     5  C    0.751271
     6  O   -0.618436
     7  N   -0.788545
     8  H    0.394984
     9  C   -0.043105
    10  H    0.210388
    11  C   -0.513356
    12  H    0.211767
    13  H    0.171603
    14  H    0.181576
    15  C    0.768818
    16  O   -0.625682
    17  N   -0.785568
    18  H    0.401918
    19  C   -0.278039
    20  H    0.202087
    21  H    0.169077
    22  H    0.178917
 Sum of Mulliken atomic charges =   0.00000

 Dipole moment (field-independent basis, Debye):
    X=              0.9250    Y=              1.3916    Z=              0.2095  Tot=              1.6840
 Quadrupole moment (field-independent basis, Debye-Ang):
   XX=            -53.3145   YY=            -58.9601   ZZ=            -64.8736
   XY=             -2.9837   XZ=             10.9555   YZ=              2.4778

 Normal termination of Gaussian 09 at Thu Feb  9 20:09:17 2017.
