 Gaussian 09, Revision A.02,
 Gaussian 09:  EM64L-G09RevA.02 11-Jun-2009

 -------------------
 #SP MP2/aug-cc-pVDZ
 -------------------

 -------------------------------
 Single Point calculation at MP2
 -------------------------------
 Symbolic Z-matrix:
 Charge =  0 Multiplicity = 1

                         Standard orientation:
 ---------------------------------------------------------------------
 Center     Atomic      Atomic             Coordinates (Angstroms)
 Number     Number       Type             X           Y           Z
 ---------------------------------------------------------------------
      1          1           0       -4.163692   -1.126822   -0.503387
      2          6           0       -3.290492   -1.199420    0.150113
      3          1           0       -2.835190   -2.188218    0.038113
      4          1           0       -3.642492   -1.090620    1.182213
      5          6           0       -2.342295   -0.051317   -0.172687
      6          8           0       -2.751398    1.091682   -0.350487
      7          7           0       -1.025794   -0.406314   -0.272487
      8          1           0       -0.739792   -1.329713    0.040213
      9          6           0        0.082704    0.535689   -0.300487
     10          1           0        0.148303    0.998889   -1.294787
     11          6           0       -0.026499    1.650588    0.762813
     12          1           0       -0.027398    1.213888    1.767413
     13          1           0        0.820399    2.341890    0.689213
     14          1           0       -0.953800    2.204386    0.614813
     15          6           0        1.354206   -0.295708   -0.034087
     16          8           0        1.295609   -1.431908    0.430613
     17          7           0        2.522304    0.331895   -0.331187
     18          1           0        2.481202    1.261795   -0.723587
     19          6           0        3.826006   -0.265602   -0.094687
     20          1           0        3.659508   -1.261303    0.317413
     21          1           0        4.392606   -0.353501   -1.028687
     22          1           0        4.409304    0.326699    0.619913
 ---------------------------------------------------------------------

 SCF Done:  E(RHF) =  -492.924610875     A.U. after   14 cycles
 E2 =    -0.1601439418D+01 EUMP2 =    -0.49452605029316D+03

 The electronic state is 1-A.
 Alpha  occ. eigenvalues --  -20.54633 -20.52414 -15.60867 -15.58714 -11.37389
 Alpha  occ. eigenvalues --  -11.35773 -11.29815 -11.27838 -11.24057 -11.23402
 Alpha  occ. eigenvalues --   -1.40132  -1.37672  -1.24722  -1.23333  -1.05593
 Alpha  occ. eigenvalues --   -0.98889  -0.96242  -0.88807  -0.80729  -0.77382
 Alpha  occ. eigenvalues --   -0.73109  -0.67794  -0.66224  -0.64558  -0.63319
 Alpha  occ. eigenvalues --   -0.61834  -0.60137  -0.58478  -0.56500  -0.56152
 Alpha  occ. eigenvalues --   -0.55749  -0.54810  -0.52677  -0.52206  -0.49524
 Alpha  occ. eigenvalues --   -0.43828  -0.41751  -0.40945  -0.38812
 Alpha virt. eigenvalues --    0.02713   0.04081   0.04210   0.04417   0.05771
 Alpha virt. eigenvalues --    0.05990   0.06585   0.06792   0.07557   0.07981
 Alpha virt. eigenvalues --    0.09149   0.09450   0.11094   0.12284   0.12923

 Mulliken atomic charges:
              1
     1  H    0.020224
     2  C    0.335259
     3  H   -0.139350
     4  H    0.054922
     5  C    0.536594
     6  O   -0.868781
     7  N   -0.275803
     8  H   -0.021846
     9  C   -0.244912
    10  H   -0.183960
    11  C    0.697966
    12  H   -0.016288
    13  H   -0.102839
    14  H   -0.001457
    15  C    1.345859
    16  O   -0.894993
    17  N   -0.511437
    18  H   -0.118673
    19  C    0.712512
    20  H   -0.137050
    21  H   -0.088183
    22  H   -0.097765
 Sum of Mulliken atomic charges =   0.00000

 Dipole moment (field-independent basis, Debye):
    X=              3.4079    Y=              0.2486    Z=             -0.3223  Tot=              3.4322
 Quadrupole moment (field-independent basis, Debye-Ang):
   XX=            -57.3181   YY=            -64.4370   ZZ=            -61.3708
   XY=             14.5628   XZ=             -5.1452   YZ=              1.0187

 Normal termination of Gaussian 09 at Sun Feb 12 22:37:10 2017.
