 Gaussian 09, Revision A.02,
 Gaussian 09:  EM64L-G09RevA.02 11-Jun-2009

 -------------------
 #SP MP2/aug-cc-pVDZ
 -------------------

 -------------------------------
 Single Point calculation at MP2
 -------------------------------
 Symbolic Z-matrix:
 Charge =  0 Multiplicity = 1

                         Standard orientation:
 ---------------------------------------------------------------------
 Center     Atomic      Atomic             Coordinates (Angstroms)
 Number     Number       Type             X           Y           Z
 ---------------------------------------------------------------------
      1          1           0       -3.854089   -1.667900    0.165401
      2          6           0       -2.870189   -1.502299    0.608401
      3          1           0       -2.291388   -2.431199    0.570801
      4          1           0       -3.015490   -1.230399    1.661101
      5          6           0       -2.192191   -0.350698   -0.123499
      6          8           0       -2.824992    0.552401   -0.647199
      7          7           0       -0.810791   -0.437697   -0.177299
      8          1           0       -0.424590   -1.080597    0.506201
      9          6           0        0.045408    0.749504   -0.396899
     10          1           0        0.018808    0.981304   -1.470499
     11          6           0       -0.387493    1.995203    0.385501
     12          1           0       -0.389793    1.790903    1.462001
     13          1           0        0.326606    2.800404    0.201801
     14          1           0       -1.385793    2.304702    0.076801
     15          6           0        1.504809    0.396905   -0.032299
     16          8           0        2.282508    1.229806    0.408501
     17          7           0        1.856510   -0.916894   -0.221099
     18          1           0        1.250911   -1.477895   -0.806599
     19          6           0        3.235510   -1.352493   -0.052999
     20          1           0        3.671910   -0.795792    0.777301
     21          1           0        3.255612   -2.422093    0.173301
     22          1           0        3.842010   -1.163692   -0.948499
 ---------------------------------------------------------------------

 SCF Done:  E(RHF) =  -492.916415305     A.U. after   14 cycles
 E2 =    -0.1602740053D+01 EUMP2 =    -0.49451915535827D+03

 The electronic state is 1-A.
 Alpha  occ. eigenvalues --  -20.54217 -20.54212 -15.60485 -15.60461 -11.37125
 Alpha  occ. eigenvalues --  -11.36944 -11.29780 -11.27612 -11.25499 -11.21913
 Alpha  occ. eigenvalues --   -1.39800  -1.39294  -1.25567  -1.22871  -1.05456
 Alpha  occ. eigenvalues --   -0.99441  -0.96618  -0.87698  -0.79998  -0.78178
 Alpha  occ. eigenvalues --   -0.73553  -0.67633  -0.66031  -0.65399  -0.62900
 Alpha  occ. eigenvalues --   -0.62616  -0.60390  -0.59375  -0.57541  -0.55999
 Alpha  occ. eigenvalues --   -0.55548  -0.53943  -0.52505  -0.51584  -0.49811
 Alpha  occ. eigenvalues --   -0.44111  -0.42681  -0.40848  -0.40368
 Alpha virt. eigenvalues --    0.02299   0.03757   0.04215   0.04611   0.05502
 Alpha virt. eigenvalues --    0.05963   0.06559   0.06935   0.07025   0.08510
 Alpha virt. eigenvalues --    0.08605   0.08889   0.10761   0.11863   0.13324

 Mulliken atomic charges:
              1
     1  H   -0.021576
     2  C    0.324040
     3  H   -0.070889
     4  H    0.054657
     5  C    0.483589
     6  O   -0.838472
     7  N   -0.312719
     8  H    0.052482
     9  C   -0.216554
    10  H   -0.121352
    11  C    0.650839
    12  H   -0.041275
    13  H   -0.048581
    14  H    0.021119
    15  C    1.029952
    16  O   -0.803400
    17  N   -0.515038
    18  H   -0.088349
    19  C    0.787913
    20  H   -0.103456
    21  H   -0.163099
    22  H   -0.059833
 Sum of Mulliken atomic charges =   0.00000

 Dipole moment (field-independent basis, Debye):
    X=              0.6983    Y=             -5.0077    Z=              0.4881  Tot=              5.0797
 Quadrupole moment (field-independent basis, Debye-Ang):
   XX=            -71.0033   YY=            -59.6673   ZZ=            -60.7184
   XY=             -1.6353   XZ=             -8.3221   YZ=             -0.9800

 Normal termination of Gaussian 09 at Mon Feb 13 00:09:18 2017.
