 Gaussian 09, Revision A.02,
 Gaussian 09:  EM64L-G09RevA.02 11-Jun-2009

 -------------------
 #SP MP2/aug-cc-pVDZ
 -------------------

 -------------------------------
 Single Point calculation at MP2
 -------------------------------
 Symbolic Z-matrix:
 Charge =  0 Multiplicity = 1

                         Standard orientation:
 ---------------------------------------------------------------------
 Center     Atomic      Atomic             Coordinates (Angstroms)
 Number     Number       Type             X           Y           Z
 ---------------------------------------------------------------------
      1          1           0       -3.806987   -1.757693    0.199608
      2          6           0       -2.883587   -1.476592    0.710108
      3          1           0       -2.264286   -2.367291    0.859108
      4          1           0       -3.153588   -1.075492    1.694408
      5          6           0       -2.189189   -0.389691   -0.101692
      6          8           0       -2.813890    0.442508   -0.742692
      7          7           0       -0.811189   -0.444788   -0.077792
      8          1           0       -0.420888   -1.059088    0.626708
      9          6           0        0.051509    0.702513   -0.440592
     10          1           0        0.077009    0.768313   -1.536692
     11          6           0       -0.412693    2.043012    0.132408
     12          1           0       -0.418293    2.009412    1.225608
     13          1           0        0.285706    2.828613   -0.169692
     14          1           0       -1.411093    2.280911   -0.233792
     15          6           0        1.473010    0.374415    0.072808
     16          8           0        2.058409    1.065216    0.894008
     17          7           0        2.004511   -0.764484   -0.468792
     18          1           0        1.469912   -1.247185   -1.178192
     19          6           0        3.340612   -1.240182   -0.153392
     20          1           0        3.727811   -0.615081    0.652208
     21          1           0        3.318014   -2.284682    0.177408
     22          1           0        4.009312   -1.158481   -1.018992
 ---------------------------------------------------------------------

 SCF Done:  E(RHF) =  -492.916593069     A.U. after   14 cycles
 E2 =    -0.1602419358D+01 EUMP2 =    -0.49451901242741D+03

 The electronic state is 1-A.
 Alpha  occ. eigenvalues --  -20.54210 -20.53807 -15.60499 -15.60415 -11.36928
 Alpha  occ. eigenvalues --  -11.36925 -11.29752 -11.27612 -11.25287 -11.21673
 Alpha  occ. eigenvalues --   -1.39677  -1.38995  -1.25242  -1.23100  -1.05436
 Alpha  occ. eigenvalues --   -0.99307  -0.96714  -0.87605  -0.79737  -0.78527
 Alpha  occ. eigenvalues --   -0.73312  -0.67318  -0.66867  -0.65319  -0.62609
 Alpha  occ. eigenvalues --   -0.62381  -0.60734  -0.59198  -0.57237  -0.55642
 Alpha  occ. eigenvalues --   -0.55405  -0.53695  -0.52667  -0.51548  -0.49826
 Alpha  occ. eigenvalues --   -0.44055  -0.42352  -0.41060  -0.39552
 Alpha virt. eigenvalues --    0.02366   0.03638   0.04225   0.04651   0.05526
 Alpha virt. eigenvalues --    0.05908   0.06507   0.06967   0.07203   0.08326
 Alpha virt. eigenvalues --    0.08573   0.08993   0.10908   0.11827   0.13032

 Mulliken atomic charges:
              1
     1  H   -0.006088
     2  C    0.324541
     3  H   -0.101231
     4  H    0.055891
     5  C    0.502039
     6  O   -0.834080
     7  N   -0.364264
     8  H    0.006710
     9  C   -0.065459
    10  H   -0.192486
    11  C    0.639899
    12  H   -0.008045
    13  H   -0.068229
    14  H    0.016680
    15  C    1.074514
    16  O   -0.797486
    17  N   -0.482924
    18  H   -0.097115
    19  C    0.746688
    20  H   -0.144508
    21  H   -0.109961
    22  H   -0.095087
 Sum of Mulliken atomic charges =   0.00000

 Dipole moment (field-independent basis, Debye):
    X=              1.3040    Y=             -4.5409    Z=             -0.2252  Tot=              4.7297
 Quadrupole moment (field-independent basis, Debye-Ang):
   XX=            -68.5650   YY=            -59.2742   ZZ=            -61.8879
   XY=             -0.8387   XZ=            -11.2713   YZ=             -2.0685

 Normal termination of Gaussian 09 at Mon Feb 13 00:42:56 2017.
