 Gaussian 09, Revision A.02,
 Gaussian 09:  EM64L-G09RevA.02 11-Jun-2009

 -------------------
 #SP MP2/aug-cc-pVDZ
 -------------------

 -------------------------------
 Single Point calculation at MP2
 -------------------------------
 Symbolic Z-matrix:
 Charge =  0 Multiplicity = 1

                         Standard orientation:
 ---------------------------------------------------------------------
 Center     Atomic      Atomic             Coordinates (Angstroms)
 Number     Number       Type             X           Y           Z
 ---------------------------------------------------------------------
      1          1           0       -4.134801   -1.184692   -0.431303
      2          6           0       -3.279801   -1.199494    0.250097
      3          1           0       -2.804204   -2.184195    0.210797
      4          1           0       -3.665601   -1.035093    1.262197
      5          6           0       -2.346399   -0.050596   -0.113103
      6          8           0       -2.771196    1.087205   -0.291903
      7          7           0       -1.033900   -0.401399   -0.240703
      8          1           0       -0.736702   -1.342200   -0.000703
      9          6           0        0.082502    0.520699   -0.374103
     10          1           0        0.130403    0.902198   -1.405003
     11          6           0       -0.001195    1.719599    0.593897
     12          1           0        0.050004    1.375699    1.632597
     13          1           0        0.819507    2.425497    0.424097
     14          1           0       -0.946294    2.240301    0.439997
     15          6           0        1.353401   -0.317904   -0.099903
     16          8           0        1.287698   -1.513504    0.178697
     17          7           0        2.526602    0.362593   -0.175003
     18          1           0        2.502104    1.340093   -0.426003
     19          6           0        3.819801   -0.264110    0.043397
     20          1           0        3.638598   -1.301909    0.324097
     21          1           0        4.430401   -0.240611   -0.866903
     22          1           0        4.365802    0.237789    0.849997
 ---------------------------------------------------------------------

 SCF Done:  E(RHF) =  -492.923357748     A.U. after   14 cycles
 E2 =    -0.1601565461D+01 EUMP2 =    -0.49452492320908D+03

 The electronic state is 1-A.
 Alpha  occ. eigenvalues --  -20.54686 -20.52218 -15.60838 -15.58670 -11.37476
 Alpha  occ. eigenvalues --  -11.35731 -11.29984 -11.27832 -11.23983 -11.23525
 Alpha  occ. eigenvalues --   -1.40203  -1.37521  -1.24734  -1.23328  -1.05635
 Alpha  occ. eigenvalues --   -0.98832  -0.96138  -0.89111  -0.80868  -0.77252
 Alpha  occ. eigenvalues --   -0.73146  -0.67828  -0.66246  -0.65097  -0.63125
 Alpha  occ. eigenvalues --   -0.61777  -0.59877  -0.58524  -0.56562  -0.56135
 Alpha  occ. eigenvalues --   -0.55617  -0.54818  -0.52924  -0.52222  -0.49532
 Alpha  occ. eigenvalues --   -0.43864  -0.41554  -0.40995  -0.38662
 Alpha virt. eigenvalues --    0.02701   0.04069   0.04186   0.04420   0.05815
 Alpha virt. eigenvalues --    0.05990   0.06559   0.06694   0.07547   0.07956
 Alpha virt. eigenvalues --    0.09467   0.09643   0.11064   0.12299   0.13098

 Mulliken atomic charges:
              1
     1  H    0.030910
     2  C    0.366085
     3  H   -0.160806
     4  H    0.051551
     5  C    0.529028
     6  O   -0.873752
     7  N   -0.275917
     8  H   -0.032794
     9  C   -0.089054
    10  H   -0.113471
    11  C    0.683767
    12  H   -0.016655
    13  H   -0.124393
    14  H   -0.015605
    15  C    1.198820
    16  O   -0.878891
    17  N   -0.523307
    18  H   -0.120690
    19  C    0.702541
    20  H   -0.142521
    21  H   -0.088893
    22  H   -0.105954
 Sum of Mulliken atomic charges =   0.00000

 Dipole moment (field-independent basis, Debye):
    X=              3.5242    Y=              0.3804    Z=              0.0826  Tot=              3.5456
 Quadrupole moment (field-independent basis, Debye-Ang):
   XX=            -57.8147   YY=            -64.7220   ZZ=            -61.0139
   XY=             14.8214   XZ=             -3.7413   YZ=              0.3492

 Normal termination of Gaussian 09 at Sun Feb 12 23:32:14 2017.
