 Gaussian 09, Revision A.02,
 Gaussian 09:  EM64L-G09RevA.02 11-Jun-2009

 -------------------
 #SP MP2/aug-cc-pVDZ
 -------------------

 -------------------------------
 Single Point calculation at MP2
 -------------------------------
 Symbolic Z-matrix:
 Charge =  0 Multiplicity = 1

                         Standard orientation:
 ---------------------------------------------------------------------
 Center     Atomic      Atomic             Coordinates (Angstroms)
 Number     Number       Type             X           Y           Z
 ---------------------------------------------------------------------
      1          1           0       -3.576697   -1.041279    1.510988
      2          6           0       -3.163498   -1.265981    0.522588
      3          1           0       -4.006998   -1.367577   -0.167012
      4          1           0       -2.624301   -2.216883    0.572288
      5          6           0       -2.306093   -0.086584    0.074488
      6          8           0       -2.787988    1.035318   -0.047312
      7          7           0       -0.999194   -0.400989   -0.164712
      8          1           0       -0.719598   -1.374591   -0.167312
      9          6           0        0.069910    0.497506   -0.601712
     10          1           0        0.017610    0.628206   -1.694612
     11          6           0        0.008215    1.882406    0.053888
     12          1           0        0.130515    1.812606    1.140788
     13          1           0        0.789318    2.532303   -0.359512
     14          1           0       -0.961283    2.337810   -0.142812
     15          6           0        1.369606   -0.301099   -0.330712
     16          8           0        1.416202   -1.494799   -0.624312
     17          7           0        2.396509    0.358096    0.261788
     18          1           0        2.279913    1.332697    0.492688
     19          6           0        3.670507   -0.278509    0.553388
     20          1           0        3.581002   -1.331308    0.283988
     21          1           0        4.482708    0.174388   -0.027312
     22          1           0        3.909007   -0.196710    1.619688
 ---------------------------------------------------------------------

 SCF Done:  E(RHF) =  -492.919159168     A.U. after   14 cycles
 E2 =    -0.1602230289D+01 EUMP2 =    -0.49452138945626D+03

 The electronic state is 1-A.
 Alpha  occ. eigenvalues --  -20.54013 -20.52427 -15.60911 -15.59321 -11.37207
 Alpha  occ. eigenvalues --  -11.36100 -11.30122 -11.27720 -11.24209 -11.23585
 Alpha  occ. eigenvalues --   -1.39714  -1.37736  -1.24637  -1.23576  -1.05851
 Alpha  occ. eigenvalues --   -0.98943  -0.96072  -0.89688  -0.80696  -0.77238
 Alpha  occ. eigenvalues --   -0.73081  -0.68189  -0.66509  -0.65624  -0.62698
 Alpha  occ. eigenvalues --   -0.61703  -0.59241  -0.58761  -0.56556  -0.56084
 Alpha  occ. eigenvalues --   -0.55595  -0.54584  -0.53407  -0.52642  -0.49920
 Alpha  occ. eigenvalues --   -0.43805  -0.41494  -0.40405  -0.39019
 Alpha virt. eigenvalues --    0.02783   0.03910   0.04261   0.04560   0.05717
 Alpha virt. eigenvalues --    0.06209   0.06324   0.06613   0.07294   0.08002
 Alpha virt. eigenvalues --    0.09555   0.09739   0.11028   0.11706   0.13239

 Mulliken atomic charges:
              1
     1  H    0.039230
     2  C    0.397622
     3  H    0.041835
     4  H   -0.184581
     5  C    0.544006
     6  O   -0.867677
     7  N   -0.364333
     8  H   -0.053877
     9  C   -0.009350
    10  H   -0.018030
    11  C    0.799262
    12  H    0.032923
    13  H   -0.024793
    14  H   -0.136566
    15  C    1.009985
    16  O   -0.921049
    17  N   -0.566636
    18  H   -0.119241
    19  C    0.745017
    20  H   -0.150406
    21  H   -0.091757
    22  H   -0.101582
 Sum of Mulliken atomic charges =   0.00000

 Dipole moment (field-independent basis, Debye):
    X=              3.0276    Y=              0.4413    Z=              1.3895  Tot=              3.3604
 Quadrupole moment (field-independent basis, Debye-Ang):
   XX=            -60.2587   YY=            -64.1464   ZZ=            -60.7778
   XY=             14.8877   XZ=              1.9368   YZ=             -2.2313

 Normal termination of Gaussian 09 at Sun Feb 12 23:16:20 2017.
