 Gaussian 09, Revision A.02,
 Gaussian 09:  EM64L-G09RevA.02 11-Jun-2009

 -------------------
 #SP MP2/aug-cc-pVDZ
 -------------------

 -------------------------------
 Single Point calculation at MP2
 -------------------------------
 Symbolic Z-matrix:
 Charge =  0 Multiplicity = 1

                         Standard orientation:
 ---------------------------------------------------------------------
 Center     Atomic      Atomic             Coordinates (Angstroms)
 Number     Number       Type             X           Y           Z
 ---------------------------------------------------------------------
      1          1           0       -3.565500   -1.074895    1.532101
      2          6           0       -3.110100   -1.309695    0.565401
      3          1           0       -3.924900   -1.457394   -0.150599
      4          1           0       -2.542001   -2.240496    0.656701
      5          6           0       -2.277299   -0.112296    0.118301
      6          8           0       -2.772698    1.005604    0.029901
      7          7           0       -0.970599   -0.408098   -0.156999
      8          1           0       -0.703700   -1.382798   -0.220099
      9          6           0        0.061802    0.503801   -0.662199
     10          1           0       -0.025798    0.589501   -1.755799
     11          6           0       -0.013097    1.908401   -0.054999
     12          1           0        0.053503    1.874501    1.038901
     13          1           0        0.801104    2.527500   -0.450499
     14          1           0       -0.964996    2.373902   -0.304599
     15          6           0        1.385101   -0.259300   -0.410399
     16          8           0        1.523200   -1.384500   -0.886599
     17          7           0        2.305702    0.326999    0.396501
     18          1           0        2.119103    1.250599    0.755701
     19          6           0        3.573901   -0.303803    0.722601
     20          1           0        3.574200   -1.294303    0.266601
     21          1           0        4.417902    0.274696    0.328701
     22          1           0        3.689501   -0.404603    1.807701
 ---------------------------------------------------------------------

 SCF Done:  E(RHF) =  -492.918022161     A.U. after   14 cycles
 E2 =    -0.1602173167D+01 EUMP2 =    -0.49452019532742D+03

 The electronic state is 1-A.
 Alpha  occ. eigenvalues --  -20.53848 -20.52684 -15.60805 -15.59669 -11.37022
 Alpha  occ. eigenvalues --  -11.36320 -11.30035 -11.27637 -11.24411 -11.23600
 Alpha  occ. eigenvalues --   -1.39525  -1.37988  -1.24551  -1.23684  -1.05886
 Alpha  occ. eigenvalues --   -0.99061  -0.96038  -0.89696  -0.80443  -0.77435
 Alpha  occ. eigenvalues --   -0.72976  -0.68436  -0.66603  -0.65455  -0.62620
 Alpha  occ. eigenvalues --   -0.61756  -0.59156  -0.58867  -0.56551  -0.55978
 Alpha  occ. eigenvalues --   -0.55787  -0.54436  -0.53614  -0.52547  -0.50142
 Alpha  occ. eigenvalues --   -0.43736  -0.41740  -0.40216  -0.39194
 Alpha virt. eigenvalues --    0.02826   0.03824   0.04287   0.04631   0.05647
 Alpha virt. eigenvalues --    0.06142   0.06333   0.06767   0.07122   0.07998
 Alpha virt. eigenvalues --    0.09486   0.09617   0.10943   0.11663   0.13118

 Mulliken atomic charges:
              1
     1  H    0.033176
     2  C    0.404092
     3  H    0.046939
     4  H   -0.176932
     5  C    0.546590
     6  O   -0.861215
     7  N   -0.436682
     8  H   -0.060211
     9  C    0.135462
    10  H   -0.047757
    11  C    0.782700
    12  H    0.068308
    13  H   -0.053142
    14  H   -0.121558
    15  C    0.978819
    16  O   -0.928185
    17  N   -0.593366
    18  H   -0.114706
    19  C    0.738173
    20  H   -0.148047
    21  H   -0.090247
    22  H   -0.102209
 Sum of Mulliken atomic charges =   0.00000

 Dipole moment (field-independent basis, Debye):
    X=              2.5725    Y=              0.2544    Z=              1.8307  Tot=              3.1677
 Quadrupole moment (field-independent basis, Debye-Ang):
   XX=            -61.5557   YY=            -63.2696   ZZ=            -61.1646
   XY=             14.5695   XZ=              3.8570   YZ=             -3.0091

 Normal termination of Gaussian 09 at Sun Feb 12 23:38:34 2017.
