 Gaussian 09, Revision A.02,
 Gaussian 09:  EM64L-G09RevA.02 11-Jun-2009

 -------------------
 #SP MP2/aug-cc-pVDZ
 -------------------

 -------------------------------
 Single Point calculation at MP2
 -------------------------------
 Symbolic Z-matrix:
 Charge =  0 Multiplicity = 1

                         Standard orientation:
 ---------------------------------------------------------------------
 Center     Atomic      Atomic             Coordinates (Angstroms)
 Number     Number       Type             X           Y           Z
 ---------------------------------------------------------------------
      1          1           0       -3.615490   -1.023032    1.442206
      2          6           0       -3.213088   -1.235628    0.446406
      3          1           0       -4.062187   -1.301736   -0.240094
      4          1           0       -2.696379   -2.199924    0.473006
      5          6           0       -2.329398   -0.068720    0.018106
      6          8           0       -2.795608    1.057475   -0.130094
      7          7           0       -1.020795   -0.396609   -0.180594
      8          1           0       -0.728687   -1.365006   -0.111694
      9          6           0        0.077097    0.500201   -0.527094
     10          1           0        0.064695    0.697101   -1.611794
     11          6           0        0.018185    1.847900    0.207906
     12          1           0        0.169986    1.717701    1.285006
     13          1           0        0.778379    2.535807   -0.182494
     14          1           0       -0.960419    2.300492    0.050906
     15          6           0        1.359704   -0.323588   -0.245394
     16          8           0        1.344315   -1.548488   -0.358994
     17          7           0        2.464298    0.370422    0.127006
     18          1           0        2.398289    1.371721    0.225906
     19          6           0        3.746204   -0.269167    0.374406
     20          1           0        3.602713   -1.345068    0.272106
     21          1           0        4.500901    0.063739   -0.347894
     22          1           0        4.101802   -0.046364    1.386606
 ---------------------------------------------------------------------

 SCF Done:  E(RHF) =  -492.920363412     A.U. after   14 cycles
 E2 =    -0.1602145156D+01 EUMP2 =    -0.49452250856898D+03

 The electronic state is 1-A.
 Alpha  occ. eigenvalues --  -20.54277 -20.52243 -15.60907 -15.59016 -11.37362
 Alpha  occ. eigenvalues --  -11.35920 -11.30166 -11.27771 -11.24062 -11.23606
 Alpha  occ. eigenvalues --   -1.39933  -1.37557  -1.24704  -1.23457  -1.05798
 Alpha  occ. eigenvalues --   -0.98861  -0.96085  -0.89606  -0.80866  -0.77121
 Alpha  occ. eigenvalues --   -0.73159  -0.67966  -0.66443  -0.65670  -0.62771
 Alpha  occ. eigenvalues --   -0.61717  -0.59434  -0.58657  -0.56573  -0.56202
 Alpha  occ. eigenvalues --   -0.55437  -0.54706  -0.53254  -0.52566  -0.49749
 Alpha  occ. eigenvalues --   -0.43865  -0.41366  -0.40634  -0.38845
 Alpha virt. eigenvalues --    0.02741   0.03982   0.04239   0.04495   0.05794
 Alpha virt. eigenvalues --    0.06145   0.06390   0.06524   0.07447   0.07963
 Alpha virt. eigenvalues --    0.09547   0.10115   0.11075   0.11752   0.13409

 Mulliken atomic charges:
              1
     1  H    0.043472
     2  C    0.388822
     3  H    0.038252
     4  H   -0.182098
     5  C    0.539730
     6  O   -0.871948
     7  N   -0.300840
     8  H   -0.048187
     9  C   -0.060536
    10  H   -0.018271
    11  C    0.760340
    12  H   -0.018569
    13  H   -0.018279
    14  H   -0.119216
    15  C    1.039642
    16  O   -0.911198
    17  N   -0.532240
    18  H   -0.117267
    19  C    0.740134
    20  H   -0.154705
    21  H   -0.096096
    22  H   -0.100942
 Sum of Mulliken atomic charges =   0.00000

 Dipole moment (field-independent basis, Debye):
    X=              3.3413    Y=              0.5013    Z=              0.9636  Tot=              3.5134
 Quadrupole moment (field-independent basis, Debye-Ang):
   XX=            -59.2962   YY=            -64.6099   ZZ=            -60.6839
   XY=             14.9940   XZ=              0.0321   YZ=             -1.2911

 Normal termination of Gaussian 09 at Sun Feb 12 23:12:49 2017.
