 Gaussian 09, Revision A.02,
 Gaussian 09:  EM64L-G09RevA.02 11-Jun-2009

 -------------------
 #SP MP2/aug-cc-pVDZ
 -------------------

 -------------------------------
 Single Point calculation at MP2
 -------------------------------
 Symbolic Z-matrix:
 Charge =  0 Multiplicity = 1

                         Standard orientation:
 ---------------------------------------------------------------------
 Center     Atomic      Atomic             Coordinates (Angstroms)
 Number     Number       Type             X           Y           Z
 ---------------------------------------------------------------------
      1          1           0       -3.321393   -1.659188   -0.819113
      2          6           0       -3.266989   -0.649488   -0.400213
      3          1           0       -3.925489   -0.624386    0.473087
      4          1           0       -3.634687    0.064213   -1.143713
      5          6           0       -1.840388   -0.392193    0.064387
      6          8           0       -1.330891   -1.105094    0.932787
      7          7           0       -1.218385    0.661505   -0.527113
      8          1           0       -1.750884    1.127807   -1.247813
      9          6           0        0.140817    1.216101   -0.341113
     10          1           0        0.327019    1.809300   -1.240213
     11          6           0        0.164820    2.158001    0.879587
     12          1           0       -0.052982    1.595201    1.793287
     13          1           0        1.153221    2.614798    0.969687
     14          1           0       -0.587378    2.946603    0.771487
     15          6           0        1.387014    0.293997   -0.268013
     16          8           0        2.475216    0.841393   -0.433913
     17          7           0        1.237109   -1.034403   -0.069813
     18          1           0        0.355508   -1.343700    0.339487
     19          6           0        2.414007   -1.878707    0.066587
     20          1           0        3.125308   -1.642609   -0.727813
     21          1           0        2.921807   -1.729608    1.028687
     22          1           0        2.108603   -2.924806   -0.016913
 ---------------------------------------------------------------------

 SCF Done:  E(RHF) =  -492.918917483     A.U. after   14 cycles
 E2 =    -0.1604188080D+01 EUMP2 =    -0.49452310556286D+03

 The electronic state is 1-A.
 Alpha  occ. eigenvalues --  -20.54700 -20.52030 -15.61808 -15.57446 -11.38427
 Alpha  occ. eigenvalues --  -11.35291 -11.30286 -11.26122 -11.25541 -11.23399
 Alpha  occ. eigenvalues --   -1.40175  -1.37451  -1.25494  -1.21726  -1.06140
 Alpha  occ. eigenvalues --   -1.00177  -0.94705  -0.88383  -0.81635  -0.76727
 Alpha  occ. eigenvalues --   -0.72263  -0.70841  -0.64684  -0.63801  -0.62333
 Alpha  occ. eigenvalues --   -0.61178  -0.60475  -0.59174  -0.58123  -0.56316
 Alpha  occ. eigenvalues --   -0.54367  -0.54151  -0.52085  -0.51884  -0.49567
 Alpha  occ. eigenvalues --   -0.44171  -0.43129  -0.40044  -0.37942
 Alpha virt. eigenvalues --    0.02330   0.03942   0.04309   0.04522   0.05804
 Alpha virt. eigenvalues --    0.06252   0.06363   0.06711   0.07647   0.07985
 Alpha virt. eigenvalues --    0.08999   0.09750   0.10922   0.11975   0.12301

 Mulliken atomic charges:
              1
     1  H    0.046264
     2  C    0.421748
     3  H    0.049137
     4  H   -0.153841
     5  C    0.605917
     6  O   -0.914882
     7  N   -0.229487
     8  H   -0.095264
     9  C   -0.279483
    10  H   -0.052247
    11  C    0.716531
    12  H   -0.053765
    13  H   -0.028656
    14  H   -0.072562
    15  C    0.977472
    16  O   -0.900885
    17  N   -0.400912
    18  H   -0.024816
    19  C    0.748330
    20  H   -0.117590
    21  H   -0.048503
    22  H   -0.192506
 Sum of Mulliken atomic charges =   0.00000

 Dipole moment (field-independent basis, Debye):
    X=             -4.6873    Y=              0.4369    Z=             -1.7518  Tot=              5.0230
 Quadrupole moment (field-independent basis, Debye-Ang):
   XX=            -62.5577   YY=            -59.1411   ZZ=            -61.8522
   XY=             -8.4581   XZ=              7.3536   YZ=              1.1531

 Normal termination of Gaussian 09 at Tue Feb 14 00:52:47 2017.
