 Gaussian 09, Revision A.02,
 Gaussian 09:  EM64L-G09RevA.02 11-Jun-2009

 -------------------
 #SP MP2/aug-cc-pVDZ
 -------------------

 -------------------------------
 Single Point calculation at MP2
 -------------------------------
 Symbolic Z-matrix:
 Charge =  0 Multiplicity = 1

                         Standard orientation:
 ---------------------------------------------------------------------
 Center     Atomic      Atomic             Coordinates (Angstroms)
 Number     Number       Type             X           Y           Z
 ---------------------------------------------------------------------
      1          1           0       -3.933511   -0.716767    0.373008
      2          6           0       -3.255210   -0.638371   -0.481392
      3          1           0       -3.629106    0.130031   -1.164792
      4          1           0       -3.265816   -1.605171   -0.994892
      5          6           0       -1.849009   -0.381079    0.041708
      6          8           0       -1.359413   -1.127082    0.893908
      7          7           0       -1.231002    0.715717   -0.471792
      8          1           0       -1.744099    1.192020   -1.200092
      9          6           0        0.141201    1.238709   -0.278092
     10          1           0        0.309605    1.908908   -1.123392
     11          6           0        0.215806    2.060009    1.025208
     12          1           0        0.018402    1.417110    1.888908
     13          1           0        1.212608    2.497603    1.128108
     14          1           0       -0.527190    2.864413    1.015208
     15          6           0        1.374195    0.297602   -0.326492
     16          8           0        2.434998    0.802896   -0.690592
     17          7           0        1.250688   -0.990297    0.054508
     18          1           0        0.376986   -1.278992    0.495108
     19          6           0        2.419083   -1.852904    0.107308
     20          1           0        3.007584   -1.733907   -0.805692
     21          1           0        3.068584   -1.613008    0.959208
     22          1           0        2.087077   -2.890502    0.194308
 ---------------------------------------------------------------------

 SCF Done:  E(RHF) =  -492.919486631     A.U. after   14 cycles
 E2 =    -0.1604308838D+01 EUMP2 =    -0.49452379546854D+03

 The electronic state is 1-A.
 Alpha  occ. eigenvalues --  -20.54778 -20.51893 -15.61833 -15.57400 -11.38472
 Alpha  occ. eigenvalues --  -11.35140 -11.30222 -11.26117 -11.25601 -11.23574
 Alpha  occ. eigenvalues --   -1.40197  -1.37288  -1.25488  -1.21710  -1.06196
 Alpha  occ. eigenvalues --   -1.00231  -0.94706  -0.88508  -0.81596  -0.76829
 Alpha  occ. eigenvalues --   -0.72340  -0.70877  -0.64716  -0.63619  -0.62239
 Alpha  occ. eigenvalues --   -0.61259  -0.60547  -0.59012  -0.58116  -0.56525
 Alpha  occ. eigenvalues --   -0.54458  -0.54200  -0.52110  -0.51985  -0.49605
 Alpha  occ. eigenvalues --   -0.44330  -0.43257  -0.39758  -0.37780
 Alpha virt. eigenvalues --    0.02373   0.03972   0.04379   0.04456   0.05784
 Alpha virt. eigenvalues --    0.06281   0.06364   0.06779   0.07511   0.07953
 Alpha virt. eigenvalues --    0.08950   0.09810   0.10863   0.11929   0.12264

 Mulliken atomic charges:
              1
     1  H    0.043690
     2  C    0.431054
     3  H   -0.153824
     4  H    0.048398
     5  C    0.613328
     6  O   -0.924011
     7  N   -0.228303
     8  H   -0.096488
     9  C   -0.196317
    10  H   -0.105005
    11  C    0.681553
    12  H   -0.048527
    13  H   -0.044656
    14  H   -0.081575
    15  C    1.018106
    16  O   -0.909050
    17  N   -0.427246
    18  H   -0.022411
    19  C    0.741779
    20  H   -0.101567
    21  H   -0.043387
    22  H   -0.195539
 Sum of Mulliken atomic charges =   0.00000

 Dipole moment (field-independent basis, Debye):
    X=             -4.5949    Y=              0.5272    Z=             -1.1988  Tot=              4.7779
 Quadrupole moment (field-independent basis, Debye-Ang):
   XX=            -62.5948   YY=            -59.0526   ZZ=            -62.2108
   XY=             -8.4264   XZ=              9.0291   YZ=              1.7838

 Normal termination of Gaussian 09 at Tue Feb 14 00:53:43 2017.
