 Gaussian 09, Revision A.02,
 Gaussian 09:  EM64L-G09RevA.02 11-Jun-2009

 -------------------
 #SP MP2/aug-cc-pVDZ
 -------------------

 -------------------------------
 Single Point calculation at MP2
 -------------------------------
 Symbolic Z-matrix:
 Charge =  0 Multiplicity = 1

                         Standard orientation:
 ---------------------------------------------------------------------
 Center     Atomic      Atomic             Coordinates (Angstroms)
 Number     Number       Type             X           Y           Z
 ---------------------------------------------------------------------
      1          1           0       -3.861694   -1.005299    0.230096
      2          6           0       -3.181394   -0.722398   -0.577404
      3          1           0       -3.622495    0.101201   -1.147104
      4          1           0       -3.077594   -1.590698   -1.237204
      5          6           0       -1.821295   -0.401997    0.025496
      6          8           0       -1.312894   -1.162597    0.851996
      7          7           0       -1.265895    0.772703   -0.383704
      8          1           0       -1.766796    1.243903   -1.124104
      9          6           0        0.109904    1.283904   -0.178004
     10          1           0        0.249304    2.042604   -0.949504
     11          6           0        0.234504    1.940604    1.208796
     12          1           0        0.055904    1.206104    1.999196
     13          1           0        1.238704    2.357005    1.339796
     14          1           0       -0.496297    2.749404    1.314696
     15          6           0        1.303405    0.317705   -0.414204
     16          8           0        2.189005    0.666605   -1.192704
     17          7           0        1.370006   -0.804895    0.336796
     18          1           0        0.515306   -1.107096    0.803096
     19          6           0        2.476206   -1.732594    0.172096
     20          1           0        3.423106   -1.187694    0.201696
     21          1           0        2.449807   -2.459194    0.987796
     22          1           0        2.427107   -2.268294   -0.785104
 ---------------------------------------------------------------------

 SCF Done:  E(RHF) =  -492.919647500     A.U. after   14 cycles
 E2 =    -0.1604211698D+01 EUMP2 =    -0.49452385919842D+03

 The electronic state is 1-A.
 Alpha  occ. eigenvalues --  -20.54841 -20.52224 -15.61733 -15.57257 -11.38388
 Alpha  occ. eigenvalues --  -11.35031 -11.30090 -11.26052 -11.25574 -11.23723
 Alpha  occ. eigenvalues --   -1.40193  -1.37358  -1.25384  -1.21663  -1.06187
 Alpha  occ. eigenvalues --   -1.00251  -0.94498  -0.88641  -0.81470  -0.76532
 Alpha  occ. eigenvalues --   -0.72191  -0.70860  -0.64828  -0.63532  -0.62533
 Alpha  occ. eigenvalues --   -0.61413  -0.60587  -0.58252  -0.57947  -0.56778
 Alpha  occ. eigenvalues --   -0.54422  -0.53984  -0.52306  -0.51762  -0.50292
 Alpha  occ. eigenvalues --   -0.44619  -0.43476  -0.39665  -0.37620
 Alpha virt. eigenvalues --    0.02490   0.03968   0.04306   0.04543   0.05645
 Alpha virt. eigenvalues --    0.06210   0.06450   0.06696   0.07350   0.08133
 Alpha virt. eigenvalues --    0.08818   0.10093   0.10999   0.11874   0.12068

 Mulliken atomic charges:
              1
     1  H    0.029944
     2  C    0.417834
     3  H   -0.139007
     4  H    0.053248
     5  C    0.641940
     6  O   -0.915933
     7  N   -0.238611
     8  H   -0.097584
     9  C   -0.096909
    10  H   -0.190011
    11  C    0.738204
    12  H   -0.081718
    13  H   -0.058928
    14  H   -0.092357
    15  C    0.890725
    16  O   -0.868217
    17  N   -0.418883
    18  H   -0.004912
    19  C    0.787881
    20  H   -0.106638
    21  H   -0.197186
    22  H   -0.052882
 Sum of Mulliken atomic charges =   0.00000

 Dipole moment (field-independent basis, Debye):
    X=             -4.1720    Y=              0.7763    Z=             -0.2117  Tot=              4.2489
 Quadrupole moment (field-independent basis, Debye-Ang):
   XX=            -60.2527   YY=            -58.8381   ZZ=            -64.4130
   XY=             -6.8770   XZ=             11.2384   YZ=              2.5163

 Normal termination of Gaussian 09 at Tue Feb 14 00:18:06 2017.
