 Gaussian 09, Revision A.02,
 Gaussian 09:  EM64L-G09RevA.02 11-Jun-2009

 -------------------
 #SP MP2/aug-cc-pVDZ
 -------------------

 -------------------------------
 Single Point calculation at MP2
 -------------------------------
 Symbolic Z-matrix:
 Charge =  0 Multiplicity = 1

                         Standard orientation:
 ---------------------------------------------------------------------
 Center     Atomic      Atomic             Coordinates (Angstroms)
 Number     Number       Type             X           Y           Z
 ---------------------------------------------------------------------
      1          1           0       -2.315680   -2.187291   -0.798403
      2          6           0       -2.897882   -1.282392   -0.584303
      3          1           0       -3.700881   -1.541394    0.107097
      4          1           0       -3.328683   -0.924793   -1.527003
      5          6           0       -1.999284   -0.242290    0.073697
      6          8           0       -2.017785   -0.026990    1.269897
      7          7           0       -1.230186    0.497011   -0.833203
      8          1           0       -1.302085    0.114311   -1.770303
      9          6           0        0.141313    0.963414   -0.568703
     10          1           0        0.541213    1.253415   -1.547003
     11          6           0        0.122611    2.200414    0.349297
     12          1           0       -0.309589    1.925613    1.313597
     13          1           0        1.137110    2.585117    0.506397
     14          1           0       -0.489291    2.988013   -0.101003
     15          6           0        1.069716   -0.101284    0.066197
     16          8           0        0.741117   -0.838184    0.981197
     17          7           0        2.311716   -0.150281   -0.518103
     18          1           0        2.540314    0.526820   -1.231903
     19          6           0        3.383918   -0.978878    0.006397
     20          1           0        2.939319   -1.664979    0.728497
     21          1           0        3.856219   -1.554177   -0.797403
     22          1           0        4.152316   -0.380277    0.512297
 ---------------------------------------------------------------------

 SCF Done:  E(RHF) =  -492.905354128     A.U. after   14 cycles
 E2 =    -0.1603608168D+01 EUMP2 =    -0.49450896229574D+03

 The electronic state is 1-A.
 Alpha  occ. eigenvalues --  -20.52976 -20.52519 -15.59936 -15.59214 -11.36069
 Alpha  occ. eigenvalues --  -11.35527 -11.30054 -11.26988 -11.24125 -11.22932
 Alpha  occ. eigenvalues --   -1.38875  -1.37461  -1.23699  -1.22813  -1.05172
 Alpha  occ. eigenvalues --   -0.98683  -0.95694  -0.87278  -0.80177  -0.76900
 Alpha  occ. eigenvalues --   -0.70549  -0.69438  -0.65204  -0.62985  -0.62252
 Alpha  occ. eigenvalues --   -0.61633  -0.59549  -0.58586  -0.56366  -0.55902
 Alpha  occ. eigenvalues --   -0.54820  -0.53217  -0.52419  -0.50859  -0.49452
 Alpha  occ. eigenvalues --   -0.44557  -0.41536  -0.39434  -0.38040
 Alpha virt. eigenvalues --    0.02129   0.03645   0.04069   0.04574   0.05705
 Alpha virt. eigenvalues --    0.05900   0.06027   0.06865   0.07804   0.08045
 Alpha virt. eigenvalues --    0.08464   0.09466   0.11171   0.12016   0.12268

 Mulliken atomic charges:
              1
     1  H    0.058300
     2  C    0.295985
     3  H   -0.051588
     4  H   -0.014410
     5  C    0.779258
     6  O   -0.786363
     7  N   -0.453387
     8  H   -0.044451
     9  C   -0.240272
    10  H   -0.280287
    11  C    0.724026
    12  H   -0.001421
    13  H   -0.065575
    14  H   -0.051756
    15  C    1.205094
    16  O   -0.815272
    17  N   -0.478920
    18  H   -0.125231
    19  C    0.726765
    20  H   -0.147085
    21  H   -0.134763
    22  H   -0.098645
 Sum of Mulliken atomic charges =   0.00000

 Dipole moment (field-independent basis, Debye):
    X=              2.7009    Y=              0.9385    Z=             -5.9475  Tot=              6.5992
 Quadrupole moment (field-independent basis, Debye-Ang):
   XX=            -52.8825   YY=            -59.9313   ZZ=            -63.6011
   XY=              4.3012   XZ=              3.8645   YZ=              1.7002

 Normal termination of Gaussian 09 at Mon Feb 13 23:58:00 2017.
