 Gaussian 09, Revision A.02,
 Gaussian 09:  EM64L-G09RevA.02 11-Jun-2009

 -------------------
 #SP MP2/aug-cc-pVDZ
 -------------------

 -------------------------------
 Single Point calculation at MP2
 -------------------------------
 Symbolic Z-matrix:
 Charge =  0 Multiplicity = 1

                         Standard orientation:
 ---------------------------------------------------------------------
 Center     Atomic      Atomic             Coordinates (Angstroms)
 Number     Number       Type             X           Y           Z
 ---------------------------------------------------------------------
      1          1           0        3.467693   -1.439410   -0.893392
      2          6           0        3.005893   -1.094209    0.034108
      3          1           0        3.707794   -0.450410    0.573708
      4          1           0        2.795693   -1.974309    0.653408
      5          6           0        1.694994   -0.400809   -0.297692
      6          8           0        0.973893   -0.764609   -1.220492
      7          7           0        1.375394    0.672391    0.496208
      8          1           0        1.899694    0.765891    1.355608
      9          6           0        0.010294    1.219391    0.513808
     10          1           0       -0.091706    1.738491    1.471708
     11          6           0       -0.186306    2.231091   -0.622592
     12          1           0        0.003894    1.767191   -1.595492
     13          1           0       -1.201006    2.642791   -0.611192
     14          1           0        0.522094    3.057391   -0.507392
     15          6           0       -1.023306    0.064091    0.600608
     16          8           0       -1.038407   -0.647709    1.597808
     17          7           0       -1.925306   -0.048909   -0.414992
     18          1           0       -1.636806    0.326791   -1.307592
     19          6           0       -2.823107   -1.194309   -0.454292
     20          1           0       -3.222707   -1.358708    0.547408
     21          1           0       -3.644707   -0.984808   -1.144692
     22          1           0       -2.305207   -2.108209   -0.772792
 ---------------------------------------------------------------------

 SCF Done:  E(RHF) =  -492.921647696     A.U. after   15 cycles
 E2 =    -0.1602976400D+01 EUMP2 =    -0.49452462409591D+03

 The electronic state is 1-A.
 Alpha  occ. eigenvalues --  -20.53734 -20.52604 -15.60067 -15.58384 -11.36745
 Alpha  occ. eigenvalues --  -11.35386 -11.29683 -11.25752 -11.24918 -11.23752
 Alpha  occ. eigenvalues --   -1.39323  -1.37689  -1.24028  -1.22334  -1.05530
 Alpha  occ. eigenvalues --   -0.99444  -0.94399  -0.88535  -0.80308  -0.76613
 Alpha  occ. eigenvalues --   -0.71392  -0.69997  -0.64797  -0.64055  -0.62009
 Alpha  occ. eigenvalues --   -0.61188  -0.59694  -0.57843  -0.56876  -0.55993
 Alpha  occ. eigenvalues --   -0.54367  -0.54200  -0.52517  -0.51614  -0.50051
 Alpha  occ. eigenvalues --   -0.43081  -0.42858  -0.40155  -0.38361
 Alpha virt. eigenvalues --    0.02992   0.03867   0.04244   0.04746   0.05797
 Alpha virt. eigenvalues --    0.06087   0.06520   0.06660   0.07494   0.07991
 Alpha virt. eigenvalues --    0.08820   0.09935   0.10703   0.11861   0.13001

 Mulliken atomic charges:
              1
     1  H   -0.000848
     2  C    0.368821
     3  H   -0.070350
     4  H    0.072758
     5  C    0.633418
     6  O   -0.849173
     7  N   -0.384631
     8  H   -0.080318
     9  C   -0.183795
    10  H   -0.141600
    11  C    0.863115
    12  H   -0.007683
    13  H    0.006602
    14  H   -0.134859
    15  C    1.063637
    16  O   -0.944097
    17  N   -0.557868
    18  H   -0.052710
    19  C    0.747240
    20  H   -0.114169
    21  H   -0.188871
    22  H   -0.044620
 Sum of Mulliken atomic charges =   0.00000

 Dipole moment (field-independent basis, Debye):
    X=              1.6554    Y=              2.4885    Z=             -0.3616  Tot=              3.0106
 Quadrupole moment (field-independent basis, Debye-Ang):
   XX=            -51.1735   YY=            -59.6803   ZZ=            -66.2945
   XY=             -0.7306   XZ=              8.8871   YZ=              2.0139

 Normal termination of Gaussian 09 at Tue Feb 14 00:24:06 2017.
