 Gaussian 09, Revision A.02,
 Gaussian 09:  EM64L-G09RevA.02 11-Jun-2009

 -------------------
 #SP MP2/aug-cc-pVDZ
 -------------------

 -------------------------------
 Single Point calculation at MP2
 -------------------------------
 Symbolic Z-matrix:
 Charge =  0 Multiplicity = 1

                         Standard orientation:
 ---------------------------------------------------------------------
 Center     Atomic      Atomic             Coordinates (Angstroms)
 Number     Number       Type             X           Y           Z
 ---------------------------------------------------------------------
      1          1           0       -3.347114   -1.846209   -0.309192
      2          6           0       -3.236714   -0.762909   -0.211192
      3          1           0       -3.865014   -0.445810    0.628008
      4          1           0       -3.600014   -0.280410   -1.123792
      5          6           0       -1.785014   -0.449309    0.124108
      6          8           0       -1.197314   -1.046609    1.025908
      7          7           0       -1.206114    0.518891   -0.638892
      8          1           0       -1.791814    0.938491   -1.347192
      9          6           0        0.103586    1.173191   -0.466392
     10          1           0        0.340386    1.594591   -1.450592
     11          6           0       -0.002514    2.323091    0.549308
     12          1           0       -0.287114    1.929691    1.530508
     13          1           0        0.962485    2.824691    0.639008
     14          1           0       -0.760715    3.046891    0.231208
     15          6           0        1.352686    0.311091   -0.143192
     16          8           0        2.395586    0.905491    0.108308
     17          7           0        1.288186   -1.037009   -0.326692
     18          1           0        0.398386   -1.456009   -0.074792
     19          6           0        2.474886   -1.833809   -0.038592
     20          1           0        3.330786   -1.407508   -0.565092
     21          1           0        2.712586   -1.855909    1.033008
     22          1           0        2.304986   -2.854809   -0.389992
 ---------------------------------------------------------------------

 SCF Done:  E(RHF) =  -492.917649065     A.U. after   14 cycles
 E2 =    -0.1603511918D+01 EUMP2 =    -0.49452116098298D+03

 The electronic state is 1-A.
 Alpha  occ. eigenvalues --  -20.54486 -20.52641 -15.61538 -15.57620 -11.38110
 Alpha  occ. eigenvalues --  -11.35561 -11.30277 -11.26061 -11.25456 -11.22974
 Alpha  occ. eigenvalues --   -1.40024  -1.37944  -1.25371  -1.21730  -1.05952
 Alpha  occ. eigenvalues --   -1.00015  -0.94677  -0.88029  -0.81578  -0.76443
 Alpha  occ. eigenvalues --   -0.71886  -0.70591  -0.64714  -0.64352  -0.62526
 Alpha  occ. eigenvalues --   -0.61184  -0.60402  -0.58998  -0.58021  -0.55986
 Alpha  occ. eigenvalues --   -0.54135  -0.53597  -0.52176  -0.51625  -0.49888
 Alpha  occ. eigenvalues --   -0.44098  -0.42799  -0.40552  -0.38313
 Alpha virt. eigenvalues --    0.02277   0.03833   0.04201   0.04611   0.05869
 Alpha virt. eigenvalues --    0.06128   0.06448   0.06668   0.07417   0.08160
 Alpha virt. eigenvalues --    0.08994   0.09604   0.11450   0.12109   0.12503

 Mulliken atomic charges:
              1
     1  H    0.037621
     2  C    0.401788
     3  H    0.053759
     4  H   -0.121682
     5  C    0.557444
     6  O   -0.872960
     7  N   -0.183818
     8  H   -0.115441
     9  C   -0.252513
    10  H   -0.037111
    11  C    0.736900
    12  H   -0.062724
    13  H   -0.030822
    14  H   -0.058741
    15  C    0.895831
    16  O   -0.845889
    17  N   -0.463460
    18  H   -0.018072
    19  C    0.748718
    20  H   -0.120125
    21  H   -0.052382
    22  H   -0.196322
 Sum of Mulliken atomic charges =   0.00000

 Dipole moment (field-independent basis, Debye):
    X=             -4.6374    Y=              0.1216    Z=             -2.9344  Tot=              5.4892
 Quadrupole moment (field-independent basis, Debye-Ang):
   XX=            -60.5559   YY=            -59.1068   ZZ=            -62.5026
   XY=             -7.4814   XZ=              3.6833   YZ=             -0.0127

 Normal termination of Gaussian 09 at Tue Feb 14 00:21:47 2017.
