 Gaussian 09, Revision A.02,
 Gaussian 09:  EM64L-G09RevA.02 11-Jun-2009

 -------------------
 #SP MP2/aug-cc-pVDZ
 -------------------

 -------------------------------
 Single Point calculation at MP2
 -------------------------------
 Symbolic Z-matrix:
 Charge =  0 Multiplicity = 1

                         Standard orientation:
 ---------------------------------------------------------------------
 Center     Atomic      Atomic             Coordinates (Angstroms)
 Number     Number       Type             X           Y           Z
 ---------------------------------------------------------------------
      1          1           0       -3.546096   -1.305495    0.940510
      2          6           0       -3.052995   -1.017996    0.010210
      3          1           0       -3.744894   -0.437495   -0.609190
      4          1           0       -2.784697   -1.931497   -0.534190
      5          6           0       -1.781494   -0.255898    0.338010
      6          8           0       -1.167094   -0.408499    1.384910
      7          7           0       -1.371193    0.648601   -0.621890
      8          1           0       -1.777293    0.503702   -1.537690
      9          6           0        0.029708    1.079899   -0.638190
     10          1           0        0.222909    1.441198   -1.655490
     11          6           0        0.258010    2.241498    0.339610
     12          1           0        0.117410    1.907299    1.371110
     13          1           0        1.259211    2.673197    0.223510
     14          1           0       -0.466789    3.035499    0.137510
     15          6           0        0.960606   -0.152403   -0.465490
     16          8           0        0.674904   -1.217202   -0.998390
     17          7           0        2.156307    0.068195    0.153110
     18          1           0        2.232108    0.869695    0.761810
     19          6           0        3.081405   -1.032006    0.382510
     20          1           0        3.067104   -1.682306   -0.493190
     21          1           0        4.089805   -0.633608    0.525710
     22          1           0        2.801504   -1.630706    1.258910
 ---------------------------------------------------------------------

 SCF Done:  E(RHF) =  -492.920891740     A.U. after   15 cycles
 E2 =    -0.1602950683D+01 EUMP2 =    -0.49452384242257D+03

 The electronic state is 1-A.
 Alpha  occ. eigenvalues --  -20.53151 -20.52552 -15.59191 -15.59145 -11.35957
 Alpha  occ. eigenvalues --  -11.35659 -11.29668 -11.26308 -11.24195 -11.23742
 Alpha  occ. eigenvalues --   -1.39039  -1.37547  -1.23429  -1.22810  -1.05261
 Alpha  occ. eigenvalues --   -0.98967  -0.94816  -0.88328  -0.79833  -0.76939
 Alpha  occ. eigenvalues --   -0.71050  -0.69893  -0.64798  -0.63790  -0.61463
 Alpha  occ. eigenvalues --   -0.61204  -0.59720  -0.58061  -0.56396  -0.55837
 Alpha  occ. eigenvalues --   -0.54727  -0.54140  -0.52842  -0.51277  -0.49264
 Alpha  occ. eigenvalues --   -0.42659  -0.42232  -0.39973  -0.39086
 Alpha virt. eigenvalues --    0.02985   0.03717   0.04420   0.04627   0.05911
 Alpha virt. eigenvalues --    0.06028   0.06366   0.06820   0.07711   0.07768
 Alpha virt. eigenvalues --    0.09048   0.09558   0.10727   0.11847   0.12751

 Mulliken atomic charges:
              1
     1  H   -0.013916
     2  C    0.328697
     3  H   -0.034081
     4  H    0.083983
     5  C    0.736495
     6  O   -0.865706
     7  N   -0.420730
     8  H   -0.045659
     9  C   -0.085392
    10  H   -0.116359
    11  C    0.760279
    12  H   -0.006039
    13  H    0.015728
    14  H   -0.144090
    15  C    0.931395
    16  O   -0.886760
    17  N   -0.482573
    18  H   -0.124264
    19  C    0.723925
    20  H   -0.111940
    21  H   -0.189872
    22  H   -0.053120
 Sum of Mulliken atomic charges =   0.00000

 Dipole moment (field-independent basis, Debye):
    X=              0.2025    Y=              2.9432    Z=             -1.3284  Tot=              3.2354
 Quadrupole moment (field-independent basis, Debye-Ang):
   XX=            -48.6364   YY=            -61.8094   ZZ=            -64.2164
   XY=              2.8782   XZ=              7.6756   YZ=             -1.9397

 Normal termination of Gaussian 09 at Tue Feb 14 00:15:44 2017.
