 Gaussian 09, Revision A.02,
 Gaussian 09:  EM64L-G09RevA.02 11-Jun-2009

 -------------------
 #SP MP2/aug-cc-pVDZ
 -------------------

 -------------------------------
 Single Point calculation at MP2
 -------------------------------
 Symbolic Z-matrix:
 Charge =  0 Multiplicity = 1

                         Standard orientation:
 ---------------------------------------------------------------------
 Center     Atomic      Atomic             Coordinates (Angstroms)
 Number     Number       Type             X           Y           Z
 ---------------------------------------------------------------------
      1          1           0       -3.656894   -1.614831    0.652395
      2          6           0       -3.141497   -1.221627   -0.225505
      3          1           0       -3.857202   -0.618033   -0.797105
      4          1           0       -2.814690   -2.053625   -0.858905
      5          6           0       -1.989004   -0.338118    0.240995
      6          8           0       -2.008408    0.240782    1.313995
      7          7           0       -0.925004   -0.280610   -0.644405
      8          1           0       -1.129401   -0.686111   -1.549305
      9          6           0        0.094487    0.792698   -0.692405
     10          1           0        0.305286    0.927100   -1.762205
     11          6           0       -0.342023    2.148695   -0.135105
     12          1           0       -0.555823    2.092893    0.931095
     13          1           0        0.469371    2.860801   -0.298305
     14          1           0       -1.239526    2.500088   -0.654505
     15          6           0        1.453791    0.344309   -0.097305
     16          8           0        2.262284    1.162215    0.321495
     17          7           0        1.725501   -0.987589   -0.229305
     18          1           0        0.924106   -1.590495   -0.360605
     19          6           0        2.944806   -1.566779    0.309295
     20          1           0        3.712200   -0.791473    0.310595
     21          1           0        2.814309   -1.926580    1.338595
     22          1           0        3.270413   -2.401377   -0.319505
 ---------------------------------------------------------------------

 SCF Done:  E(RHF) =  -492.915500758     A.U. after   14 cycles
 E2 =    -0.1601902213D+01 EUMP2 =    -0.49451740297136D+03

 The electronic state is 1-A.
 Alpha  occ. eigenvalues --  -20.54340 -20.52948 -15.60976 -15.59113 -11.37465
 Alpha  occ. eigenvalues --  -11.35640 -11.30015 -11.26586 -11.25794 -11.21974
 Alpha  occ. eigenvalues --   -1.39696  -1.38253  -1.25155  -1.22403  -1.05573
 Alpha  occ. eigenvalues --   -0.99642  -0.95795  -0.87731  -0.80221  -0.76708
 Alpha  occ. eigenvalues --   -0.71901  -0.70468  -0.66244  -0.63813  -0.62413
 Alpha  occ. eigenvalues --   -0.61619  -0.60581  -0.59276  -0.57265  -0.54895
 Alpha  occ. eigenvalues --   -0.54595  -0.53719  -0.51898  -0.51655  -0.50393
 Alpha  occ. eigenvalues --   -0.44736  -0.42850  -0.39602  -0.39208
 Alpha virt. eigenvalues --    0.02065   0.03612   0.03902   0.04706   0.05617
 Alpha virt. eigenvalues --    0.06105   0.06281   0.06441   0.07641   0.08036
 Alpha virt. eigenvalues --    0.08432   0.09288   0.11429   0.12265   0.12388

 Mulliken atomic charges:
              1
     1  H   -0.011613
     2  C    0.325164
     3  H    0.052377
     4  H   -0.081531
     5  C    0.752690
     6  O   -0.808019
     7  N   -0.347706
     8  H   -0.088792
     9  C   -0.350218
    10  H   -0.051059
    11  C    0.702549
    12  H    0.039990
    13  H   -0.074665
    14  H   -0.009734
    15  C    0.947694
    16  O   -0.816255
    17  N   -0.475985
    18  H   -0.067013
    19  C    0.720441
    20  H   -0.130636
    21  H   -0.078248
    22  H   -0.149432
 Sum of Mulliken atomic charges =   0.00000

 Dipole moment (field-independent basis, Debye):
    X=             -2.1709    Y=             -4.0848    Z=             -4.4052  Tot=              6.3878
 Quadrupole moment (field-independent basis, Debye-Ang):
   XX=            -63.5213   YY=            -58.9230   ZZ=            -62.7845
   XY=             -3.4616   XZ=              5.8146   YZ=             -2.0615

 Normal termination of Gaussian 09 at Sun Feb 12 14:57:44 2017.
