 Gaussian 09, Revision A.02,
 Gaussian 09:  EM64L-G09RevA.02 11-Jun-2009

 -------------------
 #SP MP2/aug-cc-pVDZ
 -------------------

 -------------------------------
 Single Point calculation at MP2
 -------------------------------
 Symbolic Z-matrix:
 Charge =  0 Multiplicity = 1

                         Standard orientation:
 ---------------------------------------------------------------------
 Center     Atomic      Atomic             Coordinates (Angstroms)
 Number     Number       Type             X           Y           Z
 ---------------------------------------------------------------------
      1          1           0       -4.100792   -0.769420    0.489795
      2          6           0       -3.103991   -1.202818    0.376495
      3          1           0       -3.098990   -1.878918   -0.484005
      4          1           0       -2.892590   -1.785118    1.280495
      5          6           0       -2.091793   -0.066016    0.273595
      6          8           0       -2.167296    0.918884    0.998095
      7          7           0       -1.134993   -0.257814   -0.690205
      8          1           0       -1.050391   -1.195414   -1.062905
      9          6           0        0.085705    0.525389   -0.912305
     10          1           0        0.235305    0.533889   -2.001505
     11          6           0        0.017802    1.984288   -0.455305
     12          1           0       -0.060998    2.084788    0.627795
     13          1           0        0.905801    2.513290   -0.822305
     14          1           0       -0.861599    2.471587   -0.882305
     15          6           0        1.269307   -0.328809   -0.391105
     16          8           0        1.325910   -1.516409   -0.701405
     17          7           0        2.205806    0.295593    0.369395
     18          1           0        2.043604    1.252393    0.645395
     19          6           0        3.353607   -0.402204    0.925295
     20          1           0        3.373709   -1.400704    0.487495
     21          1           0        4.283006    0.122898    0.678695
     22          1           0        3.275507   -0.492505    2.015495
 ---------------------------------------------------------------------

 SCF Done:  E(RHF) =  -492.917339748     A.U. after   14 cycles
 E2 =    -0.1601108570D+01 EUMP2 =    -0.49451844831787D+03

 The electronic state is 1-A.
 Alpha  occ. eigenvalues --  -20.53430 -20.52630 -15.60428 -15.59432 -11.36517
 Alpha  occ. eigenvalues --  -11.36260 -11.29987 -11.27314 -11.24264 -11.23802
 Alpha  occ. eigenvalues --   -1.39113  -1.37899  -1.24118  -1.23523  -1.05770
 Alpha  occ. eigenvalues --   -0.98934  -0.95838  -0.89507  -0.80409  -0.76413
 Alpha  occ. eigenvalues --   -0.72542  -0.69489  -0.65730  -0.64980  -0.62153
 Alpha  occ. eigenvalues --   -0.61725  -0.59454  -0.58803  -0.56418  -0.55752
 Alpha  occ. eigenvalues --   -0.55476  -0.54529  -0.52963  -0.51565  -0.50632
 Alpha  occ. eigenvalues --   -0.43788  -0.41811  -0.40003  -0.38775
 Alpha virt. eigenvalues --    0.02989   0.03929   0.04144   0.04928   0.05549
 Alpha virt. eigenvalues --    0.05978   0.06272   0.06944   0.07562   0.07743
 Alpha virt. eigenvalues --    0.09368   0.09828   0.10747   0.11263   0.13480

 Mulliken atomic charges:
              1
     1  H    0.009016
     2  C    0.374062
     3  H   -0.123102
     4  H    0.055603
     5  C    0.608753
     6  O   -0.824004
     7  N   -0.476164
     8  H   -0.038122
     9  C   -0.121415
    10  H   -0.083200
    11  C    0.842919
    12  H    0.112562
    13  H   -0.058720
    14  H   -0.127736
    15  C    1.023676
    16  O   -0.895333
    17  N   -0.544117
    18  H   -0.117086
    19  C    0.730427
    20  H   -0.143699
    21  H   -0.124136
    22  H   -0.080185
 Sum of Mulliken atomic charges =   0.00000

 Dipole moment (field-independent basis, Debye):
    X=              1.6351    Y=              0.7183    Z=             -0.6156  Tot=              1.8891
 Quadrupole moment (field-independent basis, Debye-Ang):
   XX=            -56.3935   YY=            -63.8574   ZZ=            -62.1551
   XY=             12.0702   XZ=              7.9450   YZ=             -4.5185

 Normal termination of Gaussian 09 at Sun Feb 12 14:14:53 2017.
