 Gaussian 09, Revision A.02,
 Gaussian 09:  EM64L-G09RevA.02 11-Jun-2009

 -------------------
 #SP MP2/aug-cc-pVDZ
 -------------------

 -------------------------------
 Single Point calculation at MP2
 -------------------------------
 Symbolic Z-matrix:
 Charge =  0 Multiplicity = 1

                         Standard orientation:
 ---------------------------------------------------------------------
 Center     Atomic      Atomic             Coordinates (Angstroms)
 Number     Number       Type             X           Y           Z
 ---------------------------------------------------------------------
      1          1           0       -3.615673   -1.674136    0.211904
      2          6           0       -3.173280   -0.988032   -0.512896
      3          1           0       -3.929387   -0.236939   -0.770896
      4          1           0       -2.915274   -1.538329   -1.424296
      5          6           0       -1.978587   -0.295420    0.135404
      6          8           0       -1.934889   -0.075019    1.336904
      7          7           0       -0.971790    0.039890   -0.743596
      8          1           0       -1.145588   -0.184711   -1.713696
      9          6           0        0.134100    0.987501   -0.524296
     10          1           0        0.271195    1.504003   -1.481596
     11          6           0       -0.125610    2.066299    0.536804
     12          1           0       -0.248406    1.633998    1.529304
     13          1           0        0.730483    2.745507    0.533304
     14          1           0       -1.030916    2.631090    0.293504
     15          6           0        1.501907    0.313415   -0.271996
     16          8           0        2.528001    0.980025   -0.353896
     17          7           0        1.471320   -1.010985    0.029704
     18          1           0        0.564125   -1.442094    0.134504
     19          6           0        2.664928   -1.759573    0.376404
     20          1           0        3.523721   -1.117965    0.173104
     21          1           0        2.670731   -2.036373    1.437904
     22          1           0        2.742637   -2.671573   -0.226396
 ---------------------------------------------------------------------

 SCF Done:  E(RHF) =  -492.918852068     A.U. after   14 cycles
 E2 =    -0.1602334404D+01 EUMP2 =    -0.49452118647207D+03

 The electronic state is 1-A.
 Alpha  occ. eigenvalues --  -20.54259 -20.52523 -15.61045 -15.59328 -11.37649
 Alpha  occ. eigenvalues --  -11.35625 -11.29896 -11.26624 -11.25851 -11.22625
 Alpha  occ. eigenvalues --   -1.39654  -1.37984  -1.25291  -1.22588  -1.05811
 Alpha  occ. eigenvalues --   -0.99792  -0.95812  -0.88363  -0.80094  -0.77602
 Alpha  occ. eigenvalues --   -0.72505  -0.70282  -0.66436  -0.62786  -0.62530
 Alpha  occ. eigenvalues --   -0.62194  -0.60263  -0.59453  -0.57271  -0.55843
 Alpha  occ. eigenvalues --   -0.54697  -0.54179  -0.52247  -0.51997  -0.49808
 Alpha  occ. eigenvalues --   -0.44482  -0.42966  -0.39662  -0.38706
 Alpha virt. eigenvalues --    0.02290   0.03748   0.04163   0.04623   0.05658
 Alpha virt. eigenvalues --    0.06048   0.06318   0.06470   0.07632   0.08160
 Alpha virt. eigenvalues --    0.08567   0.09245   0.10919   0.12298   0.12485

 Mulliken atomic charges:
              1
     1  H   -0.004824
     2  C    0.396846
     3  H    0.051933
     4  H   -0.109220
     5  C    0.639236
     6  O   -0.819845
     7  N   -0.061987
     8  H   -0.111198
     9  C   -0.712560
    10  H   -0.042677
    11  C    0.751650
    12  H    0.040776
    13  H   -0.064060
    14  H   -0.042981
    15  C    1.208633
    16  O   -0.892656
    17  N   -0.549708
    18  H   -0.073476
    19  C    0.740972
    20  H   -0.143209
    21  H   -0.084628
    22  H   -0.117017
 Sum of Mulliken atomic charges =   0.00000

 Dipole moment (field-independent basis, Debye):
    X=             -2.9364    Y=             -2.7720    Z=             -3.1853  Tot=              5.1432
 Quadrupole moment (field-independent basis, Debye-Ang):
   XX=            -66.7872   YY=            -57.8639   ZZ=            -62.5980
   XY=             -5.5911   XZ=             10.0582   YZ=              0.2652

 Normal termination of Gaussian 09 at Sun Feb 12 15:03:51 2017.
