 Gaussian 09, Revision A.02,
 Gaussian 09:  EM64L-G09RevA.02 11-Jun-2009

 -------------------
 #SP MP2/aug-cc-pVDZ
 -------------------

 -------------------------------
 Single Point calculation at MP2
 -------------------------------
 Symbolic Z-matrix:
 Charge =  0 Multiplicity = 1

                         Standard orientation:
 ---------------------------------------------------------------------
 Center     Atomic      Atomic             Coordinates (Angstroms)
 Number     Number       Type             X           Y           Z
 ---------------------------------------------------------------------
      1          1           0       -3.839308   -0.987885   -0.716896
      2          6           0       -3.084810   -1.404689   -0.038896
      3          1           0       -2.675413   -2.312290   -0.495696
      4          1           0       -3.583211   -1.665187    0.896704
      5          6           0       -2.026705   -0.344493    0.255204
      6          8           0       -2.167402    0.475608    1.146704
      7          7           0       -0.913306   -0.420098   -0.559896
      8          1           0       -1.023908   -1.049797   -1.343796
      9          6           0        0.083999    0.652598   -0.779096
     10          1           0        0.335799    0.583097   -1.846096
     11          6           0       -0.397795    2.073900   -0.496896
     12          1           0       -0.577295    2.230301    0.564504
     13          1           0        0.373008    2.774597   -0.830196
     14          1           0       -1.321694    2.277104   -1.047196
     15          6           0        1.399498    0.341493   -0.015996
     16          8           0        1.895801    1.123291    0.780804
     17          7           0        2.007193   -0.830110   -0.388196
     18          1           0        1.435890   -1.510807   -0.870296
     19          6           0        3.180491   -1.327314    0.313404
     20          1           0        3.727894   -0.466117    0.698004
     21          1           0        2.917088   -1.976113    1.159604
     22          1           0        3.818688   -1.885617   -0.378396
 ---------------------------------------------------------------------

 SCF Done:  E(RHF) =  -492.911152707     A.U. after   14 cycles
 E2 =    -0.1601240782D+01 EUMP2 =    -0.49451239348858D+03

 The electronic state is 1-A.
 Alpha  occ. eigenvalues --  -20.53683 -20.53321 -15.60791 -15.59462 -11.37025
 Alpha  occ. eigenvalues --  -11.35785 -11.30036 -11.26793 -11.25412 -11.21905
 Alpha  occ. eigenvalues --   -1.39180  -1.38496  -1.24836  -1.22652  -1.05499
 Alpha  occ. eigenvalues --   -0.99343  -0.95855  -0.87635  -0.80260  -0.76807
 Alpha  occ. eigenvalues --   -0.71685  -0.70318  -0.65781  -0.64504  -0.62261
 Alpha  occ. eigenvalues --   -0.61520  -0.60507  -0.59115  -0.56934  -0.54937
 Alpha  occ. eigenvalues --   -0.54520  -0.52620  -0.52362  -0.51260  -0.51003
 Alpha  occ. eigenvalues --   -0.44739  -0.42397  -0.39482  -0.39249
 Alpha virt. eigenvalues --    0.01879   0.03643   0.03713   0.04599   0.05531
 Alpha virt. eigenvalues --    0.05879   0.06403   0.06529   0.07514   0.07904
 Alpha virt. eigenvalues --    0.08755   0.09549   0.10552   0.12338   0.12777

 Mulliken atomic charges:
              1
     1  H    0.057038
     2  C    0.352542
     3  H   -0.090835
     4  H   -0.008836
     5  C    0.612756
     6  O   -0.781719
     7  N   -0.451113
     8  H   -0.108888
     9  C   -0.181749
    10  H   -0.117659
    11  C    0.702748
    12  H    0.078968
    13  H   -0.100896
    14  H   -0.015361
    15  C    1.045798
    16  O   -0.783547
    17  N   -0.513353
    18  H   -0.087406
    19  C    0.746799
    20  H   -0.121408
    21  H   -0.082483
    22  H   -0.151397
 Sum of Mulliken atomic charges =   0.00000

 Dipole moment (field-independent basis, Debye):
    X=             -0.6540    Y=             -4.8401    Z=             -5.0716  Tot=              7.0410
 Quadrupole moment (field-independent basis, Debye-Ang):
   XX=            -61.2843   YY=            -58.8731   ZZ=            -63.0855
   XY=             -0.9516   XZ=              3.3206   YZ=             -2.5735

 Normal termination of Gaussian 09 at Sun Feb 12 15:24:57 2017.
