 Gaussian 09, Revision A.02,
 Gaussian 09:  EM64L-G09RevA.02 11-Jun-2009

 -------------------
 #SP MP2/aug-cc-pVDZ
 -------------------

 -------------------------------
 Single Point calculation at MP2
 -------------------------------
 Symbolic Z-matrix:
 Charge =  0 Multiplicity = 1

                         Standard orientation:
 ---------------------------------------------------------------------
 Center     Atomic      Atomic             Coordinates (Angstroms)
 Number     Number       Type             X           Y           Z
 ---------------------------------------------------------------------
      1          1           0        4.106297   -0.959221   -0.457413
      2          6           0        3.128995   -1.257717   -0.075113
      3          1           0        3.238593   -1.667317    0.934787
      4          1           0        2.728191   -2.049015   -0.720413
      5          6           0        2.198801   -0.049312   -0.115913
      6          8           0        2.427206    0.915687   -0.831413
      7          7           0        1.123600   -0.161707    0.739787
      8          1           0        0.952896   -1.110406    1.053287
      9          6           0       -0.118796    0.605599    0.704087
     10          1           0       -0.400295    0.790401    1.752887
     11          6           0       -0.025989    1.975099    0.014587
     12          1           0        0.108610    1.886898   -1.063513
     13          1           0       -0.936886    2.551403    0.218887
     14          1           0        0.819314    2.541795    0.407387
     15          6           0       -1.235600   -0.315795    0.138687
     16          8           0       -1.019206   -1.498296   -0.105913
     17          7           0       -2.470297    0.250711    0.038187
     18          1           0       -2.562893    1.243411    0.195187
     19          6           0       -3.633401   -0.482384   -0.434313
     20          1           0       -3.353606   -1.534285   -0.498713
     21          1           0       -4.470001   -0.371080    0.264287
     22          1           0       -3.951399   -0.137682   -1.426013
 ---------------------------------------------------------------------

 SCF Done:  E(RHF) =  -492.916237041     A.U. after   14 cycles
 E2 =    -0.1600389671D+01 EUMP2 =    -0.49451662671145D+03

 The electronic state is 1-A.
 Alpha  occ. eigenvalues --  -20.53995 -20.52563 -15.60340 -15.58708 -11.36702
 Alpha  occ. eigenvalues --  -11.35836 -11.30052 -11.27438 -11.23833 -11.23794
 Alpha  occ. eigenvalues --   -1.39507  -1.37755  -1.24111  -1.23225  -1.05601
 Alpha  occ. eigenvalues --   -0.98612  -0.95866  -0.88987  -0.80334  -0.75776
 Alpha  occ. eigenvalues --   -0.72715  -0.69125  -0.66060  -0.64118  -0.62432
 Alpha  occ. eigenvalues --   -0.62023  -0.59376  -0.58616  -0.56519  -0.55643
 Alpha  occ. eigenvalues --   -0.55244  -0.54144  -0.52893  -0.51637  -0.50363
 Alpha  occ. eigenvalues --   -0.43607  -0.41599  -0.40253  -0.38929
 Alpha virt. eigenvalues --    0.02635   0.03973   0.04310   0.04576   0.05724
 Alpha virt. eigenvalues --    0.06166   0.06286   0.06828   0.07504   0.08032
 Alpha virt. eigenvalues --    0.09145   0.09384   0.11165   0.12174   0.12812

 Mulliken atomic charges:
              1
     1  H   -0.057697
     2  C    0.297376
     3  H   -0.021241
     4  H    0.069513
     5  C    0.684750
     6  O   -0.804794
     7  N   -0.578975
     8  H   -0.000679
     9  C    0.001703
    10  H   -0.075575
    11  C    0.716067
    12  H    0.055341
    13  H   -0.197513
    14  H   -0.003696
    15  C    1.023533
    16  O   -0.817669
    17  N   -0.535720
    18  H   -0.097251
    19  C    0.699375
    20  H   -0.153891
    21  H   -0.122279
    22  H   -0.080678
 Sum of Mulliken atomic charges =   0.00000

 Dipole moment (field-independent basis, Debye):
    X=             -3.1522    Y=              0.6327    Z=              2.2231  Tot=              3.9088
 Quadrupole moment (field-independent basis, Debye-Ang):
   XX=            -55.2327   YY=            -63.1576   ZZ=            -62.2291
   XY=            -11.6927   XZ=              4.2252   YZ=              1.4142

 Normal termination of Gaussian 09 at Sun Feb 12 13:46:21 2017.
