 Gaussian 09, Revision A.02,
 Gaussian 09:  EM64L-G09RevA.02 11-Jun-2009

 -------------------
 #SP MP2/aug-cc-pVDZ
 -------------------

 -------------------------------
 Single Point calculation at MP2
 -------------------------------
 Symbolic Z-matrix:
 Charge =  0 Multiplicity = 1

                         Standard orientation:
 ---------------------------------------------------------------------
 Center     Atomic      Atomic             Coordinates (Angstroms)
 Number     Number       Type             X           Y           Z
 ---------------------------------------------------------------------
      1          1           0       -3.826204   -1.596085    0.016801
      2          6           0       -2.749504   -1.740388    0.132801
      3          1           0       -2.395906   -2.439889   -0.632099
      4          1           0       -2.580105   -2.187388    1.119001
      5          6           0       -2.072801   -0.371690    0.088401
      6          8           0       -2.562299    0.595311    0.650301
      7          7           0       -0.899701   -0.356193   -0.631299
      8          1           0       -0.575203   -1.256893   -0.955299
      9          6           0        0.097202    0.721805   -0.747999
     10          1           0        0.407402    0.725704   -1.804999
     11          6           0       -0.398995    2.120506   -0.393699
     12          1           0       -0.608195    2.205207    0.670701
     13          1           0        0.387407    2.836804   -0.656399
     14          1           0       -1.304494    2.366208   -0.951599
     15          6           0        1.332701    0.337402    0.105901
     16          8           0        1.537702    0.793701    1.220001
     17          7           0        2.120098   -0.635100   -0.461299
     18          1           0        2.017598   -0.809600   -1.451899
     19          6           0        3.329597   -1.117703    0.187001
     20          1           0        3.241198   -0.898403    1.251601
     21          1           0        3.431995   -2.198103    0.043301
     22          1           0        4.229298   -0.620205   -0.197799
 ---------------------------------------------------------------------

 SCF Done:  E(RHF) =  -492.910852087     A.U. after   14 cycles
 E2 =    -0.1601518190D+01 EUMP2 =    -0.49451237027696D+03

 The electronic state is 1-A.
 Alpha  occ. eigenvalues --  -20.53829 -20.52704 -15.60460 -15.60312 -11.36505
 Alpha  occ. eigenvalues --  -11.36361 -11.30094 -11.27474 -11.24738 -11.21947
 Alpha  occ. eigenvalues --   -1.39223  -1.38139  -1.24814  -1.23144  -1.05505
 Alpha  occ. eigenvalues --   -0.98849  -0.96424  -0.87830  -0.80184  -0.77169
 Alpha  occ. eigenvalues --   -0.72457  -0.69629  -0.65958  -0.64808  -0.62739
 Alpha  occ. eigenvalues --   -0.61696  -0.60023  -0.58966  -0.56407  -0.55408
 Alpha  occ. eigenvalues --   -0.53820  -0.52990  -0.52186  -0.51665  -0.50921
 Alpha  occ. eigenvalues --   -0.44958  -0.41657  -0.40178  -0.38599
 Alpha virt. eigenvalues --    0.01950   0.03565   0.03843   0.04597   0.05493
 Alpha virt. eigenvalues --    0.06035   0.06341   0.06641   0.07407   0.07795
 Alpha virt. eigenvalues --    0.08837   0.09734   0.10575   0.12100   0.12435

 Mulliken atomic charges:
              1
     1  H    0.004158
     2  C    0.368030
     3  H   -0.148028
     4  H    0.058564
     5  C    0.639188
     6  O   -0.803156
     7  N   -0.440049
     8  H   -0.056448
     9  C   -0.107739
    10  H   -0.280953
    11  C    0.701523
    12  H    0.081686
    13  H   -0.091608
    14  H    0.041394
    15  C    1.068676
    16  O   -0.792166
    17  N   -0.514362
    18  H   -0.111145
    19  C    0.732139
    20  H   -0.125412
    21  H   -0.145254
    22  H   -0.079038
 Sum of Mulliken atomic charges =   0.00000

 Dipole moment (field-independent basis, Debye):
    X=              2.3835    Y=             -4.3107    Z=             -4.8767  Tot=              6.9314
 Quadrupole moment (field-independent basis, Debye-Ang):
   XX=            -62.5998   YY=            -58.0818   ZZ=            -62.7743
   XY=              2.4043   XZ=             -2.1169   YZ=             -2.8011

 Normal termination of Gaussian 09 at Sun Feb 12 15:30:21 2017.
