 Gaussian 09, Revision A.02,
 Gaussian 09:  EM64L-G09RevA.02 11-Jun-2009

 -------------------
 #SP MP2/aug-cc-pVDZ
 -------------------

 -------------------------------
 Single Point calculation at MP2
 -------------------------------
 Symbolic Z-matrix:
 Charge =  0 Multiplicity = 1

                         Standard orientation:
 ---------------------------------------------------------------------
 Center     Atomic      Atomic             Coordinates (Angstroms)
 Number     Number       Type             X           Y           Z
 ---------------------------------------------------------------------
      1          1           0       -3.983511   -1.398601   -0.042191
      2          6           0       -2.913011   -1.613102   -0.026291
      3          1           0       -2.657312   -2.244403   -0.884191
      4          1           0       -2.695712   -2.172703    0.891109
      5          6           0       -2.155309   -0.287803    0.008409
      6          8           0       -2.603408    0.686797    0.591009
      7          7           0       -0.957809   -0.320005   -0.670391
      8          1           0       -0.692411   -1.222805   -1.040791
      9          6           0        0.124792    0.670293   -0.679491
     10          1           0        0.460792    0.744093   -1.725491
     11          6           0       -0.262606    2.072494   -0.205891
     12          1           0       -0.506806    2.069794    0.855009
     13          1           0        0.592395    2.737693   -0.375991
     14          1           0       -1.122105    2.452195   -0.761191
     15          6           0        1.289691    0.125192    0.181209
     16          8           0        1.220691    0.067192    1.400509
     17          7           0        2.361891   -0.334910   -0.535491
     18          1           0        2.382891   -0.168410   -1.531491
     19          6           0        3.561490   -0.849712    0.103209
     20          1           0        3.331690   -0.985911    1.160909
     21          1           0        3.850888   -1.811812   -0.333491
     22          1           0        4.402091   -0.150813    0.009909
 ---------------------------------------------------------------------

 SCF Done:  E(RHF) =  -492.912113324     A.U. after   14 cycles
 E2 =    -0.1601533286D+01 EUMP2 =    -0.49451364661004D+03

 The electronic state is 1-A.
 Alpha  occ. eigenvalues --  -20.53346 -20.52476 -15.60626 -15.59946 -11.36229
 Alpha  occ. eigenvalues --  -11.36212 -11.30026 -11.27453 -11.24406 -11.22366
 Alpha  occ. eigenvalues --   -1.38949  -1.37856  -1.24395  -1.23383  -1.05517
 Alpha  occ. eigenvalues --   -0.98740  -0.96326  -0.87979  -0.80139  -0.77134
 Alpha  occ. eigenvalues --   -0.72259  -0.69633  -0.66030  -0.64082  -0.62486
 Alpha  occ. eigenvalues --   -0.61880  -0.59779  -0.58681  -0.56251  -0.55342
 Alpha  occ. eigenvalues --   -0.54861  -0.53181  -0.51931  -0.51331  -0.50834
 Alpha  occ. eigenvalues --   -0.44369  -0.41319  -0.39956  -0.38589
 Alpha virt. eigenvalues --    0.02091   0.03636   0.03902   0.04557   0.05655
 Alpha virt. eigenvalues --    0.05981   0.06206   0.06571   0.07719   0.07862
 Alpha virt. eigenvalues --    0.08565   0.09373   0.11032   0.12099   0.12524

 Mulliken atomic charges:
              1
     1  H   -0.013300
     2  C    0.347217
     3  H   -0.099865
     4  H    0.065995
     5  C    0.714678
     6  O   -0.800510
     7  N   -0.377264
     8  H   -0.084498
     9  C   -0.331106
    10  H   -0.323348
    11  C    0.782493
    12  H    0.079208
    13  H   -0.095698
    14  H    0.016693
    15  C    1.155672
    16  O   -0.815208
    17  N   -0.510635
    18  H   -0.104321
    19  C    0.744558
    20  H   -0.142019
    21  H   -0.124050
    22  H   -0.084693
 Sum of Mulliken atomic charges =   0.00000

 Dipole moment (field-independent basis, Debye):
    X=              3.1102    Y=             -2.7922    Z=             -5.2204  Tot=              6.6874
 Quadrupole moment (field-independent basis, Debye-Ang):
   XX=            -58.9615   YY=            -57.8506   ZZ=            -63.9687
   XY=              5.9976   XZ=             -1.9062   YZ=             -1.0088

 Normal termination of Gaussian 09 at Sun Feb 12 14:20:06 2017.
