 Gaussian 09, Revision A.02,
 Gaussian 09:  EM64L-G09RevA.02 11-Jun-2009

 -------------------
 #SP MP2/aug-cc-pVDZ
 -------------------

 -------------------------------
 Single Point calculation at MP2
 -------------------------------
 Symbolic Z-matrix:
 Charge =  0 Multiplicity = 1

                         Standard orientation:
 ---------------------------------------------------------------------
 Center     Atomic      Atomic             Coordinates (Angstroms)
 Number     Number       Type             X           Y           Z
 ---------------------------------------------------------------------
      1          1           0       -3.708926   -1.535574   -0.068012
      2          6           0       -3.105119   -0.851580    0.532188
      3          1           0       -2.846524   -1.362483    1.467288
      4          1           0       -3.692910    0.039326    0.775088
      5          6           0       -1.828416   -0.528193   -0.224512
      6          8           0       -1.269324   -1.335499   -0.957712
      7          7           0       -1.337503    0.744602   -0.047512
      8          1           0       -1.650198    1.243005    0.776888
      9          6           0        0.024200    1.035688   -0.482312
     10          1           0        0.069298    0.833288   -1.557412
     11          6           0        0.353915    2.506685   -0.214712
     12          1           0        0.346617    2.705385    0.862788
     13          1           0        1.351618    2.748175   -0.594012
     14          1           0       -0.373978    3.160692   -0.705912
     15          6           0        1.030091    0.134178    0.266588
     16          8           0        0.995790    0.038478    1.487788
     17          7           0        1.995085   -0.433132   -0.512712
     18          1           0        1.777684   -0.538830   -1.494812
     19          6           0        2.967476   -1.354742    0.055088
     20          1           0        3.218579   -1.009644    1.059088
     21          1           0        2.571866   -2.376038    0.129888
     22          1           0        3.869176   -1.363651   -0.563912
 ---------------------------------------------------------------------

 SCF Done:  E(RHF) =  -492.928153872     A.U. after   15 cycles
 E2 =    -0.1600872400D+01 EUMP2 =    -0.49452902627168D+03

 The electronic state is 1-A.
 Alpha  occ. eigenvalues --  -20.53616 -20.52977 -15.59550 -15.59142 -11.36390
 Alpha  occ. eigenvalues --  -11.35467 -11.29208 -11.26325 -11.24654 -11.24318
 Alpha  occ. eigenvalues --   -1.39189  -1.37943  -1.23907  -1.22833  -1.05617
 Alpha  occ. eigenvalues --   -0.99320  -0.95559  -0.87253  -0.79941  -0.77878
 Alpha  occ. eigenvalues --   -0.72153  -0.67930  -0.67009  -0.63495  -0.62212
 Alpha  occ. eigenvalues --   -0.61399  -0.59539  -0.58368  -0.57303  -0.55805
 Alpha  occ. eigenvalues --   -0.54340  -0.53854  -0.52614  -0.51662  -0.50092
 Alpha  occ. eigenvalues --   -0.43595  -0.42783  -0.40088  -0.38809
 Alpha virt. eigenvalues --    0.03166   0.03763   0.04389   0.04773   0.05807
 Alpha virt. eigenvalues --    0.06094   0.06355   0.07103   0.07135   0.07672
 Alpha virt. eigenvalues --    0.09159   0.09315   0.10839   0.12080   0.13201

 Mulliken atomic charges:
              1
     1  H   -0.004702
     2  C    0.347670
     3  H    0.070823
     4  H   -0.074229
     5  C    0.600630
     6  O   -0.854176
     7  N   -0.414576
     8  H   -0.001210
     9  C    0.055689
    10  H   -0.322654
    11  C    0.707790
    12  H   -0.023891
    13  H   -0.056137
    14  H   -0.017178
    15  C    1.106718
    16  O   -0.900916
    17  N   -0.527902
    18  H   -0.067804
    19  C    0.736786
    20  H   -0.121861
    21  H   -0.064065
    22  H   -0.174806
 Sum of Mulliken atomic charges =   0.00000

 Dipole moment (field-independent basis, Debye):
    X=             -0.4334    Y=              2.0764    Z=             -1.0740  Tot=              2.3776
 Quadrupole moment (field-independent basis, Debye-Ang):
   XX=            -51.0736   YY=            -60.6071   ZZ=            -65.2926
   XY=             -4.0959   XZ=             -8.9454   YZ=             -2.0733

 Normal termination of Gaussian 09 at Mon Feb 13 16:40:46 2017.
