 Gaussian 09, Revision A.02,
 Gaussian 09:  EM64L-G09RevA.02 11-Jun-2009

 -------------------
 #SP MP2/aug-cc-pVDZ
 -------------------

 -------------------------------
 Single Point calculation at MP2
 -------------------------------
 Symbolic Z-matrix:
 Charge =  0 Multiplicity = 1

                         Standard orientation:
 ---------------------------------------------------------------------
 Center     Atomic      Atomic             Coordinates (Angstroms)
 Number     Number       Type             X           Y           Z
 ---------------------------------------------------------------------
      1          1           0       -3.756090   -1.469729   -0.083290
      2          6           0       -3.137493   -0.792526    0.508710
      3          1           0       -2.848690   -1.311224    1.430910
      4          1           0       -3.717898    0.095271    0.779910
      5          6           0       -1.884095   -0.452319   -0.278290
      6          8           0       -1.396791   -1.204317   -1.111590
      7          7           0       -1.331202    0.782784   -0.005190
      8          1           0       -1.578004    1.182083    0.893110
      9          6           0        0.043397    1.024791   -0.419690
     10          1           0        0.081498    0.887391   -1.505390
     11          6           0        0.453789    2.457593   -0.060090
     12          1           0        0.440289    2.597893    1.027210
     13          1           0        1.468788    2.665999   -0.411290
     14          1           0       -0.231115    3.178690   -0.517590
     15          6           0        0.996602    0.015996    0.261510
     16          8           0        0.798605   -0.365105    1.408610
     17          7           0        2.110604   -0.299598   -0.460490
     18          1           0        2.085103   -0.122398   -1.455490
     19          6           0        3.089309   -1.258792    0.027010
     20          1           0        3.056009   -1.244892    1.117010
     21          1           0        2.870015   -2.278593   -0.314590
     22          1           0        4.090708   -0.975887   -0.311890
 ---------------------------------------------------------------------

 SCF Done:  E(RHF) =  -492.927510589     A.U. after   15 cycles
 E2 =    -0.1600544626D+01 EUMP2 =    -0.49452805521486D+03

 The electronic state is 1-A.
 Alpha  occ. eigenvalues --  -20.53364 -20.53052 -15.59423 -15.59130 -11.36018
 Alpha  occ. eigenvalues --  -11.35649 -11.29179 -11.26566 -11.24555 -11.24287
 Alpha  occ. eigenvalues --   -1.39082  -1.37904  -1.23659  -1.23057  -1.05534
 Alpha  occ. eigenvalues --   -0.99104  -0.95670  -0.87373  -0.79669  -0.78000
 Alpha  occ. eigenvalues --   -0.72238  -0.67567  -0.66884  -0.63266  -0.62394
 Alpha  occ. eigenvalues --   -0.61430  -0.59561  -0.58154  -0.57212  -0.56004
 Alpha  occ. eigenvalues --   -0.54542  -0.53840  -0.53047  -0.51381  -0.49916
 Alpha  occ. eigenvalues --   -0.43418  -0.42491  -0.39899  -0.39160
 Alpha virt. eigenvalues --    0.03088   0.03742   0.04443   0.04720   0.05781
 Alpha virt. eigenvalues --    0.06072   0.06247   0.07107   0.07181   0.07699
 Alpha virt. eigenvalues --    0.09124   0.09347   0.10602   0.12086   0.12910

 Mulliken atomic charges:
              1
     1  H   -0.020128
     2  C    0.331466
     3  H    0.075400
     4  H   -0.049282
     5  C    0.633825
     6  O   -0.857250
     7  N   -0.440528
     8  H    0.004541
     9  C   -0.046560
    10  H   -0.259244
    11  C    0.763037
    12  H   -0.033441
    13  H   -0.053204
    14  H   -0.017997
    15  C    1.093149
    16  O   -0.906128
    17  N   -0.467363
    18  H   -0.101447
    19  C    0.712267
    20  H   -0.128372
    21  H   -0.069792
    22  H   -0.162952
 Sum of Mulliken atomic charges =   0.00000

 Dipole moment (field-independent basis, Debye):
    X=              0.5972    Y=              2.7686    Z=             -0.6129  Tot=              2.8978
 Quadrupole moment (field-independent basis, Debye-Ang):
   XX=            -49.8839   YY=            -61.1942   ZZ=            -65.1270
   XY=             -2.8809   XZ=             -9.3672   YZ=             -1.4183

 Normal termination of Gaussian 09 at Mon Feb 13 16:01:44 2017.
