 Gaussian 09, Revision A.02,
 Gaussian 09:  EM64L-G09RevA.02 11-Jun-2009

 -------------------
 #SP MP2/aug-cc-pVDZ
 -------------------

 -------------------------------
 Single Point calculation at MP2
 -------------------------------
 Symbolic Z-matrix:
 Charge =  0 Multiplicity = 1

                         Standard orientation:
 ---------------------------------------------------------------------
 Center     Atomic      Atomic             Coordinates (Angstroms)
 Number     Number       Type             X           Y           Z
 ---------------------------------------------------------------------
      1          1           0        3.325196   -1.744508   -0.541006
      2          6           0        3.195199   -0.665008   -0.432306
      3          1           0        3.336901   -0.183408   -1.405306
      4          1           0        3.974400   -0.307310    0.250294
      5          6           0        1.831000   -0.396204    0.187294
      6          8           0        1.378398   -1.070503    1.100494
      7          7           0        1.134303    0.660098   -0.350906
      8          1           0        1.614705    1.268497   -1.000806
      9          6           0       -0.084495    1.175302    0.276694
     10          1           0        0.127505    1.445801    1.317294
     11          6           0       -0.583492    2.407203   -0.483906
     12          1           0       -0.817193    2.162904   -1.526006
     13          1           0       -1.492691    2.785805   -0.009006
     14          1           0        0.166310    3.207601   -0.468106
     15          6           0       -1.205198    0.119305    0.384894
     16          8           0       -1.942798    0.097407    1.358694
     17          7           0       -1.406600   -0.626895   -0.743306
     18          1           0       -0.629201   -0.675497   -1.388806
     19          6           0       -2.370403   -1.715092   -0.760306
     20          1           0       -3.179903   -1.455890   -0.076706
     21          1           0       -2.772404   -1.840491   -1.770506
     22          1           0       -1.928006   -2.664193   -0.429506
 ---------------------------------------------------------------------

 SCF Done:  E(RHF) =  -492.922392877     A.U. after   14 cycles
 E2 =    -0.1602374523D+01 EUMP2 =    -0.49452476739968D+03

 The electronic state is 1-A.
 Alpha  occ. eigenvalues --  -20.54109 -20.52290 -15.60912 -15.58509 -11.37204
 Alpha  occ. eigenvalues --  -11.35139 -11.29354 -11.25975 -11.25747 -11.24958
 Alpha  occ. eigenvalues --   -1.39659  -1.37567  -1.25132  -1.22004  -1.06169
 Alpha  occ. eigenvalues --   -1.00115  -0.95159  -0.88082  -0.81158  -0.77540
 Alpha  occ. eigenvalues --   -0.70801  -0.69325  -0.67927  -0.62754  -0.62255
 Alpha  occ. eigenvalues --   -0.61952  -0.59573  -0.58789  -0.58148  -0.55705
 Alpha  occ. eigenvalues --   -0.54578  -0.54511  -0.53928  -0.51813  -0.49766
 Alpha  occ. eigenvalues --   -0.43354  -0.43002  -0.39875  -0.38572
 Alpha virt. eigenvalues --    0.02167   0.03667   0.03878   0.04606   0.05600
 Alpha virt. eigenvalues --    0.05826   0.06312   0.06613   0.07230   0.08201
 Alpha virt. eigenvalues --    0.08492   0.09169   0.11305   0.11625   0.11880

 Mulliken atomic charges:
              1
     1  H    0.018901
     2  C    0.402005
     3  H   -0.143598
     4  H    0.061835
     5  C    0.494340
     6  O   -0.826636
     7  N   -0.374600
     8  H   -0.070237
     9  C    0.262010
    10  H   -0.237700
    11  C    0.693369
    12  H   -0.005654
    13  H   -0.052750
    14  H   -0.076613
    15  C    1.086830
    16  O   -0.890124
    17  N   -0.659581
    18  H   -0.031686
    19  C    0.717343
    20  H   -0.123387
    21  H   -0.162079
    22  H   -0.081988
 Sum of Mulliken atomic charges =   0.00000

 Dipole moment (field-independent basis, Debye):
    X=              3.3774    Y=              2.0744    Z=             -5.7152  Tot=              6.9551
 Quadrupole moment (field-independent basis, Debye-Ang):
   XX=            -57.9483   YY=            -57.2362   ZZ=            -66.4715
   XY=              4.4053   XZ=              1.6464   YZ=              3.5931

 Normal termination of Gaussian 09 at Mon Feb 13 18:02:08 2017.
