 Gaussian 09, Revision A.02,
 Gaussian 09:  EM64L-G09RevA.02 11-Jun-2009

 -------------------
 #SP MP2/aug-cc-pVDZ
 -------------------

 -------------------------------
 Single Point calculation at MP2
 -------------------------------
 Symbolic Z-matrix:
 Charge =  0 Multiplicity = 1

                         Standard orientation:
 ---------------------------------------------------------------------
 Center     Atomic      Atomic             Coordinates (Angstroms)
 Number     Number       Type             X           Y           Z
 ---------------------------------------------------------------------
      1          1           0       -3.785013   -1.207970    0.719996
      2          6           0       -2.878010   -0.745775    1.112596
      3          1           0       -2.297115   -1.513878    1.638296
      4          1           0       -3.146506    0.033126    1.835496
      5          6           0       -2.058508   -0.203680   -0.049604
      6          8           0       -2.210910   -0.577479   -1.196204
      7          7           0       -1.173002    0.819615    0.299496
      8          1           0       -1.063901    0.919315    1.305196
      9          6           0        0.098299    1.008508   -0.411104
     10          1           0       -0.166801    1.050010   -1.473604
     11          6           0        0.710006    2.349305   -0.001904
     12          1           0        0.966607    2.377704    1.065896
     13          1           0        1.613508    2.569600   -0.581104
     14          1           0       -0.010789    3.150409   -0.188304
     15          6           0        1.005092   -0.250697   -0.301304
     16          8           0        0.620186   -1.346694   -0.679804
     17          7           0        2.225593   -0.063203    0.292696
     18          1           0        2.517798    0.871195    0.533696
     19          6           0        3.194687   -1.138209    0.424596
     20          1           0        2.688482   -2.066906    0.158496
     21          1           0        4.051188   -0.995313   -0.246204
     22          1           0        3.560787   -1.205511    1.455196
 ---------------------------------------------------------------------

 SCF Done:  E(RHF) =  -492.908562681     A.U. after   14 cycles
 E2 =    -0.1603612654D+01 EUMP2 =    -0.49451217533445D+03

 The electronic state is 1-A.
 Alpha  occ. eigenvalues --  -20.52746 -20.52574 -15.59987 -15.59316 -11.36064
 Alpha  occ. eigenvalues --  -11.35497 -11.29614 -11.27032 -11.25474 -11.24144
 Alpha  occ. eigenvalues --   -1.38790  -1.37522  -1.23813  -1.22938  -1.05700
 Alpha  occ. eigenvalues --   -0.98976  -0.95749  -0.88697  -0.79353  -0.78350
 Alpha  occ. eigenvalues --   -0.72171  -0.67016  -0.65754  -0.64563  -0.62308
 Alpha  occ. eigenvalues --   -0.61234  -0.59177  -0.58395  -0.57357  -0.56451
 Alpha  occ. eigenvalues --   -0.54973  -0.54929  -0.53159  -0.50639  -0.50036
 Alpha  occ. eigenvalues --   -0.44633  -0.41835  -0.39382  -0.38158
 Alpha virt. eigenvalues --    0.02338   0.03606   0.03869   0.04606   0.05494
 Alpha virt. eigenvalues --    0.05876   0.06265   0.06725   0.07309   0.08040
 Alpha virt. eigenvalues --    0.08742   0.09223   0.11272   0.11933   0.12616

 Mulliken atomic charges:
              1
     1  H   -0.047769
     2  C    0.303401
     3  H    0.062014
     4  H   -0.039116
     5  C    0.725353
     6  O   -0.816592
     7  N   -0.587770
     8  H   -0.013121
     9  C   -0.027815
    10  H   -0.109645
    11  C    0.784231
    12  H    0.041124
    13  H   -0.003438
    14  H   -0.140785
    15  C    0.989862
    16  O   -0.832523
    17  N   -0.536794
    18  H   -0.151653
    19  C    0.771780
    20  H   -0.151140
    21  H   -0.092625
    22  H   -0.126980
 Sum of Mulliken atomic charges =   0.00000

 Dipole moment (field-independent basis, Debye):
    X=              3.3197    Y=              3.8184    Z=              4.6844  Tot=              6.8952
 Quadrupole moment (field-independent basis, Debye-Ang):
   XX=            -54.9786   YY=            -62.2091   ZZ=            -62.7091
   XY=              1.1014   XZ=             -6.6713   YZ=             -4.3389

 Normal termination of Gaussian 09 at Mon Feb 13 17:09:16 2017.
