 Gaussian 09, Revision A.02,
 Gaussian 09:  EM64L-G09RevA.02 11-Jun-2009

 ----------------------------------------------------------------------
 # b3lyp/6-31G* Opt=(ModRedundant, maxcycles=1000, calcfc) geom=nocrowd
 ----------------------------------------------------------------------

 ------------------
 Phi Psi fixed scan
 ------------------
 Symbolic Z-matrix:
 Charge =  0 Multiplicity = 1

 SCF Done:  E(RB3LYP) =  -990.467096768     A.U. after   15 cycles

  Exact polarizability:   0.000   0.000   0.000   0.000   0.000   0.000
 Approx polarizability: 227.134   6.378 201.812  -8.791 -25.478 239.279

 SCF Done:  E(RB3LYP) =  -990.478066134     A.U. after   13 cycles
 SCF Done:  E(RB3LYP) =  -990.488984375     A.U. after   13 cycles
 SCF Done:  E(RB3LYP) =  -990.492209816     A.U. after   13 cycles
 SCF Done:  E(RB3LYP) =  -990.493994027     A.U. after   12 cycles
 SCF Done:  E(RB3LYP) =  -990.494821695     A.U. after   15 cycles
 SCF Done:  E(RB3LYP) =  -990.495818019     A.U. after   13 cycles
 SCF Done:  E(RB3LYP) =  -990.387600009     A.U. after   15 cycles
 SCF Done:  E(RB3LYP) =  -990.496159427     A.U. after   15 cycles
 SCF Done:  E(RB3LYP) =  -990.496500908     A.U. after   12 cycles
 SCF Done:  E(RB3LYP) =  -990.496938089     A.U. after    9 cycles
 SCF Done:  E(RB3LYP) =  -990.496938940     A.U. after    8 cycles
 SCF Done:  E(RB3LYP) =  -990.496939899     A.U. after    9 cycles
 SCF Done:  E(RB3LYP) =  -990.496940179     A.U. after    8 cycles
 SCF Done:  E(RB3LYP) =  -990.496940335     A.U. after    8 cycles
 SCF Done:  E(RB3LYP) =  -990.496940281     A.U. after    8 cycles
 SCF Done:  E(RB3LYP) =  -990.496940175     A.U. after    7 cycles
 SCF Done:  E(RB3LYP) =  -990.496940122     A.U. after    6 cycles
 SCF Done:  E(RB3LYP) =  -990.496940096     A.U. after    6 cycles
 SCF Done:  E(RB3LYP) =  -990.496940115     A.U. after    5 cycles
 Optimization completed.
    -- Stationary point found.

                         Standard orientation:
 ---------------------------------------------------------------------
 Center     Atomic      Atomic             Coordinates (Angstroms)
 Number     Number       Type             X           Y           Z
 ---------------------------------------------------------------------
      1          1           0        6.811177   -1.817345   -0.821712
      2          6           0        5.803761   -1.759252   -1.245961
      3          1           0        5.593390   -2.723838   -1.718066
      4          1           0        5.783822   -0.975135   -2.008918
      5          6           0        4.806808   -1.538381   -0.117636
      6          8           0        4.678325   -2.338949    0.805369
      7          7           0        4.076582   -0.391537   -0.196731
      8          1           0        4.122649    0.227801   -0.997950
      9          6           0        3.038075   -0.073369    0.761736
     10          1           0        2.500496   -0.999672    1.002886
     11          6           0        3.616145    0.508677    2.066718
     12          1           0        4.154266    1.440403    1.863260
     13          1           0        2.826562    0.716147    2.797876
     14          1           0        4.309164   -0.217454    2.498770
     15          6           0        2.087286    0.927021    0.071451
     16          8           0        2.438143    1.542578   -0.928575
     17          7           0        0.889390    1.076851    0.708125
     18          1           0        0.698495    0.419349    1.452428
     19          6           0       -0.253635    1.913427    0.304009
     20          1           0       -0.782952    2.138241    1.239352
     21          6           0        0.131363    3.231125   -0.365487
     22          1           0        0.546155    3.053668   -1.355753
     23          1           0       -0.766420    3.852226   -0.458260
     24          1           0        0.866314    3.768531    0.240387
     25          6           0       -1.193760    1.080948   -0.602279
     26          8           0       -1.042245    1.003850   -1.815686
     27          7           0       -2.165290    0.400733    0.066744
     28          1           0       -2.373736    0.568053    1.045977
     29          6           0       -3.148862   -0.413400   -0.623287
     30          1           0       -3.447867    0.111295   -1.540033
     31          6           0       -2.581921   -1.792417   -1.011771
     32          1           0       -2.287481   -2.351629   -0.117728
     33          1           0       -3.317298   -2.386588   -1.565876
     34          1           0       -1.705783   -1.647687   -1.648666
     35          6           0       -4.355610   -0.539742    0.323264
     36          8           0       -4.269134   -0.235998    1.511820
     37          7           0       -5.488524   -1.023774   -0.247753
     38          1           0       -5.480176   -1.223213   -1.238122
     39          6           0       -6.716718   -1.251876    0.496440
     40          1           0       -6.525975   -0.979386    1.534833
     41          1           0       -7.532908   -0.632878    0.107040
     42          1           0       -7.015310   -2.305224    0.448977
 ---------------------------------------------------------------------

 The electronic state is 1-A.
 Alpha  occ. eigenvalues --  -19.13444 -19.12237 -19.11553 -19.09515 -14.38330
 Alpha  occ. eigenvalues --  -14.37375 -14.36349 -14.34561 -10.30566 -10.29497
 Alpha  occ. eigenvalues --  -10.28803 -10.27510 -10.24740 -10.24654 -10.23362
 Alpha  occ. eigenvalues --  -10.23325 -10.19418 -10.18177 -10.18160 -10.17575
 Alpha  occ. eigenvalues --   -1.05448  -1.04317  -1.03347  -1.01491  -0.94114
 Alpha  occ. eigenvalues --   -0.93570  -0.92656  -0.91080  -0.79623  -0.77736
 Alpha  occ. eigenvalues --   -0.75558  -0.72287  -0.71736  -0.67745  -0.65897
 Alpha  occ. eigenvalues --   -0.63498  -0.60804  -0.58745  -0.58100  -0.57035
 Alpha  occ. eigenvalues --   -0.55382  -0.52811  -0.50453  -0.49259  -0.47883
 Alpha  occ. eigenvalues --   -0.47383  -0.46970  -0.46280  -0.45008  -0.44587
 Alpha  occ. eigenvalues --   -0.44396  -0.43504  -0.42937  -0.41302  -0.41264
 Alpha  occ. eigenvalues --   -0.40866  -0.40804  -0.40428  -0.39122  -0.38550
 Alpha  occ. eigenvalues --   -0.38416  -0.38284  -0.37781  -0.37398  -0.36852
 Alpha  occ. eigenvalues --   -0.36609  -0.36130  -0.35648  -0.33552  -0.28575
 Alpha  occ. eigenvalues --   -0.27519  -0.27342  -0.25912  -0.25757  -0.24406
 Alpha  occ. eigenvalues --   -0.23680  -0.23492
 Alpha virt. eigenvalues --    0.00394   0.01155   0.03111   0.04187   0.05418
 Alpha virt. eigenvalues --    0.05812   0.09912   0.10252   0.10840   0.12665
 Alpha virt. eigenvalues --    0.13076   0.13320   0.13668   0.14340   0.14657

 Mulliken atomic charges:
              1
     1  H    0.180888
     2  C   -0.532750
     3  H    0.181130
     4  H    0.149220
     5  C    0.595634
     6  O   -0.526681
     7  N   -0.603606
     8  H    0.348086
     9  C   -0.035379
    10  H    0.165805
    11  C   -0.441646
    12  H    0.157176
    13  H    0.134163
    14  H    0.189350
    15  C    0.619862
    16  O   -0.519567
    17  N   -0.611506
    18  H    0.329968
    19  C   -0.045284
    20  H    0.141512
    21  C   -0.445126
    22  H    0.215124
    23  H    0.143100
    24  H    0.151264
    25  C    0.629071
    26  O   -0.517112
    27  N   -0.625674
    28  H    0.347145
    29  C   -0.032840
    30  H    0.173331
    31  C   -0.444558
    32  H    0.159009
    33  H    0.137137
    34  H    0.194246
    35  C    0.605683
    36  O   -0.531833
    37  N   -0.591836
    38  H    0.333499
    39  C   -0.314281
    40  H    0.208216
    41  H    0.165318
    42  H    0.164741
 Sum of Mulliken atomic charges =   0.00000

 Dipole moment (field-independent basis, Debye):
    X=             -5.6843    Y=             -0.1595    Z=              0.1085  Tot=              5.6876
 Quadrupole moment (field-independent basis, Debye-Ang):
   XX=            -96.4422   YY=           -123.8567   ZZ=           -124.0332
   XY=             15.5839   XZ=              3.3144   YZ=             12.0950

 Normal termination of Gaussian 09 at Fri Dec 30 11:33:40 2016.
