 Gaussian 09, Revision A.02,
 Gaussian 09:  EM64L-G09RevA.02 11-Jun-2009

 ----------------------------------------------------------------------
 # b3lyp/6-31G* Opt=(ModRedundant, maxcycles=1000, calcfc) geom=nocrowd
 ----------------------------------------------------------------------

 ------------------
 Phi Psi fixed scan
 ------------------
 Symbolic Z-matrix:
 Charge =  0 Multiplicity = 1

 SCF Done:  E(RB3LYP) =  -990.471563884     A.U. after   14 cycles

  Exact polarizability:   0.000   0.000   0.000   0.000   0.000   0.000
 Approx polarizability: 231.227  11.963 226.050   4.800  24.883 211.106

 SCF Done:  E(RB3LYP) =  -990.482927480     A.U. after   12 cycles
 SCF Done:  E(RB3LYP) =  -990.494562179     A.U. after   13 cycles
 SCF Done:  E(RB3LYP) =  -990.496864374     A.U. after   13 cycles
 SCF Done:  E(RB3LYP) =  -990.499454529     A.U. after   12 cycles
 SCF Done:  E(RB3LYP) =  -990.501346272     A.U. after   13 cycles
 SCF Done:  E(RB3LYP) =  -990.501275514     A.U. after   13 cycles
 SCF Done:  E(RB3LYP) =  -990.501930339     A.U. after   12 cycles
 SCF Done:  E(RB3LYP) =  -990.501938687     A.U. after   11 cycles
 SCF Done:  E(RB3LYP) =  -990.502252417     A.U. after   12 cycles
 SCF Done:  E(RB3LYP) =  -990.502986531     A.U. after   10 cycles
 SCF Done:  E(RB3LYP) =  -990.502997378     A.U. after   10 cycles
 SCF Done:  E(RB3LYP) =  -990.503002098     A.U. after   10 cycles
 SCF Done:  E(RB3LYP) =  -990.503006229     A.U. after    9 cycles
 SCF Done:  E(RB3LYP) =  -990.503011931     A.U. after   10 cycles
 SCF Done:  E(RB3LYP) =  -990.503015199     A.U. after    9 cycles
 SCF Done:  E(RB3LYP) =  -990.503016600     A.U. after    9 cycles
 SCF Done:  E(RB3LYP) =  -990.503017357     A.U. after    9 cycles
 SCF Done:  E(RB3LYP) =  -990.503017939     A.U. after    9 cycles
 SCF Done:  E(RB3LYP) =  -990.503018009     A.U. after    7 cycles
 Optimization completed.
    -- Stationary point found.

                         Standard orientation:
 ---------------------------------------------------------------------
 Center     Atomic      Atomic             Coordinates (Angstroms)
 Number     Number       Type             X           Y           Z
 ---------------------------------------------------------------------
      1          1           0        3.833721    3.767750   -0.125994
      2          6           0        4.081162    2.947310    0.554760
      3          1           0        3.439891    3.011559    1.438975
      4          1           0        5.123936    3.080298    0.859414
      5          6           0        3.953900    1.632008   -0.198404
      6          8           0        4.600062    1.396023   -1.215948
      7          7           0        3.080207    0.731134    0.333103
      8          1           0        2.497366    0.947716    1.133116
      9          6           0        2.805263   -0.536760   -0.312898
     10          1           0        2.780102   -0.368074   -1.396924
     11          6           0        3.889139   -1.590821   -0.009506
     12          1           0        3.939690   -1.788733    1.066167
     13          1           0        3.684340   -2.533656   -0.529652
     14          1           0        4.854625   -1.207827   -0.348921
     15          6           0        1.430341   -1.006073    0.181543
     16          8           0        0.961530   -0.594890    1.245336
     17          7           0        0.784100   -1.881690   -0.629171
     18          1           0        1.227629   -2.114716   -1.507014
     19          6           0       -0.400414   -2.681034   -0.264740
     20          1           0       -0.408644   -3.517478   -0.968267
     21          6           0       -0.369677   -3.254653    1.157854
     22          1           0       -0.390516   -2.472822    1.916563
     23          1           0       -1.239414   -3.906744    1.289270
     24          1           0        0.534886   -3.855369    1.301414
     25          6           0       -1.713631   -1.932549   -0.584183
     26          8           0       -2.546747   -2.421256   -1.344149
     27          7           0       -1.880537   -0.745238    0.050961
     28          1           0       -1.147268   -0.350765    0.639196
     29          6           0       -3.055989    0.073613   -0.184375
     30          1           0       -3.343192   -0.051574   -1.235214
     31          6           0       -4.241732   -0.358923    0.701023
     32          1           0       -3.985416   -0.249248    1.759738
     33          1           0       -5.133397    0.244177    0.494774
     34          1           0       -4.476081   -1.406963    0.496247
     35          6           0       -2.673042    1.535163    0.091463
     36          8           0       -1.738190    1.826917    0.830219
     37          7           0       -3.472557    2.457497   -0.513593
     38          1           0       -4.197363    2.131301   -1.136931
     39          6           0       -3.308545    3.888745   -0.324859
     40          1           0       -2.482082    4.031928    0.372221
     41          1           0       -3.069255    4.387800   -1.271133
     42          1           0       -4.215931    4.339015    0.094124
 ---------------------------------------------------------------------

 The electronic state is 1-A.
 Alpha  occ. eigenvalues --  -19.13384 -19.12029 -19.11006 -19.09931 -14.38052
 Alpha  occ. eigenvalues --  -14.37214 -14.35089 -14.35052 -10.30339 -10.29283
 Alpha  occ. eigenvalues --  -10.28233 -10.27923 -10.24463 -10.23992 -10.23673
 Alpha  occ. eigenvalues --  -10.22506 -10.18712 -10.18712 -10.18594 -10.18452
 Alpha  occ. eigenvalues --   -1.05286  -1.04120  -1.02712  -1.01955  -0.94043
 Alpha  occ. eigenvalues --   -0.92938  -0.91720  -0.91521  -0.79615  -0.77393
 Alpha  occ. eigenvalues --   -0.75859  -0.72162  -0.71392  -0.67581  -0.65791
 Alpha  occ. eigenvalues --   -0.64011  -0.60189  -0.58734  -0.57721  -0.57393
 Alpha  occ. eigenvalues --   -0.55032  -0.53603  -0.49764  -0.48399  -0.47602
 Alpha  occ. eigenvalues --   -0.47274  -0.46070  -0.45676  -0.45468  -0.44509
 Alpha  occ. eigenvalues --   -0.44029  -0.43367  -0.42993  -0.41845  -0.41341
 Alpha  occ. eigenvalues --   -0.41114  -0.40366  -0.39792  -0.39468  -0.39196
 Alpha  occ. eigenvalues --   -0.38844  -0.38236  -0.37535  -0.37143  -0.37056
 Alpha  occ. eigenvalues --   -0.36981  -0.36366  -0.34911  -0.34010  -0.28585
 Alpha  occ. eigenvalues --   -0.27191  -0.26387  -0.26164  -0.24625  -0.24580
 Alpha  occ. eigenvalues --   -0.23966  -0.23915
 Alpha virt. eigenvalues --    0.00300   0.01934   0.03050   0.03712   0.05595
 Alpha virt. eigenvalues --    0.06522   0.09715   0.11514   0.11667   0.12464
 Alpha virt. eigenvalues --    0.13203   0.13635   0.14231   0.14612   0.15319

 Mulliken atomic charges:
              1
     1  H    0.182457
     2  C   -0.533165
     3  H    0.151647
     4  H    0.181676
     5  C    0.597634
     6  O   -0.525194
     7  N   -0.604609
     8  H    0.351360
     9  C   -0.029480
    10  H    0.170332
    11  C   -0.444273
    12  H    0.159275
    13  H    0.135807
    14  H    0.191814
    15  C    0.621397
    16  O   -0.541278
    17  N   -0.611642
    18  H    0.339830
    19  C   -0.055213
    20  H    0.167543
    21  C   -0.460376
    22  H    0.194990
    23  H    0.163368
    24  H    0.152588
    25  C    0.607468
    26  O   -0.531598
    27  N   -0.619882
    28  H    0.384814
    29  C   -0.035167
    30  H    0.164719
    31  C   -0.441718
    32  H    0.162649
    33  H    0.137245
    34  H    0.182044
    35  C    0.601300
    36  O   -0.521383
    37  N   -0.592422
    38  H    0.329455
    39  C   -0.312363
    40  H    0.206432
    41  H    0.161615
    42  H    0.160305
 Sum of Mulliken atomic charges =   0.00000

 Dipole moment (field-independent basis, Debye):
    X=             -2.6904    Y=              0.6339    Z=              0.1470  Tot=              2.7680
 Quadrupole moment (field-independent basis, Debye-Ang):
   XX=           -120.1843   YY=           -107.5900   ZZ=           -123.4256
   XY=            -20.1537   XZ=              8.4887   YZ=             -2.5030

 Normal termination of Gaussian 09 at Fri Dec 30 13:08:15 2016.
