 Gaussian 09, Revision A.02,
 Gaussian 09:  EM64L-G09RevA.02 11-Jun-2009

 ----------------------------------------------------------------------
 # b3lyp/6-31G* Opt=(ModRedundant, maxcycles=1000, calcfc) geom=nocrowd
 ----------------------------------------------------------------------

 ------------------
 Phi Psi fixed scan
 ------------------
 Symbolic Z-matrix:
 Charge =  0 Multiplicity = 1

 SCF Done:  E(RB3LYP) =  -495.758140222     A.U. after   16 cycles

  Exact polarizability:   0.000   0.000   0.000   0.000   0.000   0.000
 Approx polarizability: 131.615   1.814 128.723   9.970  -5.024  88.946

 SCF Done:  E(RB3LYP) =  -495.782437622     A.U. after   14 cycles
 SCF Done:  E(RB3LYP) =  -495.800676303     A.U. after   16 cycles
 SCF Done:  E(RB3LYP) =  -495.812009544     A.U. after   13 cycles
 SCF Done:  E(RB3LYP) =  -495.814308208     A.U. after   16 cycles
 SCF Done:  E(RB3LYP) =  -495.792766424     A.U. after   15 cycles
 SCF Done:  E(RB3LYP) =  -495.815597830     A.U. after   14 cycles
 SCF Done:  E(RB3LYP) =  -495.817128157     A.U. after   12 cycles
 SCF Done:  E(RB3LYP) =  -495.819280086     A.U. after   12 cycles
 SCF Done:  E(RB3LYP) =  -495.820247129     A.U. after   12 cycles
 SCF Done:  E(RB3LYP) =  -495.831392592     A.U. after   13 cycles
 SCF Done:  E(RB3LYP) =  -495.831654600     A.U. after   12 cycles
 SCF Done:  E(RB3LYP) =  -495.831708635     A.U. after   12 cycles
 SCF Done:  E(RB3LYP) =  -495.831742043     A.U. after   11 cycles
 SCF Done:  E(RB3LYP) =  -495.831746864     A.U. after   10 cycles
 SCF Done:  E(RB3LYP) =  -495.831748442     A.U. after    8 cycles
 SCF Done:  E(RB3LYP) =  -495.831749347     A.U. after   10 cycles
 SCF Done:  E(RB3LYP) =  -495.831749666     A.U. after    7 cycles
 SCF Done:  E(RB3LYP) =  -495.831749752     A.U. after    7 cycles
 SCF Done:  E(RB3LYP) =  -495.831749783     A.U. after    6 cycles
 Optimization completed.
    -- Stationary point found.

                         Standard orientation:
 ---------------------------------------------------------------------
 Center     Atomic      Atomic             Coordinates (Angstroms)
 Number     Number       Type             X           Y           Z
 ---------------------------------------------------------------------
      1          1           0       -3.667068   -1.400995    0.562212
      2          6           0       -3.190191   -0.781920   -0.199258
      3          1           0       -3.854014    0.049308   -0.463199
      4          1           0       -3.032791   -1.392762   -1.096599
      5          6           0       -1.841268   -0.311002    0.319534
      6          8           0       -1.250372   -0.869580    1.227277
      7          7           0       -1.364242    0.854874   -0.270261
      8          1           0       -1.929814    1.155879   -1.055154
      9          6           0        0.067075    1.116479   -0.495533
     10          1           0        0.174873    1.382759   -1.554698
     11          6           0        0.520484    2.314362    0.354985
     12          1           0        0.486819    2.064336    1.421066
     13          1           0        1.529847    2.648227    0.087745
     14          1           0       -0.157475    3.157979    0.193704
     15          6           0        0.930404   -0.165709   -0.356710
     16          8           0        0.563047   -1.218998   -0.857274
     17          7           0        2.213253    0.022846    0.081557
     18          1           0        2.397750    0.812096    0.683644
     19          6           0        3.110598   -1.118586    0.198649
     20          1           0        3.013143   -1.730935   -0.699148
     21          1           0        4.138671   -0.756537    0.284514
     22          1           0        2.872962   -1.746510    1.066809
 ---------------------------------------------------------------------

 The electronic state is 1-A.
 Alpha  occ. eigenvalues --  -19.10331 -19.10330 -14.35810 -14.35189 -10.28127
 Alpha  occ. eigenvalues --  -10.27967 -10.24177 -10.21330 -10.19082 -10.18477
 Alpha  occ. eigenvalues --   -1.03166  -1.01624  -0.91614  -0.91378  -0.77868
 Alpha  occ. eigenvalues --   -0.72464  -0.69980  -0.64710  -0.58567  -0.56724
 Alpha  occ. eigenvalues --   -0.51879  -0.49713  -0.45998  -0.45119  -0.44058
 Alpha  occ. eigenvalues --   -0.43568  -0.42452  -0.41402  -0.39900  -0.38986
 Alpha  occ. eigenvalues --   -0.38788  -0.38140  -0.37468  -0.35901  -0.33304
 Alpha  occ. eigenvalues --   -0.25981  -0.24830  -0.24218  -0.23591
 Alpha virt. eigenvalues --    0.01993   0.03209   0.07329   0.08539   0.11791
 Alpha virt. eigenvalues --    0.13007   0.14372   0.14878   0.15607   0.16072
 Alpha virt. eigenvalues --    0.16755   0.17341   0.18324   0.19256   0.19511

 Mulliken atomic charges:
              1
     1  H    0.185165
     2  C   -0.551709
     3  H    0.150736
     4  H    0.187519
     5  C    0.609572
     6  O   -0.489822
     7  N   -0.586759
     8  H    0.315951
     9  C   -0.041253
    10  H    0.168474
    11  C   -0.463497
    12  H    0.172726
    13  H    0.141884
    14  H    0.157886
    15  C    0.627384
    16  O   -0.520458
    17  N   -0.602348
    18  H    0.330653
    19  C   -0.302092
    20  H    0.191689
    21  H    0.147345
    22  H    0.170952
 Sum of Mulliken atomic charges =   0.00000

 Dipole moment (field-independent basis, Debye):
    X=              0.8489    Y=              3.6348    Z=             -1.2885  Tot=              3.9487
 Quadrupole moment (field-independent basis, Debye-Ang):
   XX=            -47.0388   YY=            -60.8294   ZZ=            -61.6572
   XY=             -0.4785   XZ=              7.0177   YZ=             -1.0243

 Normal termination of Gaussian 09 at Fri Feb 10 20:01:43 2017.
