 Gaussian 09, Revision A.02,
 Gaussian 09:  EM64L-G09RevA.02 11-Jun-2009

 ----------------------------------------------------------------------
 # b3lyp/6-31G* Opt=(ModRedundant, maxcycles=1000, calcfc) geom=nocrowd
 ----------------------------------------------------------------------

 ------------------
 Phi Psi fixed scan
 ------------------
 Symbolic Z-matrix:
 Charge =  0 Multiplicity = 1

 SCF Done:  E(RB3LYP) =  -495.817603578     A.U. after   14 cycles

  Exact polarizability:   0.000   0.000   0.000   0.000   0.000   0.000
 Approx polarizability: 112.504  10.590 117.899   8.818   1.063 109.504

 SCF Done:  E(RB3LYP) =  -495.824012017     A.U. after   12 cycles
 SCF Done:  E(RB3LYP) =  -495.832719751     A.U. after   12 cycles
 SCF Done:  E(RB3LYP) =  -495.836693257     A.U. after   14 cycles
 SCF Done:  E(RB3LYP) =  -495.837356494     A.U. after   12 cycles
 SCF Done:  E(RB3LYP) =  -495.779547639     A.U. after   14 cycles
 SCF Done:  E(RB3LYP) =  -495.837632876     A.U. after   14 cycles
 SCF Done:  E(RB3LYP) =  -495.837947205     A.U. after   12 cycles
 SCF Done:  E(RB3LYP) =  -495.804192510     A.U. after   14 cycles
 SCF Done:  E(RB3LYP) =  -495.837997639     A.U. after   14 cycles
 SCF Done:  E(RB3LYP) =  -495.838251213     A.U. after   11 cycles
 SCF Done:  E(RB3LYP) =  -495.838320660     A.U. after   12 cycles
 SCF Done:  E(RB3LYP) =  -495.838367088     A.U. after   12 cycles
 SCF Done:  E(RB3LYP) =  -495.838381332     A.U. after   10 cycles
 SCF Done:  E(RB3LYP) =  -495.838393313     A.U. after   10 cycles
 SCF Done:  E(RB3LYP) =  -495.838405360     A.U. after   10 cycles
 SCF Done:  E(RB3LYP) =  -495.838420136     A.U. after   11 cycles
 SCF Done:  E(RB3LYP) =  -495.838422503     A.U. after    8 cycles
 SCF Done:  E(RB3LYP) =  -495.838423066     A.U. after    8 cycles
 SCF Done:  E(RB3LYP) =  -495.838423176     A.U. after    7 cycles
 Optimization completed.
    -- Stationary point found.

                         Standard orientation:
 ---------------------------------------------------------------------
 Center     Atomic      Atomic             Coordinates (Angstroms)
 Number     Number       Type             X           Y           Z
 ---------------------------------------------------------------------
      1          1           0        3.466684   -1.527373   -0.836936
      2          6           0        3.163282   -0.868833   -0.020370
      3          1           0        3.826100    0.002307    0.008868
      4          1           0        3.278969   -1.423577    0.918092
      5          6           0        1.695334   -0.508947   -0.202437
      6          8           0        0.885290   -1.305317   -0.659296
      7          7           0        1.364153    0.770963    0.163774
      8          1           0        2.093725    1.310939    0.609637
      9          6           0       -0.000994    1.269112    0.401583
     10          1           0        0.003117    1.729441    1.395027
     11          6           0       -0.371852    2.336351   -0.638663
     12          1           0       -0.315502    1.938676   -1.658095
     13          1           0       -1.382761    2.719005   -0.465368
     14          1           0        0.328850    3.176985   -0.582393
     15          6           0       -1.027145    0.115432    0.559476
     16          8           0       -1.133337   -0.447375    1.639845
     17          7           0       -1.864962   -0.120294   -0.494677
     18          1           0       -1.502058    0.129706   -1.404781
     19          6           0       -2.710833   -1.306266   -0.461510
     20          1           0       -3.223915   -1.344652    0.500501
     21          1           0       -3.449591   -1.241513   -1.264871
     22          1           0       -2.120330   -2.224184   -0.576218
 ---------------------------------------------------------------------

 The electronic state is 1-A.
 Alpha  occ. eigenvalues --  -19.11152 -19.10167 -14.36534 -14.34738 -10.29054
 Alpha  occ. eigenvalues --  -10.27742 -10.23952 -10.20369 -10.19388 -10.19139
 Alpha  occ. eigenvalues --   -1.03417  -1.01902  -0.92467  -0.90758  -0.78186
 Alpha  occ. eigenvalues --   -0.73056  -0.69366  -0.64816  -0.59334  -0.56290
 Alpha  occ. eigenvalues --   -0.52258  -0.49757  -0.46706  -0.45443  -0.43862
 Alpha  occ. eigenvalues --   -0.43530  -0.42159  -0.41337  -0.40155  -0.39822
 Alpha  occ. eigenvalues --   -0.38659  -0.37647  -0.37070  -0.36067  -0.34497
 Alpha  occ. eigenvalues --   -0.26170  -0.25361  -0.24542  -0.23206
 Alpha virt. eigenvalues --    0.01812   0.03291   0.06675   0.08977   0.11580
 Alpha virt. eigenvalues --    0.13250   0.13918   0.15290   0.15472   0.16141
 Alpha virt. eigenvalues --    0.16850   0.17663   0.18294   0.19180   0.20052

 Mulliken atomic charges:
              1
     1  H    0.187105
     2  C   -0.543323
     3  H    0.147125
     4  H    0.190078
     5  C    0.603754
     6  O   -0.511080
     7  N   -0.596525
     8  H    0.323839
     9  C   -0.033636
    10  H    0.169467
    11  C   -0.447276
    12  H    0.151002
    13  H    0.164563
    14  H    0.145999
    15  C    0.608197
    16  O   -0.516340
    17  N   -0.571349
    18  H    0.328256
    19  C   -0.306490
    20  H    0.185962
    21  H    0.144172
    22  H    0.176499
 Sum of Mulliken atomic charges =   0.00000

 Dipole moment (field-independent basis, Debye):
    X=              1.9260    Y=              3.0506    Z=             -1.6063  Tot=              3.9491
 Quadrupole moment (field-independent basis, Debye-Ang):
   XX=            -50.4328   YY=            -58.8795   ZZ=            -63.0848
   XY=              2.5787   XZ=              6.7128   YZ=              1.8066

 Normal termination of Gaussian 09 at Fri Feb 10 20:03:01 2017.
