 Gaussian 09, Revision A.02,
 Gaussian 09:  EM64L-G09RevA.02 11-Jun-2009

 ----------------------------------------------------------------------
 # b3lyp/6-31G* Opt=(ModRedundant, maxcycles=1000, calcfc) geom=nocrowd
 ----------------------------------------------------------------------

 ------------------
 Phi Psi fixed scan
 ------------------
 Symbolic Z-matrix:
 Charge =  0 Multiplicity = 1

 SCF Done:  E(RB3LYP) =  -495.061980425     A.U. after   22 cycles

  Exact polarizability:   0.000   0.000   0.000   0.000   0.000   0.000
 Approx polarizability: 365.407 -71.479 178.250  -3.163 -14.254  87.223

 SCF Done:  E(RB3LYP) =  -495.237330379     A.U. after   20 cycles
 SCF Done:  E(RB3LYP) =  -495.449857789     A.U. after   18 cycles
 SCF Done:  E(RB3LYP) =  -495.629437640     A.U. after   15 cycles
 SCF Done:  E(RB3LYP) =  -495.759106237     A.U. after   16 cycles
 SCF Done:  E(RB3LYP) =  -495.789449994     A.U. after   14 cycles
 SCF Done:  E(RB3LYP) =  -495.801595217     A.U. after   14 cycles
 SCF Done:  E(RB3LYP) =  -495.801562303     A.U. after   13 cycles
 SCF Done:  E(RB3LYP) =  -495.803446897     A.U. after   12 cycles
 SCF Done:  E(RB3LYP) =  -495.803133883     A.U. after   13 cycles
 SCF Done:  E(RB3LYP) =  -495.841620932     A.U. after   12 cycles
 SCF Done:  E(RB3LYP) =  -495.841684191     A.U. after   11 cycles
 SCF Done:  E(RB3LYP) =  -495.841736444     A.U. after   11 cycles
 SCF Done:  E(RB3LYP) =  -495.841743503     A.U. after   10 cycles
 SCF Done:  E(RB3LYP) =  -495.841744779     A.U. after    8 cycles
 SCF Done:  E(RB3LYP) =  -495.841745174     A.U. after    7 cycles
 SCF Done:  E(RB3LYP) =  -495.841745311     A.U. after    7 cycles
 SCF Done:  E(RB3LYP) =  -495.841745384     A.U. after    7 cycles
 SCF Done:  E(RB3LYP) =  -495.841745455     A.U. after    7 cycles
 SCF Done:  E(RB3LYP) =  -495.841745486     A.U. after    6 cycles
 Optimization completed.
    -- Stationary point found.

                         Standard orientation:
 ---------------------------------------------------------------------
 Center     Atomic      Atomic             Coordinates (Angstroms)
 Number     Number       Type             X           Y           Z
 ---------------------------------------------------------------------
      1          1           0       -3.667621   -1.258490   -0.856819
      2          6           0       -3.391054   -0.461241   -0.160083
      3          1           0       -3.854912   -0.695601    0.802559
      4          1           0       -3.794426    0.487049   -0.527867
      5          6           0       -1.877318   -0.480277    0.018672
      6          8           0       -1.338892   -1.497059    0.462535
      7          7           0       -1.251555    0.673440   -0.337550
      8          1           0       -1.885337    1.388189   -0.669331
      9          6           0        0.144627    1.184952   -0.345982
     10          1           0        0.281930    1.611976   -1.346925
     11          6           0        0.245766    2.331699    0.677483
     12          1           0        0.092637    1.951224    1.693147
     13          1           0        1.235640    2.786267    0.612845
     14          1           0       -0.513025    3.098424    0.480670
     15          6           0        1.401560    0.284171   -0.194030
     16          8           0        2.481310    0.869058   -0.284653
     17          7           0        1.286106   -1.045728   -0.042418
     18          1           0        0.363914   -1.433952    0.173868
     19          6           0        2.477107   -1.868169    0.089880
     20          1           0        3.192658   -1.619270   -0.698244
     21          1           0        2.975424   -1.714462    1.055616
     22          1           0        2.187780   -2.918136    0.001566
 ---------------------------------------------------------------------

 The electronic state is 1-A.
 Alpha  occ. eigenvalues --  -19.12799 -19.09627 -14.38095 -14.33769 -10.30839
 Alpha  occ. eigenvalues --  -10.27668 -10.24725 -10.20454 -10.20454 -10.18500
 Alpha  occ. eigenvalues --   -1.04593  -1.01778  -0.93871  -0.90179  -0.78694
 Alpha  occ. eigenvalues --   -0.73612  -0.69961  -0.64679  -0.60377  -0.56253
 Alpha  occ. eigenvalues --   -0.52642  -0.50682  -0.47477  -0.46142  -0.44729
 Alpha  occ. eigenvalues --   -0.43450  -0.42452  -0.41712  -0.41136  -0.40460
 Alpha  occ. eigenvalues --   -0.38555  -0.37703  -0.36914  -0.36211  -0.34314
 Alpha  occ. eigenvalues --   -0.26831  -0.26812  -0.24070  -0.23612
 Alpha virt. eigenvalues --    0.01450   0.03337   0.05496   0.11065   0.12407
 Alpha virt. eigenvalues --    0.12903   0.13801   0.15339   0.15738   0.16358
 Alpha virt. eigenvalues --    0.16548   0.17295   0.18334   0.19243   0.20236

 Mulliken atomic charges:
              1
     1  H    0.191550
     2  C   -0.531518
     3  H    0.192475
     4  H    0.145904
     5  C    0.606348
     6  O   -0.529271
     7  N   -0.604757
     8  H    0.330130
     9  C   -0.046322
    10  H    0.178363
    11  C   -0.442348
    12  H    0.159376
    13  H    0.194237
    14  H    0.130260
    15  C    0.608070
    16  O   -0.541660
    17  N   -0.626791
    18  H    0.391770
    19  C   -0.296815
    20  H    0.177332
    21  H    0.162423
    22  H    0.151246
 Sum of Mulliken atomic charges =   0.00000

 Dipole moment (field-independent basis, Debye):
    X=             -4.0519    Y=              0.9560    Z=             -0.7590  Tot=              4.2318
 Quadrupole moment (field-independent basis, Debye-Ang):
   XX=            -60.1608   YY=            -58.7742   ZZ=            -59.6032
   XY=             -9.4391   XZ=              3.5470   YZ=              0.3275

 Normal termination of Gaussian 09 at Fri Feb 10 20:05:23 2017.
