 Gaussian 09, Revision A.02,
 Gaussian 09:  EM64L-G09RevA.02 11-Jun-2009

 ----------------------------------------------------------------------
 # b3lyp/6-31G* Opt=(ModRedundant, maxcycles=1000, calcfc) geom=nocrowd
 ----------------------------------------------------------------------

 ------------------
 Phi Psi fixed scan
 ------------------
 Symbolic Z-matrix:
 Charge =  0 Multiplicity = 1

 SCF Done:  E(RB3LYP) =  -495.701801227     A.U. after   19 cycles

  Exact polarizability:   0.000   0.000   0.000   0.000   0.000   0.000
 Approx polarizability: 137.438   5.324 121.917  -7.376 -25.230 106.631

 SCF Done:  E(RB3LYP) =  -495.731319454     A.U. after   14 cycles
 SCF Done:  E(RB3LYP) =  -495.772628470     A.U. after   14 cycles
 SCF Done:  E(RB3LYP) =  -495.798917890     A.U. after   14 cycles
 SCF Done:  E(RB3LYP) =  -495.810587933     A.U. after   13 cycles
 SCF Done:  E(RB3LYP) =  -495.808301860     A.U. after   15 cycles
 SCF Done:  E(RB3LYP) =  -495.810858857     A.U. after   15 cycles
 SCF Done:  E(RB3LYP) =  -495.814963584     A.U. after   12 cycles
 SCF Done:  E(RB3LYP) =  -495.819635219     A.U. after   13 cycles
 SCF Done:  E(RB3LYP) =  -495.821921442     A.U. after   14 cycles
 SCF Done:  E(RB3LYP) =  -495.827439728     A.U. after   10 cycles
 SCF Done:  E(RB3LYP) =  -495.827441236     A.U. after    9 cycles
 SCF Done:  E(RB3LYP) =  -495.827441347     A.U. after   10 cycles
 SCF Done:  E(RB3LYP) =  -495.827433949     A.U. after   10 cycles
 SCF Done:  E(RB3LYP) =  -495.827441648     A.U. after   10 cycles
 SCF Done:  E(RB3LYP) =  -495.827440712     A.U. after   10 cycles
 SCF Done:  E(RB3LYP) =  -495.827442100     A.U. after   10 cycles
 SCF Done:  E(RB3LYP) =  -495.827442137     A.U. after    7 cycles
 SCF Done:  E(RB3LYP) =  -495.827442097     A.U. after    7 cycles
 SCF Done:  E(RB3LYP) =  -495.827442145     A.U. after    7 cycles
 Optimization completed.
    -- Stationary point found.

                         Standard orientation:
 ---------------------------------------------------------------------
 Center     Atomic      Atomic             Coordinates (Angstroms)
 Number     Number       Type             X           Y           Z
 ---------------------------------------------------------------------
      1          1           0       -3.544900    0.038519    1.080524
      2          6           0       -3.395296   -0.428015    0.098963
      3          1           0       -3.892609    0.197909   -0.651367
      4          1           0       -3.859125   -1.415350    0.109314
      5          6           0       -1.902651   -0.592695   -0.174756
      6          8           0       -1.332643   -1.659330   -0.048414
      7          7           0       -1.295783    0.564034   -0.652214
      8          1           0       -1.933863    1.351329   -0.684988
      9          6           0        0.080967    1.036282   -0.443202
     10          1           0        0.450317    1.396498   -1.414122
     11          6           0        0.091364    2.215108    0.546547
     12          1           0       -0.221053    1.866628    1.534869
     13          1           0        1.097424    2.640304    0.626636
     14          1           0       -0.586288    3.010185    0.211584
     15          6           0        1.073085   -0.013108    0.102659
     16          8           0        0.903845   -0.577417    1.170697
     17          7           0        2.281479   -0.011348   -0.549408
     18          1           0        2.297335    0.296223   -1.512353
     19          6           0        3.356970   -0.889276   -0.113188
     20          1           0        3.324208   -0.948712    0.975584
     21          1           0        3.254960   -1.905689   -0.515198
     22          1           0        4.317473   -0.472449   -0.429529
 ---------------------------------------------------------------------

 The electronic state is 1-A.
 Alpha  occ. eigenvalues --  -19.10559 -19.10126 -14.36118 -14.35386 -10.28285
 Alpha  occ. eigenvalues --  -10.28016 -10.24320 -10.21484 -10.19212 -10.18604
 Alpha  occ. eigenvalues --   -1.03071  -1.01724  -0.91953  -0.91477  -0.78007
 Alpha  occ. eigenvalues --   -0.72397  -0.70714  -0.64193  -0.59164  -0.56893
 Alpha  occ. eigenvalues --   -0.50596  -0.49358  -0.47391  -0.45917  -0.43907
 Alpha  occ. eigenvalues --   -0.43657  -0.42274  -0.41476  -0.39960  -0.39009
 Alpha  occ. eigenvalues --   -0.38850  -0.37890  -0.37545  -0.35810  -0.34026
 Alpha  occ. eigenvalues --   -0.25785  -0.24994  -0.24356  -0.22982
 Alpha virt. eigenvalues --    0.02344   0.03239   0.06120   0.08152   0.12416
 Alpha virt. eigenvalues --    0.12496   0.13412   0.15454   0.15501   0.16067
 Alpha virt. eigenvalues --    0.16399   0.17715   0.18146   0.18325   0.19709

 Mulliken atomic charges:
              1
     1  H    0.175384
     2  C   -0.549145
     3  H    0.152704
     4  H    0.186766
     5  C    0.591897
     6  O   -0.470284
     7  N   -0.599023
     8  H    0.311820
     9  C   -0.019324
    10  H    0.129023
    11  C   -0.457730
    12  H    0.185489
    13  H    0.160228
    14  H    0.138883
    15  C    0.625089
    16  O   -0.501073
    17  N   -0.593471
    18  H    0.322814
    19  C   -0.305043
    20  H    0.197713
    21  H    0.167224
    22  H    0.150057
 Sum of Mulliken atomic charges =   0.00000

 Dipole moment (field-independent basis, Debye):
    X=              0.5402    Y=              4.2334    Z=             -2.5836  Tot=              4.9888
 Quadrupole moment (field-independent basis, Debye-Ang):
   XX=            -46.4298   YY=            -62.2609   ZZ=            -60.5201
   XY=             -4.6826   XZ=             -4.2025   YZ=              0.5976

 Normal termination of Gaussian 09 at Fri Feb 10 20:33:45 2017.
