 Gaussian 09, Revision A.02,
 Gaussian 09:  EM64L-G09RevA.02 11-Jun-2009

 ----------------------------------------------------------------------
 # b3lyp/6-31G* Opt=(ModRedundant, maxcycles=1000, calcfc) geom=nocrowd
 ----------------------------------------------------------------------

 ------------------
 Phi Psi fixed scan
 ------------------
 Symbolic Z-matrix:
 Charge =  0 Multiplicity = 1

 SCF Done:  E(RB3LYP) =  -495.555685974     A.U. after   23 cycles

  Exact polarizability:   0.000   0.000   0.000   0.000   0.000   0.000
 Approx polarizability: 232.927  18.746 152.004 -12.281 -28.820  98.240

 SCF Done:  E(RB3LYP) =  -495.636817664     A.U. after   18 cycles
 SCF Done:  E(RB3LYP) =  -495.718640876     A.U. after   15 cycles
 SCF Done:  E(RB3LYP) =  -495.778397326     A.U. after   16 cycles
 SCF Done:  E(RB3LYP) =  -495.804086198     A.U. after   14 cycles
 SCF Done:  E(RB3LYP) =  -495.808628507     A.U. after   15 cycles
 SCF Done:  E(RB3LYP) =  -495.500008529     A.U. after   15 cycles
 SCF Done:  E(RB3LYP) =  -495.809175650     A.U. after   15 cycles
 SCF Done:  E(RB3LYP) =  -495.813336019     A.U. after   13 cycles
 SCF Done:  E(RB3LYP) =  -495.814752655     A.U. after   14 cycles
 SCF Done:  E(RB3LYP) =  -495.819002149     A.U. after   12 cycles
 SCF Done:  E(RB3LYP) =  -495.819035411     A.U. after   12 cycles
 SCF Done:  E(RB3LYP) =  -495.819044472     A.U. after   10 cycles
 SCF Done:  E(RB3LYP) =  -495.819059575     A.U. after   11 cycles
 SCF Done:  E(RB3LYP) =  -495.819073402     A.U. after   11 cycles
 SCF Done:  E(RB3LYP) =  -495.819086707     A.U. after   11 cycles
 SCF Done:  E(RB3LYP) =  -495.819088896     A.U. after   10 cycles
 SCF Done:  E(RB3LYP) =  -495.819089348     A.U. after    9 cycles
 SCF Done:  E(RB3LYP) =  -495.819089505     A.U. after    7 cycles
 SCF Done:  E(RB3LYP) =  -495.819089488     A.U. after    6 cycles
 Optimization completed.
    -- Stationary point found.

                         Standard orientation:
 ---------------------------------------------------------------------
 Center     Atomic      Atomic             Coordinates (Angstroms)
 Number     Number       Type             X           Y           Z
 ---------------------------------------------------------------------
      1          1           0       -2.867975   -1.269645   -1.587483
      2          6           0       -3.228850   -0.670108   -0.742511
      3          1           0       -3.924291   -1.271828   -0.156001
      4          1           0       -3.758320    0.200079   -1.149690
      5          6           0       -2.057011   -0.267648    0.149613
      6          8           0       -1.869338   -0.768361    1.237903
      7          7           0       -1.310225    0.802654   -0.366668
      8          1           0       -1.687235    1.090519   -1.262117
      9          6           0        0.150870    1.008485   -0.373229
     10          1           0        0.407659    1.328366   -1.389951
     11          6           0        0.494613    2.155103    0.607545
     12          1           0        0.247256    1.843829    1.626953
     13          1           0        1.553969    2.434572    0.576748
     14          1           0       -0.102606    3.039782    0.366695
     15          6           0        1.046015   -0.219120   -0.062085
     16          8           0        0.661150   -1.294782    0.357376
     17          7           0        2.357598    0.003733   -0.416939
     18          1           0        2.641367    0.936495   -0.680158
     19          6           0        3.401453   -0.969918   -0.144622
     20          1           0        2.916302   -1.932549    0.021197
     21          1           0        4.080107   -1.047448   -1.000534
     22          1           0        3.985110   -0.712503    0.749104
 ---------------------------------------------------------------------

 The electronic state is 1-A.
 Alpha  occ. eigenvalues --  -19.11031 -19.09942 -14.36095 -14.34990 -10.28678
 Alpha  occ. eigenvalues --  -10.27799 -10.24680 -10.21724 -10.18900 -10.18413
 Alpha  occ. eigenvalues --   -1.03380  -1.01574  -0.92009  -0.91257  -0.78026
 Alpha  occ. eigenvalues --   -0.72336  -0.70389  -0.64384  -0.59016  -0.56562
 Alpha  occ. eigenvalues --   -0.51786  -0.49092  -0.45668  -0.45433  -0.44759
 Alpha  occ. eigenvalues --   -0.43951  -0.42566  -0.41310  -0.40347  -0.39019
 Alpha  occ. eigenvalues --   -0.38799  -0.38024  -0.37309  -0.35740  -0.33739
 Alpha  occ. eigenvalues --   -0.26487  -0.25006  -0.24391  -0.22245
 Alpha virt. eigenvalues --    0.02077   0.03394   0.05637   0.07776   0.11985
 Alpha virt. eigenvalues --    0.12709   0.14225   0.14728   0.15835   0.16281
 Alpha virt. eigenvalues --    0.16473   0.16886   0.17600   0.18967   0.19461

 Mulliken atomic charges:
              1
     1  H    0.172805
     2  C   -0.552407
     3  H    0.186766
     4  H    0.153544
     5  C    0.596802
     6  O   -0.455680
     7  N   -0.599569
     8  H    0.313148
     9  C   -0.058731
    10  H    0.145478
    11  C   -0.432673
    12  H    0.188017
    13  H    0.128836
    14  H    0.155251
    15  C    0.606737
    16  O   -0.483377
    17  N   -0.593689
    18  H    0.320405
    19  C   -0.307953
    20  H    0.205493
    21  H    0.152934
    22  H    0.157862
 Sum of Mulliken atomic charges =   0.00000

 Dipole moment (field-independent basis, Debye):
    X=              2.2741    Y=              3.6309    Z=             -4.1521  Tot=              5.9662
 Quadrupole moment (field-independent basis, Debye-Ang):
   XX=            -48.9804   YY=            -60.9445   ZZ=            -60.9465
   XY=              0.1028   XZ=              5.0789   YZ=              1.1169

 Normal termination of Gaussian 09 at Fri Feb 10 20:44:37 2017.
