 Gaussian 09, Revision A.02,
 Gaussian 09:  EM64L-G09RevA.02 11-Jun-2009

 ----------------------------------------------------------------------
 # b3lyp/6-31G* Opt=(ModRedundant, maxcycles=1000, calcfc) geom=nocrowd
 ----------------------------------------------------------------------

 ------------------
 Phi Psi fixed scan
 ------------------
 Symbolic Z-matrix:
 Charge =  0 Multiplicity = 1

 SCF Done:  E(RB3LYP) =  -495.733314625     A.U. after   16 cycles

  Exact polarizability:   0.000   0.000   0.000   0.000   0.000   0.000
 Approx polarizability: 132.446  -2.722 129.340  14.161   7.544  94.848

 SCF Done:  E(RB3LYP) =  -495.763909313     A.U. after   13 cycles
 SCF Done:  E(RB3LYP) =  -495.795856807     A.U. after   16 cycles
 SCF Done:  E(RB3LYP) =  -495.825732722     A.U. after   14 cycles
 SCF Done:  E(RB3LYP) =  -495.832995248     A.U. after   14 cycles
 SCF Done:  E(RB3LYP) =  -495.836064945     A.U. after   14 cycles
 SCF Done:  E(RB3LYP) =  -495.838172115     A.U. after   14 cycles
 SCF Done:  E(RB3LYP) =  -495.838419219     A.U. after   14 cycles
 SCF Done:  E(RB3LYP) =  -495.833625822     A.U. after   13 cycles
 SCF Done:  E(RB3LYP) =  -495.839095779     A.U. after   13 cycles
 SCF Done:  E(RB3LYP) =  -495.840135652     A.U. after    9 cycles
 SCF Done:  E(RB3LYP) =  -495.840138550     A.U. after    8 cycles
 SCF Done:  E(RB3LYP) =  -495.840143788     A.U. after    9 cycles
 SCF Done:  E(RB3LYP) =  -495.840149575     A.U. after   10 cycles
 SCF Done:  E(RB3LYP) =  -495.840153673     A.U. after   10 cycles
 SCF Done:  E(RB3LYP) =  -495.840155286     A.U. after   10 cycles
 SCF Done:  E(RB3LYP) =  -495.840155802     A.U. after    8 cycles
 SCF Done:  E(RB3LYP) =  -495.840156070     A.U. after    8 cycles
 SCF Done:  E(RB3LYP) =  -495.840156322     A.U. after    8 cycles
 SCF Done:  E(RB3LYP) =  -495.840156601     A.U. after    8 cycles
 Optimization completed.
    -- Stationary point found.

                         Standard orientation:
 ---------------------------------------------------------------------
 Center     Atomic      Atomic             Coordinates (Angstroms)
 Number     Number       Type             X           Y           Z
 ---------------------------------------------------------------------
      1          1           0       -3.753542   -0.643878    0.987624
      2          6           0       -3.344228   -0.575155   -0.025186
      3          1           0       -3.793081    0.285929   -0.529715
      4          1           0       -3.631068   -1.488714   -0.553991
      5          6           0       -1.823873   -0.529759    0.073648
      6          8           0       -1.215903   -1.474249    0.578954
      7          7           0       -1.255137    0.597938   -0.434745
      8          1           0       -1.918836    1.259997   -0.813800
      9          6           0        0.115768    1.162182   -0.440426
     10          1           0        0.312364    1.432133   -1.488057
     11          6           0        0.112163    2.450697    0.395386
     12          1           0       -0.099633    2.223699    1.445247
     13          1           0        1.089237    2.930944    0.335523
     14          1           0       -0.653402    3.145642    0.029783
     15          6           0        1.359148    0.303038   -0.070041
     16          8           0        2.377169    0.905632    0.259347
     17          7           0        1.334168   -1.028212   -0.327423
     18          1           0        0.430807   -1.481049   -0.182390
     19          6           0        2.525685   -1.817231   -0.043918
     20          1           0        3.389859   -1.362424   -0.532992
     21          1           0        2.739459   -1.877822    1.031251
     22          1           0        2.376511   -2.826232   -0.436502
 ---------------------------------------------------------------------

 The electronic state is 1-A.
 Alpha  occ. eigenvalues --  -19.12437 -19.10417 -14.37940 -14.33747 -10.30591
 Alpha  occ. eigenvalues --  -10.27978 -10.24759 -10.20342 -10.20323 -10.18272
 Alpha  occ. eigenvalues --   -1.04381  -1.02315  -0.93755  -0.90237  -0.78600
 Alpha  occ. eigenvalues --   -0.73490  -0.69901  -0.64431  -0.60358  -0.55759
 Alpha  occ. eigenvalues --   -0.52438  -0.50501  -0.47725  -0.46136  -0.44710
 Alpha  occ. eigenvalues --   -0.43531  -0.42221  -0.41534  -0.41241  -0.40042
 Alpha  occ. eigenvalues --   -0.38205  -0.37918  -0.36818  -0.35989  -0.34863
 Alpha  occ. eigenvalues --   -0.26956  -0.26496  -0.24652  -0.23701
 Alpha virt. eigenvalues --    0.01487   0.02401   0.05774   0.10861   0.12341
 Alpha virt. eigenvalues --    0.13424   0.13749   0.15012   0.15625   0.16398
 Alpha virt. eigenvalues --    0.16739   0.17411   0.18357   0.19016   0.20651

 Mulliken atomic charges:
              1
     1  H    0.192384
     2  C   -0.532443
     3  H    0.145412
     4  H    0.190274
     5  C    0.602828
     6  O   -0.529192
     7  N   -0.601432
     8  H    0.328318
     9  C   -0.050132
    10  H    0.178770
    11  C   -0.437589
    12  H    0.161842
    13  H    0.192147
    14  H    0.125157
    15  C    0.601630
    16  O   -0.524650
    17  N   -0.606948
    18  H    0.374714
    19  C   -0.300007
    20  H    0.177594
    21  H    0.162118
    22  H    0.149204
 Sum of Mulliken atomic charges =   0.00000

 Dipole moment (field-independent basis, Debye):
    X=             -3.8712    Y=              0.8664    Z=             -1.8334  Tot=              4.3701
 Quadrupole moment (field-independent basis, Debye-Ang):
   XX=            -58.4529   YY=            -59.0219   ZZ=            -60.0932
   XY=             -8.3427   XZ=              0.7853   YZ=             -0.4606

 Normal termination of Gaussian 09 at Fri Feb 10 20:13:10 2017.
