 Gaussian 09, Revision A.02,
 Gaussian 09:  EM64L-G09RevA.02 11-Jun-2009

 ----------------------------------------------------------------------
 # b3lyp/6-31G* Opt=(ModRedundant, maxcycles=1000, calcfc) geom=nocrowd
 ----------------------------------------------------------------------

 ------------------
 Phi Psi fixed scan
 ------------------
 Symbolic Z-matrix:
 Charge =  0 Multiplicity = 1

 SCF Done:  E(RB3LYP) =  -495.567192811     A.U. after   18 cycles

  Exact polarizability:   0.000   0.000   0.000   0.000   0.000   0.000
 Approx polarizability: 185.443  -2.291 139.764   4.566 -11.346  89.431

 SCF Done:  E(RB3LYP) =  -495.618192262     A.U. after   15 cycles
 SCF Done:  E(RB3LYP) =  -495.698202461     A.U. after   15 cycles
 SCF Done:  E(RB3LYP) =  -495.776516502     A.U. after   15 cycles
 SCF Done:  E(RB3LYP) =  -495.806893213     A.U. after   15 cycles
 SCF Done:  E(RB3LYP) =  -495.810834681     A.U. after   13 cycles
 SCF Done:  E(RB3LYP) =  -495.825773528     A.U. after   13 cycles
 SCF Done:  E(RB3LYP) =  -495.836401439     A.U. after   14 cycles
 SCF Done:  E(RB3LYP) =  -495.836540504     A.U. after   15 cycles
 SCF Done:  E(RB3LYP) =  -495.839148327     A.U. after   14 cycles
 SCF Done:  E(RB3LYP) =  -495.841046945     A.U. after   11 cycles
 SCF Done:  E(RB3LYP) =  -495.841057855     A.U. after   10 cycles
 SCF Done:  E(RB3LYP) =  -495.841070626     A.U. after   10 cycles
 SCF Done:  E(RB3LYP) =  -495.841091628     A.U. after   11 cycles
 SCF Done:  E(RB3LYP) =  -495.841116864     A.U. after   11 cycles
 SCF Done:  E(RB3LYP) =  -495.841141288     A.U. after   11 cycles
 SCF Done:  E(RB3LYP) =  -495.841146521     A.U. after   10 cycles
 SCF Done:  E(RB3LYP) =  -495.841147135     A.U. after    9 cycles
 SCF Done:  E(RB3LYP) =  -495.841147342     A.U. after    7 cycles
 SCF Done:  E(RB3LYP) =  -495.841147432     A.U. after    7 cycles
 Optimization completed.
    -- Stationary point found.

                         Standard orientation:
 ---------------------------------------------------------------------
 Center     Atomic      Atomic             Coordinates (Angstroms)
 Number     Number       Type             X           Y           Z
 ---------------------------------------------------------------------
      1          1           0       -3.663890   -1.355005   -0.718372
      2          6           0       -3.374563   -0.502674   -0.096373
      3          1           0       -3.812728   -0.659689    0.893932
      4          1           0       -3.792821    0.411590   -0.528189
      5          6           0       -1.856859   -0.500916    0.045203
      6          8           0       -1.294244   -1.489095    0.521269
      7          7           0       -1.249371    0.637689   -0.385212
      8          1           0       -1.893922    1.330546   -0.741728
      9          6           0        0.136601    1.172093   -0.391212
     10          1           0        0.302716    1.517973   -1.420455
     11          6           0        0.182117    2.398270    0.536503
     12          1           0       -0.012227    2.100052    1.572217
     13          1           0        1.169616    2.857944    0.481415
     14          1           0       -0.574468    3.135728    0.243017
     15          6           0        1.391864    0.292024   -0.128457
     16          8           0        2.459082    0.893968   -0.019874
     17          7           0        1.298725   -1.052081   -0.179251
     18          1           0        0.382885   -1.463238    0.017683
     19          6           0        2.491999   -1.859329    0.023316
     20          1           0        3.291387   -1.507304   -0.633150
     21          1           0        2.857567   -1.805066    1.057037
     22          1           0        2.254753   -2.898585   -0.217203
 ---------------------------------------------------------------------

 The electronic state is 1-A.
 Alpha  occ. eigenvalues --  -19.12681 -19.09951 -14.38058 -14.33737 -10.30766
 Alpha  occ. eigenvalues --  -10.27808 -10.24776 -10.20422 -10.20393 -10.18354
 Alpha  occ. eigenvalues --   -1.04530  -1.02004  -0.93850  -0.90196  -0.78659
 Alpha  occ. eigenvalues --   -0.73561  -0.69944  -0.64560  -0.60386  -0.56039
 Alpha  occ. eigenvalues --   -0.52565  -0.50622  -0.47632  -0.46138  -0.44690
 Alpha  occ. eigenvalues --   -0.43523  -0.42333  -0.41633  -0.41235  -0.40239
 Alpha  occ. eigenvalues --   -0.38367  -0.37868  -0.36867  -0.36088  -0.34539
 Alpha  occ. eigenvalues --   -0.26902  -0.26656  -0.24338  -0.23676
 Alpha virt. eigenvalues --    0.01461   0.02909   0.05630   0.10967   0.12418
 Alpha virt. eigenvalues --    0.13184   0.13751   0.15187   0.15638   0.16402
 Alpha virt. eigenvalues --    0.16621   0.17332   0.18396   0.19196   0.20448

 Mulliken atomic charges:
              1
     1  H    0.191069
     2  C   -0.531753
     3  H    0.192601
     4  H    0.145736
     5  C    0.605107
     6  O   -0.529499
     7  N   -0.603597
     8  H    0.329458
     9  C   -0.049354
    10  H    0.179429
    11  C   -0.441293
    12  H    0.159788
    13  H    0.195327
    14  H    0.127388
    15  C    0.607701
    16  O   -0.535113
    17  N   -0.620648
    18  H    0.385973
    19  C   -0.298166
    20  H    0.177597
    21  H    0.161900
    22  H    0.150352
 Sum of Mulliken atomic charges =   0.00000

 Dipole moment (field-independent basis, Debye):
    X=             -3.9963    Y=              0.9049    Z=             -1.2932  Tot=              4.2967
 Quadrupole moment (field-independent basis, Debye-Ang):
   XX=            -59.6282   YY=            -58.9683   ZZ=            -59.6353
   XY=             -9.0684   XZ=              2.1506   YZ=             -0.1015

 Normal termination of Gaussian 09 at Fri Feb 10 20:07:09 2017.
