 Gaussian 09, Revision A.02,
 Gaussian 09:  EM64L-G09RevA.02 11-Jun-2009

 ----------------------------------------------------------------------
 # b3lyp/6-31G* Opt=(ModRedundant, maxcycles=1000, calcfc) geom=nocrowd
 ----------------------------------------------------------------------

 ------------------
 Phi Psi fixed scan
 ------------------
 Symbolic Z-matrix:
 Charge =  0 Multiplicity = 1

 SCF Done:  E(RB3LYP) =  -495.796119458     A.U. after   15 cycles

  Exact polarizability:   0.000   0.000   0.000   0.000   0.000   0.000
 Approx polarizability: 110.138  12.916 119.459  -3.746  10.602 111.888

 SCF Done:  E(RB3LYP) =  -495.811657467     A.U. after   14 cycles
 SCF Done:  E(RB3LYP) =  -495.820005233     A.U. after   15 cycles
 SCF Done:  E(RB3LYP) =  -495.831167511     A.U. after   15 cycles
 SCF Done:  E(RB3LYP) =  -495.832697048     A.U. after   12 cycles
 SCF Done:  E(RB3LYP) =  -495.835227077     A.U. after   12 cycles
 SCF Done:  E(RB3LYP) =  -495.837543867     A.U. after   13 cycles
 SCF Done:  E(RB3LYP) =  -495.838175589     A.U. after   13 cycles
 SCF Done:  E(RB3LYP) =  -495.806035200     A.U. after   14 cycles
 SCF Done:  E(RB3LYP) =  -495.838548346     A.U. after   14 cycles
 SCF Done:  E(RB3LYP) =  -495.838983422     A.U. after    7 cycles
 SCF Done:  E(RB3LYP) =  -495.838983560     A.U. after    7 cycles
 SCF Done:  E(RB3LYP) =  -495.838983748     A.U. after    7 cycles
 SCF Done:  E(RB3LYP) =  -495.838984011     A.U. after    8 cycles
 SCF Done:  E(RB3LYP) =  -495.838984407     A.U. after    8 cycles
 SCF Done:  E(RB3LYP) =  -495.838984625     A.U. after    8 cycles
 SCF Done:  E(RB3LYP) =  -495.838984719     A.U. after    7 cycles
 SCF Done:  E(RB3LYP) =  -495.838984817     A.U. after    7 cycles
 SCF Done:  E(RB3LYP) =  -495.838984940     A.U. after    7 cycles
 SCF Done:  E(RB3LYP) =  -495.838985031     A.U. after    7 cycles
 Optimization completed.
    -- Stationary point found.

                         Standard orientation:
 ---------------------------------------------------------------------
 Center     Atomic      Atomic             Coordinates (Angstroms)
 Number     Number       Type             X           Y           Z
 ---------------------------------------------------------------------
      1          1           0        3.705611   -1.317931   -0.549783
      2          6           0        3.270267   -0.718449    0.253465
      3          1           0        3.837935    0.211540    0.358275
      4          1           0        3.366909   -1.291955    1.182014
      5          6           0        1.789580   -0.513266   -0.039659
      6          8           0        1.090132   -1.446366   -0.426541
      7          7           0        1.339738    0.763754    0.137183
      8          1           0        2.027442    1.421849    0.477973
      9          6           0       -0.043954    1.276183    0.231927
     10          1           0       -0.074724    1.882126    1.141361
     11          6           0       -0.364725    2.168821   -0.978849
     12          1           0       -0.339025    1.591973   -1.907669
     13          1           0       -1.361602    2.609699   -0.873873
     14          1           0        0.364792    2.983446   -1.057870
     15          6           0       -1.181492    0.247202    0.477961
     16          8           0       -1.801697    0.303812    1.533437
     17          7           0       -1.560167   -0.536115   -0.575356
     18          1           0       -0.774770   -0.857235   -1.134280
     19          6           0       -2.611681   -1.523007   -0.360766
     20          1           0       -3.470105   -1.034937    0.103813
     21          1           0       -2.909407   -1.936082   -1.328084
     22          1           0       -2.285498   -2.340439    0.295695
 ---------------------------------------------------------------------

 The electronic state is 1-A.
 Alpha  occ. eigenvalues --  -19.11909 -19.10828 -14.37354 -14.34092 -10.29983
 Alpha  occ. eigenvalues --  -10.27922 -10.24207 -10.20330 -10.19985 -10.18921
 Alpha  occ. eigenvalues --   -1.03919  -1.02426  -0.93179  -0.90486  -0.78498
 Alpha  occ. eigenvalues --   -0.73457  -0.69392  -0.64804  -0.59940  -0.55622
 Alpha  occ. eigenvalues --   -0.52546  -0.50046  -0.46908  -0.45946  -0.44399
 Alpha  occ. eigenvalues --   -0.43715  -0.42157  -0.41284  -0.40772  -0.40675
 Alpha  occ. eigenvalues --   -0.38660  -0.37520  -0.36677  -0.35869  -0.35436
 Alpha  occ. eigenvalues --   -0.27106  -0.26441  -0.24580  -0.23250
 Alpha virt. eigenvalues --    0.01320   0.02457   0.05879   0.10774   0.11697
 Alpha virt. eigenvalues --    0.12901   0.13919   0.15323   0.15951   0.16159
 Alpha virt. eigenvalues --    0.16819   0.17676   0.17875   0.18679   0.19659

 Mulliken atomic charges:
              1
     1  H    0.189037
     2  C   -0.536956
     3  H    0.146230
     4  H    0.191109
     5  C    0.601361
     6  O   -0.524415
     7  N   -0.601002
     8  H    0.327414
     9  C   -0.044787
    10  H    0.173504
    11  C   -0.434795
    12  H    0.163248
    13  H    0.165574
    14  H    0.139959
    15  C    0.586658
    16  O   -0.510805
    17  N   -0.571076
    18  H    0.350514
    19  C   -0.304646
    20  H    0.181121
    21  H    0.148309
    22  H    0.164444
 Sum of Mulliken atomic charges =   0.00000

 Dipole moment (field-independent basis, Debye):
    X=              3.0903    Y=              1.8695    Z=             -1.3824  Tot=              3.8672
 Quadrupole moment (field-independent basis, Debye-Ang):
   XX=            -54.0789   YY=            -57.9977   ZZ=            -63.7613
   XY=              5.3638   XZ=              7.2504   YZ=             -0.0492

 Normal termination of Gaussian 09 at Fri Feb 10 20:16:22 2017.
