 Gaussian 09, Revision A.02,
 Gaussian 09:  EM64L-G09RevA.02 11-Jun-2009

 ----------------------------------------------------------------------
 # b3lyp/6-31G* Opt=(ModRedundant, maxcycles=1000, calcfc) geom=nocrowd
 ----------------------------------------------------------------------

 ------------------
 Phi Psi fixed scan
 ------------------
 Symbolic Z-matrix:
 Charge =  0 Multiplicity = 1

 SCF Done:  E(RB3LYP) =  -495.824900167     A.U. after   15 cycles

  Exact polarizability:   0.000   0.000   0.000   0.000   0.000   0.000
 Approx polarizability: 108.556  -6.507 111.447  11.838  -2.520 118.621

 SCF Done:  E(RB3LYP) =  -495.829668661     A.U. after   12 cycles
 SCF Done:  E(RB3LYP) =  -495.835918840     A.U. after   12 cycles
 SCF Done:  E(RB3LYP) =  -495.838151531     A.U. after   12 cycles
 SCF Done:  E(RB3LYP) =  -495.838835844     A.U. after   12 cycles
 SCF Done:  E(RB3LYP) =  -495.784609834     A.U. after   16 cycles
 SCF Done:  E(RB3LYP) =  -495.839174453     A.U. after   16 cycles
 SCF Done:  E(RB3LYP) =  -495.839456635     A.U. after   12 cycles
 SCF Done:  E(RB3LYP) =  -495.839730023     A.U. after   14 cycles
 SCF Done:  E(RB3LYP) =  -495.839820612     A.U. after   11 cycles
 SCF Done:  E(RB3LYP) =  -495.839859949     A.U. after   12 cycles
 SCF Done:  E(RB3LYP) =  -495.839865039     A.U. after    9 cycles
 SCF Done:  E(RB3LYP) =  -495.839867119     A.U. after    9 cycles
 SCF Done:  E(RB3LYP) =  -495.839868241     A.U. after    9 cycles
 SCF Done:  E(RB3LYP) =  -495.839869345     A.U. after    9 cycles
 SCF Done:  E(RB3LYP) =  -495.839870136     A.U. after    8 cycles
 SCF Done:  E(RB3LYP) =  -495.839870630     A.U. after    8 cycles
 SCF Done:  E(RB3LYP) =  -495.839871078     A.U. after    8 cycles
 SCF Done:  E(RB3LYP) =  -495.839871228     A.U. after    7 cycles
 Optimization completed.
    -- Stationary point found.

                         Standard orientation:
 ---------------------------------------------------------------------
 Center     Atomic      Atomic             Coordinates (Angstroms)
 Number     Number       Type             X           Y           Z
 ---------------------------------------------------------------------
      1          1           0       -3.172746   -2.093131   -0.091233
      2          6           0       -3.093036   -1.011919    0.045329
      3          1           0       -3.569966   -0.764739    1.000249
      4          1           0       -3.638292   -0.505492   -0.757753
      5          6           0       -1.616990   -0.638854    0.123437
      6          8           0       -0.820974   -1.308813    0.768140
      7          7           0       -1.275127    0.489534   -0.575549
      8          1           0       -2.026059    0.987193   -1.034590
      9          6           0        0.015098    1.197975   -0.567716
     10          1           0        0.282037    1.375558   -1.618959
     11          6           0       -0.106525    2.541760    0.153919
     12          1           0       -0.290785    2.381652    1.218723
     13          1           0        0.820975    3.112957    0.054620
     14          1           0       -0.925478    3.133896   -0.271733
     15          6           0        1.169574    0.363972    0.048449
     16          8           0        1.704543    0.688507    1.095916
     17          7           0        1.640609   -0.636247   -0.761960
     18          1           0        0.980671   -0.987549   -1.444831
     19          6           0        2.553893   -1.626268   -0.205411
     20          1           0        3.337774   -1.104842    0.345700
     21          1           0        2.037996   -2.307797    0.482870
     22          1           0        3.004857   -2.198260   -1.020978
 ---------------------------------------------------------------------

 The electronic state is 1-A.
 Alpha  occ. eigenvalues --  -19.11287 -19.10461 -14.36992 -14.34739 -10.29388
 Alpha  occ. eigenvalues --  -10.27892 -10.24039 -10.20342 -10.19742 -10.18018
 Alpha  occ. eigenvalues --   -1.03574  -1.02180  -0.92908  -0.90710  -0.78052
 Alpha  occ. eigenvalues --   -0.73013  -0.70008  -0.63804  -0.59800  -0.56264
 Alpha  occ. eigenvalues --   -0.51912  -0.49673  -0.47119  -0.45991  -0.44576
 Alpha  occ. eigenvalues --   -0.43413  -0.41734  -0.41382  -0.40064  -0.39778
 Alpha  occ. eigenvalues --   -0.38006  -0.37422  -0.36732  -0.35700  -0.35258
 Alpha  occ. eigenvalues --   -0.25926  -0.25368  -0.24886  -0.23560
 Alpha virt. eigenvalues --    0.02501   0.02574   0.06515   0.09507   0.11419
 Alpha virt. eigenvalues --    0.13225   0.13630   0.14844   0.15602   0.16205
 Alpha virt. eigenvalues --    0.17119   0.17732   0.18178   0.19031   0.20255

 Mulliken atomic charges:
              1
     1  H    0.187098
     2  C   -0.537894
     3  H    0.189387
     4  H    0.143575
     5  C    0.593643
     6  O   -0.501598
     7  N   -0.607233
     8  H    0.321823
     9  C   -0.046276
    10  H    0.152537
    11  C   -0.431615
    12  H    0.182777
    13  H    0.164040
    14  H    0.124275
    15  C    0.623450
    16  O   -0.508475
    17  N   -0.571818
    18  H    0.322165
    19  C   -0.308615
    20  H    0.187842
    21  H    0.177031
    22  H    0.143883
 Sum of Mulliken atomic charges =   0.00000

 Dipole moment (field-independent basis, Debye):
    X=             -3.0978    Y=              0.5323    Z=             -4.1247  Tot=              5.1859
 Quadrupole moment (field-independent basis, Debye-Ang):
   XX=            -53.9819   YY=            -58.0064   ZZ=            -61.5581
   XY=             -4.9977   XZ=             -1.5593   YZ=              0.4120

 Normal termination of Gaussian 09 at Fri Feb 10 20:12:19 2017.
