 Gaussian 09, Revision A.02,
 Gaussian 09:  EM64L-G09RevA.02 11-Jun-2009

 ----------------------------------------------------------------------
 # b3lyp/6-31G* Opt=(ModRedundant, maxcycles=1000, calcfc) geom=nocrowd
 ----------------------------------------------------------------------

 ------------------
 Phi Psi fixed scan
 ------------------
 Symbolic Z-matrix:
 Charge =  0 Multiplicity = 1

 SCF Done:  E(RB3LYP) =  -495.618754151     A.U. after   19 cycles

  Exact polarizability:   0.000   0.000   0.000   0.000   0.000   0.000
 Approx polarizability: 195.439  13.096 140.458  -7.560 -16.916  89.462

 SCF Done:  E(RB3LYP) =  -495.678957137     A.U. after   16 cycles
 SCF Done:  E(RB3LYP) =  -495.754504235     A.U. after   14 cycles
 SCF Done:  E(RB3LYP) =  -495.795284208     A.U. after   14 cycles
 SCF Done:  E(RB3LYP) =  -495.802388686     A.U. after   14 cycles
 SCF Done:  E(RB3LYP) =  -495.812673508     A.U. after   14 cycles
 SCF Done:  E(RB3LYP) =  -495.814583068     A.U. after   15 cycles
 SCF Done:  E(RB3LYP) =  -495.773838898     A.U. after   15 cycles
 SCF Done:  E(RB3LYP) =  -495.814791049     A.U. after   15 cycles
 SCF Done:  E(RB3LYP) =  -495.816943840     A.U. after   13 cycles
 SCF Done:  E(RB3LYP) =  -495.822182368     A.U. after   14 cycles
 SCF Done:  E(RB3LYP) =  -495.822299765     A.U. after   12 cycles
 SCF Done:  E(RB3LYP) =  -495.822343915     A.U. after   12 cycles
 SCF Done:  E(RB3LYP) =  -495.822351265     A.U. after   11 cycles
 SCF Done:  E(RB3LYP) =  -495.822360018     A.U. after   11 cycles
 SCF Done:  E(RB3LYP) =  -495.822361165     A.U. after    9 cycles
 SCF Done:  E(RB3LYP) =  -495.822361624     A.U. after    9 cycles
 SCF Done:  E(RB3LYP) =  -495.822361661     A.U. after    7 cycles
 SCF Done:  E(RB3LYP) =  -495.822361691     A.U. after    7 cycles
 SCF Done:  E(RB3LYP) =  -495.822361627     A.U. after    6 cycles
 Optimization completed.
    -- Stationary point found.

                         Standard orientation:
 ---------------------------------------------------------------------
 Center     Atomic      Atomic             Coordinates (Angstroms)
 Number     Number       Type             X           Y           Z
 ---------------------------------------------------------------------
      1          1           0       -3.774824   -1.391107    0.070805
      2          6           0       -3.129825   -0.804677   -0.585040
      3          1           0       -3.721853   -0.018578   -1.069232
      4          1           0       -2.732093   -1.461029   -1.368786
      5          6           0       -1.975539   -0.241053    0.231525
      6          8           0       -1.705919   -0.635281    1.347715
      7          7           0       -1.324709    0.850320   -0.369979
      8          1           0       -1.738110    1.049794   -1.274173
      9          6           0        0.133905    1.048116   -0.451147
     10          1           0        0.358618    1.296077   -1.495607
     11          6           0        0.524140    2.251685    0.434661
     12          1           0        0.362861    2.004084    1.488213
     13          1           0        1.565461    2.569028    0.301181
     14          1           0       -0.112412    3.106162    0.187289
     15          6           0        0.984598   -0.212965   -0.140963
     16          8           0        0.521647   -1.339054   -0.063396
     17          7           0        2.338452    0.005042   -0.225235
     18          1           0        2.684493    0.948423   -0.130022
     19          6           0        3.282957   -1.076733    0.010577
     20          1           0        2.848533   -1.999181   -0.376832
     21          1           0        4.217342   -0.862694   -0.516286
     22          1           0        3.498535   -1.220065    1.077709
 ---------------------------------------------------------------------

 The electronic state is 1-A.
 Alpha  occ. eigenvalues --  -19.11164 -19.09897 -14.36138 -14.34697 -10.28642
 Alpha  occ. eigenvalues --  -10.27688 -10.24537 -10.21759 -10.19093 -10.18233
 Alpha  occ. eigenvalues --   -1.03522  -1.01476  -0.91934  -0.91158  -0.77848
 Alpha  occ. eigenvalues --   -0.72265  -0.70328  -0.64584  -0.58743  -0.56563
 Alpha  occ. eigenvalues --   -0.51709  -0.49356  -0.45735  -0.45434  -0.44255
 Alpha  occ. eigenvalues --   -0.43811  -0.42753  -0.41377  -0.40190  -0.39222
 Alpha  occ. eigenvalues --   -0.38674  -0.38040  -0.37552  -0.35791  -0.33296
 Alpha  occ. eigenvalues --   -0.26455  -0.24993  -0.24331  -0.22784
 Alpha virt. eigenvalues --    0.01875   0.03035   0.06054   0.07894   0.11804
 Alpha virt. eigenvalues --    0.12844   0.14289   0.15294   0.15591   0.16174
 Alpha virt. eigenvalues --    0.16629   0.17140   0.17874   0.19161   0.19562

 Mulliken atomic charges:
              1
     1  H    0.185004
     2  C   -0.552364
     3  H    0.151114
     4  H    0.180413
     5  C    0.607152
     6  O   -0.470265
     7  N   -0.592494
     8  H    0.311383
     9  C   -0.061448
    10  H    0.160771
    11  C   -0.441983
    12  H    0.185077
    13  H    0.125364
    14  H    0.160027
    15  C    0.611712
    16  O   -0.497676
    17  N   -0.595023
    18  H    0.324692
    19  C   -0.303237
    20  H    0.197830
    21  H    0.150484
    22  H    0.163466
 Sum of Mulliken atomic charges =   0.00000

 Dipole moment (field-independent basis, Debye):
    X=              2.2774    Y=              3.3001    Z=             -3.3480  Tot=              5.2236
 Quadrupole moment (field-independent basis, Debye-Ang):
   XX=            -48.2879   YY=            -60.7638   ZZ=            -61.4681
   XY=              0.5991   XZ=              6.5625   YZ=              0.4310

 Normal termination of Gaussian 09 at Fri Feb 10 19:59:30 2017.
