 Gaussian 09, Revision A.02,
 Gaussian 09:  EM64L-G09RevA.02 11-Jun-2009

 ----------------------------------------------------------------------
 # b3lyp/6-31G* Opt=(ModRedundant, maxcycles=1000, calcfc) geom=nocrowd
 ----------------------------------------------------------------------

 ------------------
 Phi Psi fixed scan
 ------------------
 Symbolic Z-matrix:
 Charge =  0 Multiplicity = 1

 SCF Done:  E(RB3LYP) =  -495.592378950     A.U. after   22 cycles

  Exact polarizability:   0.000   0.000   0.000   0.000   0.000   0.000
 Approx polarizability: 140.311   2.946 142.763 -11.262 -21.335 100.892

 SCF Done:  E(RB3LYP) =  -495.641623777     A.U. after   16 cycles
 SCF Done:  E(RB3LYP) =  -495.715528234     A.U. after   15 cycles
 SCF Done:  E(RB3LYP) =  -495.764574448     A.U. after   13 cycles
 SCF Done:  E(RB3LYP) =  -495.799311511     A.U. after   13 cycles
 SCF Done:  E(RB3LYP) =  -495.820166996     A.U. after   14 cycles
 SCF Done:  E(RB3LYP) =  -495.818845959     A.U. after   14 cycles
 SCF Done:  E(RB3LYP) =  -495.826428908     A.U. after   14 cycles
 SCF Done:  E(RB3LYP) =  -495.831885512     A.U. after   13 cycles
 SCF Done:  E(RB3LYP) =  -495.813643051     A.U. after   13 cycles
 SCF Done:  E(RB3LYP) =  -495.841369501     A.U. after   11 cycles
 SCF Done:  E(RB3LYP) =  -495.841387172     A.U. after   11 cycles
 SCF Done:  E(RB3LYP) =  -495.841393581     A.U. after   10 cycles
 SCF Done:  E(RB3LYP) =  -495.841409210     A.U. after   11 cycles
 SCF Done:  E(RB3LYP) =  -495.841421595     A.U. after   11 cycles
 SCF Done:  E(RB3LYP) =  -495.841430606     A.U. after   10 cycles
 SCF Done:  E(RB3LYP) =  -495.841433820     A.U. after   10 cycles
 SCF Done:  E(RB3LYP) =  -495.841434396     A.U. after    9 cycles
 SCF Done:  E(RB3LYP) =  -495.841434529     A.U. after    7 cycles
 SCF Done:  E(RB3LYP) =  -495.841434524     A.U. after    6 cycles
 Optimization completed.
    -- Stationary point found.

                         Standard orientation:
 ---------------------------------------------------------------------
 Center     Atomic      Atomic             Coordinates (Angstroms)
 Number     Number       Type             X           Y           Z
 ---------------------------------------------------------------------
      1          1           0       -3.568773   -1.162475   -1.130788
      2          6           0       -3.374548   -0.497635   -0.282917
      3          1           0       -3.867605   -0.932046    0.591141
      4          1           0       -3.816825    0.480630   -0.494623
      5          6           0       -1.872464   -0.469109   -0.027541
      6          8           0       -1.297717   -1.501047    0.323143
      7          7           0       -1.289309    0.748934   -0.197653
      8          1           0       -1.932413    1.478763   -0.473366
      9          6           0        0.112669    1.234573   -0.225773
     10          1           0        0.184624    1.851484   -1.125405
     11          6           0        0.371133    2.128078    1.003685
     12          1           0        0.317817    1.538116    1.923824
     13          1           0        1.365095    2.578919    0.928942
     14          1           0       -0.371234    2.932771    1.062907
     15          6           0        1.322070    0.274882   -0.378361
     16          8           0        2.269767    0.696905   -1.038525
     17          7           0        1.361847   -0.862074    0.351561
     18          1           0        0.458053   -1.268502    0.602321
     19          6           0        2.520583   -1.736070    0.253571
     20          1           0        3.432963   -1.152074    0.394815
     21          1           0        2.451983   -2.497607    1.034340
     22          1           0        2.585497   -2.231186   -0.724392
 ---------------------------------------------------------------------

 The electronic state is 1-A.
 Alpha  occ. eigenvalues --  -19.12630 -19.09992 -14.37930 -14.33709 -10.30656
 Alpha  occ. eigenvalues --  -10.27641 -10.24467 -10.20374 -10.20354 -10.18962
 Alpha  occ. eigenvalues --   -1.04429  -1.01911  -0.93708  -0.90179  -0.78747
 Alpha  occ. eigenvalues --   -0.73699  -0.69651  -0.64913  -0.60267  -0.55862
 Alpha  occ. eigenvalues --   -0.52743  -0.50546  -0.47009  -0.46184  -0.44804
 Alpha  occ. eigenvalues --   -0.43223  -0.42412  -0.41586  -0.41308  -0.40835
 Alpha  occ. eigenvalues --   -0.38728  -0.37384  -0.36825  -0.36330  -0.34665
 Alpha  occ. eigenvalues --   -0.27308  -0.26659  -0.24129  -0.23348
 Alpha virt. eigenvalues --    0.01509   0.03036   0.05145   0.11025   0.12263
 Alpha virt. eigenvalues --    0.12629   0.13973   0.15406   0.16247   0.16430
 Alpha virt. eigenvalues --    0.16666   0.17373   0.17912   0.18739   0.19697

 Mulliken atomic charges:
              1
     1  H    0.192172
     2  C   -0.532646
     3  H    0.191149
     4  H    0.145814
     5  C    0.607362
     6  O   -0.526590
     7  N   -0.604761
     8  H    0.330162
     9  C   -0.041240
    10  H    0.174462
    11  C   -0.440237
    12  H    0.166415
    13  H    0.177655
    14  H    0.139316
    15  C    0.582518
    16  O   -0.527636
    17  N   -0.603477
    18  H    0.379374
    19  C   -0.299301
    20  H    0.178352
    21  H    0.150376
    22  H    0.160759
 Sum of Mulliken atomic charges =   0.00000

 Dipole moment (field-independent basis, Debye):
    X=             -3.7868    Y=              1.3815    Z=              0.7175  Tot=              4.0943
 Quadrupole moment (field-independent basis, Debye-Ang):
   XX=            -57.9281   YY=            -58.2162   ZZ=            -61.6903
   XY=             -8.2166   XZ=              6.7582   YZ=              1.1532

 Normal termination of Gaussian 09 at Sat Feb 11 14:25:51 2017.
