 Gaussian 09, Revision A.02,
 Gaussian 09:  EM64L-G09RevA.02 11-Jun-2009

 ----------------------------------------------------------------------
 # b3lyp/6-31G* Opt=(ModRedundant, maxcycles=1000, calcfc) geom=nocrowd
 ----------------------------------------------------------------------

 ------------------
 Phi Psi fixed scan
 ------------------
 Symbolic Z-matrix:
 Charge =  0 Multiplicity = 1

 SCF Done:  E(RB3LYP) =  -495.800535644     A.U. after   16 cycles

  Exact polarizability:   0.000   0.000   0.000   0.000   0.000   0.000
 Approx polarizability: 111.645  -9.389 106.495  -0.311 -13.816 122.213

 SCF Done:  E(RB3LYP) =  -495.812621748     A.U. after   13 cycles
 SCF Done:  E(RB3LYP) =  -495.826224384     A.U. after   14 cycles
 SCF Done:  E(RB3LYP) =  -495.814310013     A.U. after   15 cycles
 SCF Done:  E(RB3LYP) =  -495.831344308     A.U. after   14 cycles
 SCF Done:  E(RB3LYP) =  -495.832211045     A.U. after   11 cycles
 SCF Done:  E(RB3LYP) =  -495.833290724     A.U. after   12 cycles
 SCF Done:  E(RB3LYP) =  -495.834208322     A.U. after   12 cycles
 SCF Done:  E(RB3LYP) =  -495.834874251     A.U. after   12 cycles
 SCF Done:  E(RB3LYP) =  -495.834926217     A.U. after   14 cycles
 SCF Done:  E(RB3LYP) =  -495.835391277     A.U. after   11 cycles
 SCF Done:  E(RB3LYP) =  -495.835417152     A.U. after   11 cycles
 SCF Done:  E(RB3LYP) =  -495.835424245     A.U. after   10 cycles
 SCF Done:  E(RB3LYP) =  -495.835437087     A.U. after   10 cycles
 SCF Done:  E(RB3LYP) =  -495.835459066     A.U. after   11 cycles
 SCF Done:  E(RB3LYP) =  -495.835466204     A.U. after   10 cycles
 SCF Done:  E(RB3LYP) =  -495.835470050     A.U. after   11 cycles
 SCF Done:  E(RB3LYP) =  -495.835473896     A.U. after    9 cycles
 SCF Done:  E(RB3LYP) =  -495.835476318     A.U. after   10 cycles
 SCF Done:  E(RB3LYP) =  -495.835476389     A.U. after    7 cycles
 Optimization completed.
    -- Stationary point found.

                         Standard orientation:
 ---------------------------------------------------------------------
 Center     Atomic      Atomic             Coordinates (Angstroms)
 Number     Number       Type             X           Y           Z
 ---------------------------------------------------------------------
      1          1           0       -3.455817   -1.925726    0.092132
      2          6           0       -3.213623   -0.862259    0.056016
      3          1           0       -3.556315   -0.401013    0.990233
      4          1           0       -3.754339   -0.393549   -0.773690
      5          6           0       -1.701694   -0.708431   -0.059661
      6          8           0       -0.927695   -1.566434    0.333367
      7          7           0       -1.294649    0.451138   -0.687978
      8          1           0       -2.042628    1.100270   -0.902307
      9          6           0        0.003217    1.127570   -0.522536
     10          1           0        0.365189    1.384847   -1.527715
     11          6           0       -0.160471    2.417053    0.289346
     12          1           0       -0.421002    2.171554    1.321685
     13          1           0        0.775737    2.985046    0.298066
     14          1           0       -0.939431    3.055161   -0.145872
     15          6           0        1.075793    0.241700    0.161959
     16          8           0        1.169828    0.173855    1.377255
     17          7           0        2.030176   -0.248255   -0.689067
     18          1           0        1.767171   -0.345890   -1.661263
     19          6           0        3.040932   -1.169501   -0.187954
     20          1           0        3.415942   -0.785086    0.761791
     21          1           0        2.632382   -2.173287   -0.014688
     22          1           0        3.862442   -1.228659   -0.907060
 ---------------------------------------------------------------------

 The electronic state is 1-A.
 Alpha  occ. eigenvalues --  -19.10829 -19.10196 -14.36073 -14.35521 -10.28671
 Alpha  occ. eigenvalues --  -10.27941 -10.23969 -10.20931 -10.19157 -10.18513
 Alpha  occ. eigenvalues --   -1.03175  -1.01947  -0.92266  -0.91137  -0.77853
 Alpha  occ. eigenvalues --   -0.72695  -0.70418  -0.63844  -0.59214  -0.56729
 Alpha  occ. eigenvalues --   -0.51003  -0.49482  -0.47309  -0.45943  -0.44100
 Alpha  occ. eigenvalues --   -0.43616  -0.41778  -0.41427  -0.39910  -0.39354
 Alpha  occ. eigenvalues --   -0.38462  -0.37629  -0.37183  -0.35452  -0.34680
 Alpha  occ. eigenvalues --   -0.25602  -0.25187  -0.24340  -0.23667
 Alpha virt. eigenvalues --    0.02619   0.02943   0.06606   0.08540   0.12073
 Alpha virt. eigenvalues --    0.12902   0.13581   0.15064   0.15693   0.16041
 Alpha virt. eigenvalues --    0.16939   0.17950   0.18432   0.18729   0.19858

 Mulliken atomic charges:
              1
     1  H    0.187868
     2  C   -0.545807
     3  H    0.182170
     4  H    0.151293
     5  C    0.594125
     6  O   -0.486222
     7  N   -0.599585
     8  H    0.315847
     9  C   -0.031887
    10  H    0.137144
    11  C   -0.453045
    12  H    0.188928
    13  H    0.160697
    14  H    0.130191
    15  C    0.638808
    16  O   -0.514105
    17  N   -0.588840
    18  H    0.324629
    19  C   -0.305180
    20  H    0.192234
    21  H    0.174007
    22  H    0.146730
 Sum of Mulliken atomic charges =   0.00000

 Dipole moment (field-independent basis, Debye):
    X=             -1.3045    Y=              2.1810    Z=             -3.8088  Tot=              4.5788
 Quadrupole moment (field-independent basis, Debye-Ang):
   XX=            -48.6644   YY=            -60.1839   ZZ=            -61.5037
   XY=             -4.7589   XZ=             -3.4592   YZ=              0.6972

 Normal termination of Gaussian 09 at Fri Feb 10 19:52:29 2017.
