 Gaussian 09, Revision A.02,
 Gaussian 09:  EM64L-G09RevA.02 11-Jun-2009

 ----------------------------------------------------------------------
 # b3lyp/6-31G* Opt=(ModRedundant, maxcycles=1000, calcfc) geom=nocrowd
 ----------------------------------------------------------------------

 ------------------
 Phi Psi fixed scan
 ------------------
 Symbolic Z-matrix:
 Charge =  0 Multiplicity = 1

 SCF Done:  E(RB3LYP) =  -495.610254244     A.U. after   21 cycles

  Exact polarizability:   0.000   0.000   0.000   0.000   0.000   0.000
 Approx polarizability: 174.335  21.020 140.810  -9.006 -28.123  99.739

 SCF Done:  E(RB3LYP) =  -495.669279536     A.U. after   17 cycles
 SCF Done:  E(RB3LYP) =  -495.761344364     A.U. after   14 cycles
 SCF Done:  E(RB3LYP) =  -495.801446753     A.U. after   14 cycles
 SCF Done:  E(RB3LYP) =  -495.797335597     A.U. after   14 cycles
 SCF Done:  E(RB3LYP) =  -495.804230186     A.U. after   14 cycles
 SCF Done:  E(RB3LYP) =  -495.809686750     A.U. after   13 cycles
 SCF Done:  E(RB3LYP) =  -495.814323418     A.U. after   14 cycles
 SCF Done:  E(RB3LYP) =  -495.811580430     A.U. after   13 cycles
 SCF Done:  E(RB3LYP) =  -495.816150083     A.U. after   14 cycles
 SCF Done:  E(RB3LYP) =  -495.822366049     A.U. after   11 cycles
 SCF Done:  E(RB3LYP) =  -495.822394419     A.U. after   12 cycles
 SCF Done:  E(RB3LYP) =  -495.822407293     A.U. after   11 cycles
 SCF Done:  E(RB3LYP) =  -495.822413896     A.U. after   10 cycles
 SCF Done:  E(RB3LYP) =  -495.822416761     A.U. after    9 cycles
 SCF Done:  E(RB3LYP) =  -495.822420896     A.U. after    9 cycles
 SCF Done:  E(RB3LYP) =  -495.822430736     A.U. after   10 cycles
 SCF Done:  E(RB3LYP) =  -495.822437506     A.U. after   11 cycles
 SCF Done:  E(RB3LYP) =  -495.822438631     A.U. after   10 cycles
 SCF Done:  E(RB3LYP) =  -495.822438919     A.U. after    8 cycles
 Optimization completed.
    -- Stationary point found.

                         Standard orientation:
 ---------------------------------------------------------------------
 Center     Atomic      Atomic             Coordinates (Angstroms)
 Number     Number       Type             X           Y           Z
 ---------------------------------------------------------------------
      1          1           0       -4.022702   -1.162775    0.129437
      2          6           0       -3.464630   -0.225619    0.141735
      3          1           0       -3.549087    0.219871    1.140715
      4          1           0       -3.913171    0.471087   -0.576621
      5          6           0       -1.999500   -0.528070   -0.173731
      6          8           0       -1.548176   -1.653955   -0.121143
      7          7           0       -1.294848    0.597136   -0.596642
      8          1           0       -1.874767    1.428361   -0.591701
      9          6           0        0.112522    0.983382   -0.426220
     10          1           0        0.457125    1.378215   -1.393415
     11          6           0        0.213510    2.114119    0.619174
     12          1           0       -0.080996    1.733288    1.601773
     13          1           0        1.238119    2.493654    0.681748
     14          1           0       -0.443379    2.950805    0.350481
     15          6           0        1.095141   -0.117941    0.024429
     16          8           0        0.858835   -0.906649    0.921865
     17          7           0        2.370131    0.090636   -0.453131
     18          1           0        2.473315    0.586811   -1.328068
     19          6           0        3.458715   -0.790460   -0.058376
     20          1           0        3.300371   -1.078639    0.981753
     21          1           0        3.498733   -1.704973   -0.664722
     22          1           0        4.409636   -0.257744   -0.150805
 ---------------------------------------------------------------------

 The electronic state is 1-A.
 Alpha  occ. eigenvalues --  -19.10814 -19.09841 -14.36118 -14.35268 -10.28473
 Alpha  occ. eigenvalues --  -10.27853 -10.24579 -10.21603 -10.19504 -10.18444
 Alpha  occ. eigenvalues --   -1.03203  -1.01552  -0.91982  -0.91469  -0.78182
 Alpha  occ. eigenvalues --   -0.72297  -0.70656  -0.64435  -0.59265  -0.56817
 Alpha  occ. eigenvalues --   -0.50602  -0.49305  -0.47273  -0.45822  -0.44000
 Alpha  occ. eigenvalues --   -0.43588  -0.42488  -0.41512  -0.40103  -0.39049
 Alpha  occ. eigenvalues --   -0.38871  -0.37971  -0.37621  -0.35919  -0.33963
 Alpha  occ. eigenvalues --   -0.25999  -0.24788  -0.24516  -0.22484
 Alpha virt. eigenvalues --    0.02158   0.03446   0.05871   0.08066   0.12362
 Alpha virt. eigenvalues --    0.12496   0.13183   0.15252   0.15580   0.15941
 Alpha virt. eigenvalues --    0.16345   0.17510   0.17849   0.18341   0.19654

 Mulliken atomic charges:
              1
     1  H    0.186384
     2  C   -0.549861
     3  H    0.172520
     4  H    0.151960
     5  C    0.590716
     6  O   -0.462114
     7  N   -0.602641
     8  H    0.311719
     9  C   -0.016638
    10  H    0.130243
    11  C   -0.455747
    12  H    0.181708
    13  H    0.160292
    14  H    0.141538
    15  C    0.605140
    16  O   -0.484164
    17  N   -0.590206
    18  H    0.320469
    19  C   -0.304040
    20  H    0.198216
    21  H    0.164175
    22  H    0.150332
 Sum of Mulliken atomic charges =   0.00000

 Dipole moment (field-independent basis, Debye):
    X=              1.1706    Y=              5.0075    Z=             -1.9443  Tot=              5.4978
 Quadrupole moment (field-independent basis, Debye-Ang):
   XX=            -46.5754   YY=            -63.1719   ZZ=            -59.8289
   XY=             -4.5694   XZ=             -4.0729   YZ=              0.2306

 Normal termination of Gaussian 09 at Fri Feb 10 20:00:25 2017.
