 Gaussian 09, Revision A.02,
 Gaussian 09:  EM64L-G09RevA.02 11-Jun-2009

 ----------------------------------------------------------------------
 # b3lyp/6-31G* Opt=(ModRedundant, maxcycles=1000, calcfc) geom=nocrowd
 ----------------------------------------------------------------------

 ------------------
 Phi Psi fixed scan
 ------------------
 Symbolic Z-matrix:
 Charge =  0 Multiplicity = 1

 SCF Done:  E(RB3LYP) =  -495.793325377     A.U. after   16 cycles

  Exact polarizability:   0.000   0.000   0.000   0.000   0.000   0.000
 Approx polarizability: 122.304   2.016 125.050  13.115   1.728  94.690

 SCF Done:  E(RB3LYP) =  -495.807337304     A.U. after   13 cycles
 SCF Done:  E(RB3LYP) =  -495.823701594     A.U. after   14 cycles
 SCF Done:  E(RB3LYP) =  -495.821445480     A.U. after   15 cycles
 SCF Done:  E(RB3LYP) =  -495.830331892     A.U. after   13 cycles
 SCF Done:  E(RB3LYP) =  -495.831359960     A.U. after   11 cycles
 SCF Done:  E(RB3LYP) =  -495.832642674     A.U. after   13 cycles
 SCF Done:  E(RB3LYP) =  -495.833639410     A.U. after   12 cycles
 SCF Done:  E(RB3LYP) =  -495.819337960     A.U. after   13 cycles
 SCF Done:  E(RB3LYP) =  -495.833938665     A.U. after   13 cycles
 SCF Done:  E(RB3LYP) =  -495.835197316     A.U. after   11 cycles
 SCF Done:  E(RB3LYP) =  -495.835272191     A.U. after   12 cycles
 SCF Done:  E(RB3LYP) =  -495.835286982     A.U. after   10 cycles
 SCF Done:  E(RB3LYP) =  -495.835289885     A.U. after    9 cycles
 SCF Done:  E(RB3LYP) =  -495.835291229     A.U. after    8 cycles
 SCF Done:  E(RB3LYP) =  -495.835294091     A.U. after    9 cycles
 SCF Done:  E(RB3LYP) =  -495.835299297     A.U. after    9 cycles
 SCF Done:  E(RB3LYP) =  -495.835304827     A.U. after   10 cycles
 SCF Done:  E(RB3LYP) =  -495.835306301     A.U. after    8 cycles
 SCF Done:  E(RB3LYP) =  -495.835306366     A.U. after    7 cycles
 Optimization completed.
    -- Stationary point found.

                         Standard orientation:
 ---------------------------------------------------------------------
 Center     Atomic      Atomic             Coordinates (Angstroms)
 Number     Number       Type             X           Y           Z
 ---------------------------------------------------------------------
      1          1           0        3.568965   -1.463786   -0.733540
      2          6           0        3.182355   -0.809762    0.049767
      3          1           0        3.864786    0.035872    0.190118
      4          1           0        3.143842   -1.378694    0.986717
      5          6           0        1.774713   -0.372782   -0.322214
      6          8           0        1.064646   -1.011472   -1.082785
      7          7           0        1.375825    0.835595    0.221338
      8          1           0        2.013378    1.205573    0.915634
      9          6           0       -0.032566    1.165406    0.496351
     10          1           0       -0.083264    1.481437    1.545216
     11          6           0       -0.482979    2.335750   -0.390383
     12          1           0       -0.443064    2.058218   -1.450008
     13          1           0       -1.496420    2.666311   -0.137168
     14          1           0        0.191206    3.187289   -0.253419
     15          6           0       -0.931466   -0.099505    0.462198
     16          8           0       -0.670716   -1.047247    1.190073
     17          7           0       -2.113427    0.007236   -0.214563
     18          1           0       -2.162624    0.678229   -0.967705
     19          6           0       -2.995684   -1.148028   -0.304347
     20          1           0       -3.076181   -1.601851    0.684661
     21          1           0       -3.983885   -0.818623   -0.636486
     22          1           0       -2.611199   -1.906524   -0.997972
 ---------------------------------------------------------------------

 The electronic state is 1-A.
 Alpha  occ. eigenvalues --  -19.10692 -19.09930 -14.35600 -14.35487 -10.28297
 Alpha  occ. eigenvalues --  -10.27867 -10.23991 -10.21018 -10.19058 -10.18777
 Alpha  occ. eigenvalues --   -1.03160  -1.01639  -0.91795  -0.91199  -0.77922
 Alpha  occ. eigenvalues --   -0.72668  -0.69772  -0.64700  -0.58671  -0.56714
 Alpha  occ. eigenvalues --   -0.52004  -0.49796  -0.46176  -0.45156  -0.44002
 Alpha  occ. eigenvalues --   -0.43454  -0.42285  -0.41382  -0.39900  -0.39278
 Alpha  occ. eigenvalues --   -0.38592  -0.38081  -0.37333  -0.35976  -0.33546
 Alpha  occ. eigenvalues --   -0.25870  -0.24844  -0.24256  -0.23627
 Alpha virt. eigenvalues --    0.01984   0.03431   0.07432   0.08761   0.11770
 Alpha virt. eigenvalues --    0.13099   0.14522   0.15005   0.15330   0.16042
 Alpha virt. eigenvalues --    0.16759   0.17181   0.18616   0.19033   0.19570

 Mulliken atomic charges:
              1
     1  H    0.186105
     2  C   -0.550083
     3  H    0.151264
     4  H    0.188532
     5  C    0.608329
     6  O   -0.495804
     7  N   -0.587470
     8  H    0.318924
     9  C   -0.034447
    10  H    0.167902
    11  C   -0.463819
    12  H    0.165694
    13  H    0.150591
    14  H    0.154241
    15  C    0.629494
    16  O   -0.527642
    17  N   -0.599265
    18  H    0.330380
    19  C   -0.302842
    20  H    0.190419
    21  H    0.146051
    22  H    0.173446
 Sum of Mulliken atomic charges =   0.00000

 Dipole moment (field-independent basis, Debye):
    X=              0.0493    Y=              3.6344    Z=              0.2080  Tot=              3.6407
 Quadrupole moment (field-independent basis, Debye-Ang):
   XX=            -47.3655   YY=            -60.3737   ZZ=            -62.0533
   XY=              0.9709   XZ=              6.8815   YZ=              1.6817

 Normal termination of Gaussian 09 at Fri Feb 10 20:01:31 2017.
