 Gaussian 09, Revision A.02,
 Gaussian 09:  EM64L-G09RevA.02 11-Jun-2009

 ----------------------------------------------------------------------
 # b3lyp/6-31G* Opt=(ModRedundant, maxcycles=1000, calcfc) geom=nocrowd
 ----------------------------------------------------------------------

 ------------------
 Phi Psi fixed scan
 ------------------
 Symbolic Z-matrix:
 Charge =  0 Multiplicity = 1

 SCF Done:  E(RB3LYP) =  -495.765206144     A.U. after   17 cycles

  Exact polarizability:   0.000   0.000   0.000   0.000   0.000   0.000
 Approx polarizability: 119.032  -5.163 111.140  -5.097 -20.786 115.824

 SCF Done:  E(RB3LYP) =  -495.771254748     A.U. after   14 cycles
 SCF Done:  E(RB3LYP) =  -495.791707118     A.U. after   14 cycles
 SCF Done:  E(RB3LYP) =  -495.809289621     A.U. after   16 cycles
 SCF Done:  E(RB3LYP) =  -495.812907934     A.U. after   14 cycles
 SCF Done:  E(RB3LYP) =  -495.814739941     A.U. after   13 cycles
 SCF Done:  E(RB3LYP) =  -495.814673519     A.U. after   14 cycles
 SCF Done:  E(RB3LYP) =  -495.815608200     A.U. after   13 cycles
 SCF Done:  E(RB3LYP) =  -495.816794658     A.U. after   14 cycles
 SCF Done:  E(RB3LYP) =  -495.736983465     A.U. after   16 cycles
 SCF Done:  E(RB3LYP) =  -495.831747392     A.U. after   11 cycles
 SCF Done:  E(RB3LYP) =  -495.831779688     A.U. after   11 cycles
 SCF Done:  E(RB3LYP) =  -495.831796179     A.U. after   12 cycles
 SCF Done:  E(RB3LYP) =  -495.831808608     A.U. after   10 cycles
 SCF Done:  E(RB3LYP) =  -495.831815081     A.U. after   11 cycles
 SCF Done:  E(RB3LYP) =  -495.831817231     A.U. after    9 cycles
 SCF Done:  E(RB3LYP) =  -495.831818362     A.U. after    8 cycles
 SCF Done:  E(RB3LYP) =  -495.831819273     A.U. after    8 cycles
 SCF Done:  E(RB3LYP) =  -495.831819921     A.U. after    8 cycles
 SCF Done:  E(RB3LYP) =  -495.831820127     A.U. after    8 cycles
 Optimization completed.
    -- Stationary point found.

                         Standard orientation:
 ---------------------------------------------------------------------
 Center     Atomic      Atomic             Coordinates (Angstroms)
 Number     Number       Type             X           Y           Z
 ---------------------------------------------------------------------
      1          1           0       -3.671895   -1.678558    0.084197
      2          6           0       -3.314527   -0.647988    0.059583
      3          1           0       -3.560416   -0.173105    1.017350
      4          1           0       -3.836641   -0.100991   -0.733836
      5          6           0       -1.801789   -0.659378   -0.133151
      6          8           0       -1.119436   -1.635410    0.123111
      7          7           0       -1.295675    0.506589   -0.685378
      8          1           0       -1.992989    1.233490   -0.800392
      9          6           0        0.042535    1.083494   -0.478113
     10          1           0        0.418531    1.393317   -1.463349
     11          6           0       -0.042930    2.322511    0.424999
     12          1           0       -0.339624    2.020970    1.432852
     13          1           0        0.930520    2.821047    0.484333
     14          1           0       -0.768149    3.044467    0.029577
     15          6           0        1.067136    0.112224    0.154260
     16          8           0        1.008678   -0.206431    1.331141
     17          7           0        2.169478   -0.122026   -0.625184
     18          1           0        2.065007   -0.014078   -1.625209
     19          6           0        3.223130   -1.012077   -0.159788
     20          1           0        3.366943   -0.839132    0.907705
     21          1           0        2.967044   -2.069558   -0.304486
     22          1           0        4.149770   -0.787796   -0.695560
 ---------------------------------------------------------------------

 The electronic state is 1-A.
 Alpha  occ. eigenvalues --  -19.10463 -19.10323 -14.35923 -14.35672 -10.28296
 Alpha  occ. eigenvalues --  -10.28107 -10.24114 -10.21265 -10.18853 -10.18850
 Alpha  occ. eigenvalues --   -1.03032  -1.01877  -0.92039  -0.91384  -0.77888
 Alpha  occ. eigenvalues --   -0.72529  -0.70638  -0.63995  -0.59120  -0.56898
 Alpha  occ. eigenvalues --   -0.50739  -0.49410  -0.47372  -0.45971  -0.43834
 Alpha  occ. eigenvalues --   -0.43803  -0.42009  -0.41443  -0.39891  -0.39125
 Alpha  occ. eigenvalues --   -0.38716  -0.37759  -0.37382  -0.35641  -0.34290
 Alpha  occ. eigenvalues --   -0.25573  -0.25211  -0.24190  -0.23461
 Alpha virt. eigenvalues --    0.02535   0.03076   0.06382   0.08285   0.12307
 Alpha virt. eigenvalues --    0.12666   0.13566   0.15304   0.15670   0.15936
 Alpha virt. eigenvalues --    0.16712   0.17847   0.18335   0.18513   0.19714

 Mulliken atomic charges:
              1
     1  H    0.187301
     2  C   -0.547848
     3  H    0.178901
     4  H    0.152324
     5  C    0.592538
     6  O   -0.478216
     7  N   -0.597799
     8  H    0.313363
     9  C   -0.024777
    10  H    0.131555
    11  C   -0.457529
    12  H    0.188358
    13  H    0.160198
    14  H    0.134627
    15  C    0.637324
    16  O   -0.511638
    17  N   -0.592996
    18  H    0.324261
    19  C   -0.305187
    20  H    0.195984
    21  H    0.170358
    22  H    0.148897
 Sum of Mulliken atomic charges =   0.00000

 Dipole moment (field-independent basis, Debye):
    X=             -0.2986    Y=              3.2741    Z=             -3.2831  Tot=              4.6462
 Quadrupole moment (field-independent basis, Debye-Ang):
   XX=            -47.0535   YY=            -61.2602   ZZ=            -61.1129
   XY=             -4.7204   XZ=             -3.9558   YZ=              0.7614

 Normal termination of Gaussian 09 at Fri Feb 10 20:16:48 2017.
