 Gaussian 09, Revision A.02,
 Gaussian 09:  EM64L-G09RevA.02 11-Jun-2009

 ----------------------------------------------------------------------
 # b3lyp/6-31G* Opt=(ModRedundant, maxcycles=1000, calcfc) geom=nocrowd
 ----------------------------------------------------------------------

 ------------------
 Phi Psi fixed scan
 ------------------
 Symbolic Z-matrix:
 Charge =  0 Multiplicity = 1

 SCF Done:  E(RB3LYP) =  -495.207856169     A.U. after   22 cycles

  Exact polarizability:   0.000   0.000   0.000   0.000   0.000   0.000
 Approx polarizability: 327.082 -44.231 146.422   1.885 -15.661  91.971

 SCF Done:  E(RB3LYP) =  -495.348211405     A.U. after   17 cycles
 SCF Done:  E(RB3LYP) =  -495.561959384     A.U. after   17 cycles
 SCF Done:  E(RB3LYP) =  -495.668357726     A.U. after   14 cycles
 SCF Done:  E(RB3LYP) =  -495.700587936     A.U. after   14 cycles
 SCF Done:  E(RB3LYP) =  -495.747676052     A.U. after   13 cycles
 SCF Done:  E(RB3LYP) =  -495.788002038     A.U. after   14 cycles
 SCF Done:  E(RB3LYP) =  -495.696171821     A.U. after   14 cycles
 SCF Done:  E(RB3LYP) =  -495.790716158     A.U. after   14 cycles
 SCF Done:  E(RB3LYP) =  -495.805280320     A.U. after   13 cycles
 SCF Done:  E(RB3LYP) =  -495.841887117     A.U. after   11 cycles
 SCF Done:  E(RB3LYP) =  -495.841898225     A.U. after   10 cycles
 SCF Done:  E(RB3LYP) =  -495.841871535     A.U. after   11 cycles
 SCF Done:  E(RB3LYP) =  -495.841892190     A.U. after   11 cycles
 SCF Done:  E(RB3LYP) =  -495.841907481     A.U. after   11 cycles
 SCF Done:  E(RB3LYP) =  -495.841908213     A.U. after   10 cycles
 SCF Done:  E(RB3LYP) =  -495.841907239     A.U. after   10 cycles
 SCF Done:  E(RB3LYP) =  -495.841908510     A.U. after   10 cycles
 SCF Done:  E(RB3LYP) =  -495.841908562     A.U. after    9 cycles
 SCF Done:  E(RB3LYP) =  -495.841908635     A.U. after    7 cycles
 Optimization completed.
    -- Stationary point found.

                         Standard orientation:
 ---------------------------------------------------------------------
 Center     Atomic      Atomic             Coordinates (Angstroms)
 Number     Number       Type             X           Y           Z
 ---------------------------------------------------------------------
      1          1           0       -3.880387   -0.818156    0.665940
      2          6           0       -3.394845   -0.452554   -0.243333
      3          1           0       -3.808444    0.527423   -0.500012
      4          1           0       -3.633568   -1.157592   -1.045868
      5          6           0       -1.886574   -0.465405   -0.023977
      6          8           0       -1.341589   -1.509493    0.340538
      7          7           0       -1.271440    0.727046   -0.247609
      8          1           0       -1.905397    1.464602   -0.524332
      9          6           0        0.132041    1.215087   -0.264284
     10          1           0        0.223837    1.782387   -1.195205
     11          6           0        0.339708    2.186818    0.915099
     12          1           0        0.266451    1.652468    1.867957
     13          1           0        1.328532    2.645877    0.838462
     14          1           0       -0.417313    2.979839    0.904688
     15          6           0        1.366563    0.277106   -0.319883
     16          8           0        2.391791    0.780561   -0.779188
     17          7           0        1.316294   -0.952188    0.224024
     18          1           0        0.395987   -1.350198    0.427637
     19          6           0        2.494901   -1.802476    0.205723
     20          1           0        3.351692   -1.266435    0.623264
     21          1           0        2.293268   -2.690893    0.808798
     22          1           0        2.758978   -2.113338   -0.813108
 ---------------------------------------------------------------------

 The electronic state is 1-A.
 Alpha  occ. eigenvalues --  -19.12780 -19.09642 -14.38044 -14.33725 -10.30796
 Alpha  occ. eigenvalues --  -10.27559 -10.24563 -10.20444 -10.20426 -10.18867
 Alpha  occ. eigenvalues --   -1.04549  -1.01721  -0.93814  -0.90145  -0.78759
 Alpha  occ. eigenvalues --   -0.73700  -0.69809  -0.64880  -0.60331  -0.56147
 Alpha  occ. eigenvalues --   -0.52722  -0.50654  -0.47154  -0.46165  -0.44877
 Alpha  occ. eigenvalues --   -0.43115  -0.42574  -0.41691  -0.41246  -0.40781
 Alpha  occ. eigenvalues --   -0.38712  -0.37407  -0.36986  -0.36366  -0.34347
 Alpha  occ. eigenvalues --   -0.27180  -0.26707  -0.23904  -0.23467
 Alpha virt. eigenvalues --    0.01476   0.03497   0.05111   0.11061   0.12331
 Alpha virt. eigenvalues --    0.12615   0.13889   0.15328   0.16100   0.16447
 Alpha virt. eigenvalues --    0.16562   0.17279   0.18146   0.18892   0.19839

 Mulliken atomic charges:
              1
     1  H    0.191736
     2  C   -0.531891
     3  H    0.145893
     4  H    0.192147
     5  C    0.607549
     6  O   -0.527543
     7  N   -0.605098
     8  H    0.330432
     9  C   -0.040667
    10  H    0.175356
    11  C   -0.441096
    12  H    0.163129
    13  H    0.184653
    14  H    0.136760
    15  C    0.589595
    16  O   -0.536858
    17  N   -0.615822
    18  H    0.388604
    19  C   -0.296342
    20  H    0.175609
    21  H    0.150981
    22  H    0.162874
 Sum of Mulliken atomic charges =   0.00000

 Dipole moment (field-independent basis, Debye):
    X=             -3.9694    Y=              1.2052    Z=              0.2910  Tot=              4.1585
 Quadrupole moment (field-independent basis, Debye-Ang):
   XX=            -59.2955   YY=            -58.3918   ZZ=            -60.6545
   XY=             -9.0491   XZ=              5.9046   YZ=              0.9923

 Normal termination of Gaussian 09 at Fri Feb 10 20:37:11 2017.
