 Gaussian 09, Revision A.02,
 Gaussian 09:  EM64L-G09RevA.02 11-Jun-2009

 ----------------------------------------------------------------------
 # b3lyp/6-31G* Opt=(ModRedundant, maxcycles=1000, calcfc) geom=nocrowd
 ----------------------------------------------------------------------

 ------------------
 Phi Psi fixed scan
 ------------------
 Symbolic Z-matrix:
 Charge =  0 Multiplicity = 1

 SCF Done:  E(RB3LYP) =  -495.698453472     A.U. after   18 cycles

  Exact polarizability:   0.000   0.000   0.000   0.000   0.000   0.000
 Approx polarizability: 153.255   7.057 133.401   2.053 -10.111  87.162

 SCF Done:  E(RB3LYP) =  -495.727888899     A.U. after   14 cycles
 SCF Done:  E(RB3LYP) =  -495.770050997     A.U. after   14 cycles
 SCF Done:  E(RB3LYP) =  -495.802616757     A.U. after   14 cycles
 SCF Done:  E(RB3LYP) =  -495.806116227     A.U. after   12 cycles
 SCF Done:  E(RB3LYP) =  -495.812907419     A.U. after   13 cycles
 SCF Done:  E(RB3LYP) =  -495.817974403     A.U. after   15 cycles
 SCF Done:  E(RB3LYP) =  -495.821254962     A.U. after   14 cycles
 SCF Done:  E(RB3LYP) =  -495.548552734     A.U. after   14 cycles
 SCF Done:  E(RB3LYP) =  -495.822400022     A.U. after   15 cycles
 SCF Done:  E(RB3LYP) =  -495.827149471     A.U. after   12 cycles
 SCF Done:  E(RB3LYP) =  -495.827167092     A.U. after   10 cycles
 SCF Done:  E(RB3LYP) =  -495.827172059     A.U. after   10 cycles
 SCF Done:  E(RB3LYP) =  -495.827175358     A.U. after    8 cycles
 SCF Done:  E(RB3LYP) =  -495.827178723     A.U. after    9 cycles
 SCF Done:  E(RB3LYP) =  -495.827182462     A.U. after   10 cycles
 SCF Done:  E(RB3LYP) =  -495.827185082     A.U. after   10 cycles
 SCF Done:  E(RB3LYP) =  -495.827185823     A.U. after    9 cycles
 SCF Done:  E(RB3LYP) =  -495.827185890     A.U. after    7 cycles
 SCF Done:  E(RB3LYP) =  -495.827185940     A.U. after    6 cycles
 Optimization completed.
    -- Stationary point found.

                         Standard orientation:
 ---------------------------------------------------------------------
 Center     Atomic      Atomic             Coordinates (Angstroms)
 Number     Number       Type             X           Y           Z
 ---------------------------------------------------------------------
      1          1           0       -3.730365   -1.383360    0.330323
      2          6           0       -3.160088   -0.793244   -0.388597
      3          1           0       -3.793208    0.008223   -0.787261
      4          1           0       -2.866647   -1.443175   -1.222024
      5          6           0       -1.906100   -0.263766    0.288855
      6          8           0       -1.469043   -0.727199    1.325021
      7          7           0       -1.346070    0.862885   -0.322904
      8          1           0       -1.832687    1.097941   -1.180545
      9          6           0        0.102409    1.080202   -0.478777
     10          1           0        0.271759    1.317936   -1.536746
     11          6           0        0.535518    2.293114    0.366533
     12          1           0        0.467718    2.057530    1.433457
     13          1           0        1.552862    2.629010    0.131644
     14          1           0       -0.135595    3.133678    0.167312
     15          6           0        0.947639   -0.199894   -0.242594
     16          8           0        0.508586   -1.314903   -0.481069
     17          7           0        2.289018    0.019993   -0.059872
     18          1           0        2.580273    0.899421    0.340917
     19          6           0        3.195136   -1.109251    0.098882
     20          1           0        2.936449   -1.869104   -0.640139
     21          1           0        4.220508   -0.769235   -0.069832
     22          1           0        3.124864   -1.565160    1.094904
 ---------------------------------------------------------------------

 The electronic state is 1-A.
 Alpha  occ. eigenvalues --  -19.10847 -19.10015 -14.36022 -14.34847 -10.28412
 Alpha  occ. eigenvalues --  -10.27739 -10.24377 -10.21590 -10.19125 -10.18260
 Alpha  occ. eigenvalues --   -1.03369  -1.01524  -0.91756  -0.91252  -0.77832
 Alpha  occ. eigenvalues --   -0.72304  -0.70167  -0.64695  -0.58592  -0.56645
 Alpha  occ. eigenvalues --   -0.51764  -0.49560  -0.45877  -0.45243  -0.44032
 Alpha  occ. eigenvalues --   -0.43716  -0.42661  -0.41396  -0.40001  -0.39101
 Alpha  occ. eigenvalues --   -0.38746  -0.38060  -0.37558  -0.35834  -0.33196
 Alpha  occ. eigenvalues --   -0.26253  -0.24778  -0.24464  -0.23183
 Alpha virt. eigenvalues --    0.01939   0.03005   0.06773   0.08228   0.11781
 Alpha virt. eigenvalues --    0.12954   0.14131   0.15035   0.15709   0.16192
 Alpha virt. eigenvalues --    0.16783   0.17372   0.18166   0.19383   0.19590

 Mulliken atomic charges:
              1
     1  H    0.184470
     2  C   -0.552306
     3  H    0.150045
     4  H    0.185494
     5  C    0.609713
     6  O   -0.482136
     7  N   -0.588485
     8  H    0.313166
     9  C   -0.050792
    10  H    0.167301
    11  C   -0.455687
    12  H    0.179325
    13  H    0.132669
    14  H    0.160486
    15  C    0.618478
    16  O   -0.509103
    17  N   -0.599438
    18  H    0.328802
    19  C   -0.301300
    20  H    0.192659
    21  H    0.148460
    22  H    0.168177
 Sum of Mulliken atomic charges =   0.00000

 Dipole moment (field-independent basis, Debye):
    X=              1.6691    Y=              3.4628    Z=             -2.3429  Tot=              4.5018
 Quadrupole moment (field-independent basis, Debye-Ang):
   XX=            -47.4538   YY=            -60.8928   ZZ=            -61.5284
   XY=              0.0945   XZ=              7.0651   YZ=             -0.2406

 Normal termination of Gaussian 09 at Fri Feb 10 20:01:08 2017.
