 Gaussian 09, Revision A.02,
 Gaussian 09:  EM64L-G09RevA.02 11-Jun-2009

 ----------------------------------------------------------------------
 # b3lyp/6-31G* Opt=(ModRedundant, maxcycles=1000, calcfc) geom=nocrowd
 ----------------------------------------------------------------------

 ------------------
 Phi Psi fixed scan
 ------------------
 Symbolic Z-matrix:
 Charge =  0 Multiplicity = 1

 SCF Done:  E(RB3LYP) =  -495.742038952     A.U. after   16 cycles

  Exact polarizability:   0.000   0.000   0.000   0.000   0.000   0.000
 Approx polarizability: 115.771   8.140 127.042  -8.991  16.122 107.362

 SCF Done:  E(RB3LYP) =  -495.771218896     A.U. after   17 cycles
 SCF Done:  E(RB3LYP) =  -495.800929592     A.U. after   14 cycles
 SCF Done:  E(RB3LYP) =  -495.827098376     A.U. after   13 cycles
 SCF Done:  E(RB3LYP) =  -495.831028201     A.U. after   13 cycles
 SCF Done:  E(RB3LYP) =  -495.826480504     A.U. after   15 cycles
 SCF Done:  E(RB3LYP) =  -495.832270397     A.U. after   13 cycles
 SCF Done:  E(RB3LYP) =  -495.834739657     A.U. after   12 cycles
 SCF Done:  E(RB3LYP) =  -495.836966467     A.U. after   14 cycles
 SCF Done:  E(RB3LYP) =  -495.836943480     A.U. after   13 cycles
 SCF Done:  E(RB3LYP) =  -495.840377477     A.U. after   10 cycles
 SCF Done:  E(RB3LYP) =  -495.840379243     A.U. after    9 cycles
 SCF Done:  E(RB3LYP) =  -495.840379720     A.U. after    8 cycles
 SCF Done:  E(RB3LYP) =  -495.840379881     A.U. after    7 cycles
 SCF Done:  E(RB3LYP) =  -495.840380032     A.U. after    7 cycles
 SCF Done:  E(RB3LYP) =  -495.840380217     A.U. after    7 cycles
 SCF Done:  E(RB3LYP) =  -495.840380514     A.U. after    7 cycles
 SCF Done:  E(RB3LYP) =  -495.840380863     A.U. after    9 cycles
 SCF Done:  E(RB3LYP) =  -495.840381301     A.U. after    8 cycles
 SCF Done:  E(RB3LYP) =  -495.840381318     A.U. after    7 cycles
 Optimization completed.
    -- Stationary point found.

                         Standard orientation:
 ---------------------------------------------------------------------
 Center     Atomic      Atomic             Coordinates (Angstroms)
 Number     Number       Type             X           Y           Z
 ---------------------------------------------------------------------
      1          1           0        3.458318   -1.174432    1.226349
      2          6           0        3.330294   -0.590068    0.308715
      3          1           0        3.813061   -1.142531   -0.501369
      4          1           0        3.831884    0.374247    0.436301
      5          6           0        1.841005   -0.485170    0.004799
      6          8           0        1.215785   -1.479367   -0.363311
      7          7           0        1.313755    0.763102    0.151045
      8          1           0        1.973702    1.465145    0.457260
      9          6           0       -0.082314    1.256628    0.204472
     10          1           0       -0.132982    1.891556    1.092611
     11          6           0       -0.382544    2.113803   -1.039362
     12          1           0       -0.343511    1.503742   -1.946351
     13          1           0       -1.380763    2.556035   -0.957818
     14          1           0        0.347289    2.926524   -1.133657
     15          6           0       -1.257404    0.267852    0.431639
     16          8           0       -2.072407    0.551330    1.304989
     17          7           0       -1.440572   -0.729217   -0.474002
     18          1           0       -0.574336   -1.125790   -0.838263
     19          6           0       -2.562453   -1.641301   -0.298441
     20          1           0       -3.479837   -1.064532   -0.164369
     21          1           0       -2.652486   -2.262816   -1.192972
     22          1           0       -2.439149   -2.290513    0.578625
 ---------------------------------------------------------------------

 The electronic state is 1-A.
 Alpha  occ. eigenvalues --  -19.12373 -19.10458 -14.37703 -14.33802 -10.30404
 Alpha  occ. eigenvalues --  -10.27771 -10.24349 -10.20338 -10.20221 -10.18946
 Alpha  occ. eigenvalues --   -1.04235  -1.02190  -0.93504  -0.90287  -0.78659
 Alpha  occ. eigenvalues --   -0.73626  -0.69500  -0.64871  -0.60136  -0.55616
 Alpha  occ. eigenvalues --   -0.52689  -0.50352  -0.46910  -0.46151  -0.44637
 Alpha  occ. eigenvalues --   -0.43470  -0.42245  -0.41431  -0.41160  -0.40835
 Alpha  occ. eigenvalues --   -0.38704  -0.37432  -0.36654  -0.36162  -0.35094
 Alpha  occ. eigenvalues --   -0.27328  -0.26602  -0.24392  -0.23286
 Alpha virt. eigenvalues --    0.01489   0.02495   0.05439   0.11000   0.12049
 Alpha virt. eigenvalues --    0.12749   0.14010   0.15413   0.16018   0.16290
 Alpha virt. eigenvalues --    0.16804   0.17626   0.17831   0.18649   0.19603

 Mulliken atomic charges:
              1
     1  H    0.191531
     2  C   -0.534799
     3  H    0.190457
     4  H    0.146492
     5  C    0.605285
     6  O   -0.525364
     7  N   -0.603311
     8  H    0.329252
     9  C   -0.043588
    10  H    0.173908
    11  C   -0.437931
    12  H    0.167788
    13  H    0.170439
    14  H    0.140198
    15  C    0.580756
    16  O   -0.517784
    17  N   -0.588209
    18  H    0.366740
    19  C   -0.301826
    20  H    0.179268
    21  H    0.149583
    22  H    0.161114
 Sum of Mulliken atomic charges =   0.00000

 Dipole moment (field-independent basis, Debye):
    X=              3.4892    Y=              1.5718    Z=             -1.0388  Tot=              3.9654
 Quadrupole moment (field-independent basis, Debye-Ang):
   XX=            -56.1007   YY=            -58.0235   ZZ=            -62.9101
   XY=              6.9386   XZ=              7.3410   YZ=             -0.9449

 Normal termination of Gaussian 09 at Fri Feb 10 20:21:02 2017.
