 Gaussian 09, Revision A.02,
 Gaussian 09:  EM64L-G09RevA.02 11-Jun-2009

 ----------------------------------------------------------------------
 # b3lyp/6-31G* Opt=(ModRedundant, maxcycles=1000, calcfc) geom=nocrowd
 ----------------------------------------------------------------------

 ------------------
 Phi Psi fixed scan
 ------------------
 Symbolic Z-matrix:
 Charge =  0 Multiplicity = 1

 SCF Done:  E(RB3LYP) =  -495.811358101     A.U. after   15 cycles

  Exact polarizability:   0.000   0.000   0.000   0.000   0.000   0.000
 Approx polarizability: 116.743   6.115 121.264  12.550   0.064 102.326

 SCF Done:  E(RB3LYP) =  -495.819042290     A.U. after   12 cycles
 SCF Done:  E(RB3LYP) =  -495.829498605     A.U. after   12 cycles
 SCF Done:  E(RB3LYP) =  -495.834497113     A.U. after   14 cycles
 SCF Done:  E(RB3LYP) =  -495.835345663     A.U. after   12 cycles
 SCF Done:  E(RB3LYP) =  -495.835598358     A.U. after   13 cycles
 SCF Done:  E(RB3LYP) =  -495.836910240     A.U. after   12 cycles
 SCF Done:  E(RB3LYP) =  -495.836865917     A.U. after   13 cycles
 SCF Done:  E(RB3LYP) =  -495.837076758     A.U. after   12 cycles
 SCF Done:  E(RB3LYP) =  -495.837331363     A.U. after   12 cycles
 SCF Done:  E(RB3LYP) =  -495.837419294     A.U. after   12 cycles
 SCF Done:  E(RB3LYP) =  -495.837514779     A.U. after   11 cycles
 SCF Done:  E(RB3LYP) =  -495.837537234     A.U. after   12 cycles
 SCF Done:  E(RB3LYP) =  -495.837541724     A.U. after    9 cycles
 SCF Done:  E(RB3LYP) =  -495.837542990     A.U. after    8 cycles
 SCF Done:  E(RB3LYP) =  -495.837544097     A.U. after    9 cycles
 SCF Done:  E(RB3LYP) =  -495.837544721     A.U. after    8 cycles
 SCF Done:  E(RB3LYP) =  -495.837544887     A.U. after    7 cycles
 SCF Done:  E(RB3LYP) =  -495.837544944     A.U. after    7 cycles
 Optimization completed.
    -- Stationary point found.

                         Standard orientation:
 ---------------------------------------------------------------------
 Center     Atomic      Atomic             Coordinates (Angstroms)
 Number     Number       Type             X           Y           Z
 ---------------------------------------------------------------------
      1          1           0        3.477513   -1.535082   -0.823454
      2          6           0        3.159900   -0.854007   -0.031882
      3          1           0        3.845051   -0.000508    0.011939
      4          1           0        3.217052   -1.390382    0.922975
      5          6           0        1.717378   -0.444389   -0.285730
      6          8           0        0.929051   -1.158321   -0.889278
      7          7           0        1.376545    0.805982    0.180694
      8          1           0        2.072797    1.254568    0.762165
      9          6           0       -0.006728    1.222672    0.465831
     10          1           0       -0.015014    1.606247    1.492119
     11          6           0       -0.430397    2.350276   -0.486197
     12          1           0       -0.371641    2.026293   -1.531730
     13          1           0       -1.448928    2.690191   -0.271088
     14          1           0        0.244837    3.205827   -0.378082
     15          6           0       -0.960807    0.000431    0.539107
     16          8           0       -0.851862   -0.789023    1.466829
     17          7           0       -1.997340   -0.031923   -0.349772
     18          1           0       -1.863178    0.460947   -1.221643
     19          6           0       -2.849210   -1.212532   -0.399552
     20          1           0       -3.144400   -1.473799    0.617851
     21          1           0       -3.740742   -0.986250   -0.990514
     22          1           0       -2.326118   -2.072424   -0.836858
 ---------------------------------------------------------------------

 The electronic state is 1-A.
 Alpha  occ. eigenvalues --  -19.10994 -19.09871 -14.36066 -14.35069 -10.28683
 Alpha  occ. eigenvalues --  -10.27712 -10.23901 -10.20654 -10.19102 -10.19072
 Alpha  occ. eigenvalues --   -1.03307  -1.01680  -0.92111  -0.90931  -0.78024
 Alpha  occ. eigenvalues --   -0.72879  -0.69524  -0.64724  -0.58938  -0.56526
 Alpha  occ. eigenvalues --   -0.52137  -0.49794  -0.46412  -0.45308  -0.43896
 Alpha  occ. eigenvalues --   -0.43411  -0.42186  -0.41337  -0.39979  -0.39578
 Alpha  occ. eigenvalues --   -0.38609  -0.37832  -0.37180  -0.36049  -0.33944
 Alpha  occ. eigenvalues --   -0.25987  -0.24830  -0.24644  -0.23345
 Alpha virt. eigenvalues --    0.01912   0.03476   0.07135   0.08911   0.11695
 Alpha virt. eigenvalues --    0.13226   0.14261   0.15178   0.15256   0.16158
 Alpha virt. eigenvalues --    0.16720   0.17378   0.18552   0.19095   0.19896

 Mulliken atomic charges:
              1
     1  H    0.186943
     2  C   -0.547657
     3  H    0.150557
     4  H    0.189058
     5  C    0.606492
     6  O   -0.503084
     7  N   -0.591043
     8  H    0.321803
     9  C   -0.031140
    10  H    0.167842
    11  C   -0.458127
    12  H    0.157875
    13  H    0.158981
    14  H    0.150270
    15  C    0.621562
    16  O   -0.525488
    17  N   -0.587680
    18  H    0.328833
    19  C   -0.304429
    20  H    0.187973
    21  H    0.144659
    22  H    0.175799
 Sum of Mulliken atomic charges =   0.00000

 Dipole moment (field-independent basis, Debye):
    X=              1.0230    Y=              3.4251    Z=             -0.8203  Tot=              3.6675
 Quadrupole moment (field-independent basis, Debye-Ang):
   XX=            -48.6101   YY=            -59.6275   ZZ=            -62.5819
   XY=              1.6233   XZ=              6.7917   YZ=              1.9870

 Normal termination of Gaussian 09 at Fri Feb 10 20:02:12 2017.
