 Gaussian 09, Revision A.02,
 Gaussian 09:  EM64L-G09RevA.02 11-Jun-2009

 ----------------------------------------------------------------------
 # b3lyp/6-31G* Opt=(ModRedundant, maxcycles=1000, calcfc) geom=nocrowd
 ----------------------------------------------------------------------

 ------------------
 Phi Psi fixed scan
 ------------------
 Symbolic Z-matrix:
 Charge =  0 Multiplicity = 1

 SCF Done:  E(RB3LYP) =  -495.818380409     A.U. after   15 cycles

  Exact polarizability:   0.000   0.000   0.000   0.000   0.000   0.000
 Approx polarizability: 108.769  -9.171 107.245   5.874  -6.870 123.052

 SCF Done:  E(RB3LYP) =  -495.825521233     A.U. after   13 cycles
 SCF Done:  E(RB3LYP) =  -495.832340308     A.U. after   14 cycles
 SCF Done:  E(RB3LYP) =  -495.834770302     A.U. after   13 cycles
 SCF Done:  E(RB3LYP) =  -495.833246975     A.U. after   13 cycles
 SCF Done:  E(RB3LYP) =  -495.835440868     A.U. after   13 cycles
 SCF Done:  E(RB3LYP) =  -495.836066643     A.U. after   12 cycles
 SCF Done:  E(RB3LYP) =  -495.837090405     A.U. after   12 cycles
 SCF Done:  E(RB3LYP) =  -495.837709011     A.U. after   14 cycles
 SCF Done:  E(RB3LYP) =  -495.837500153     A.U. after   12 cycles
 SCF Done:  E(RB3LYP) =  -495.837921546     A.U. after   12 cycles
 SCF Done:  E(RB3LYP) =  -495.838130543     A.U. after   12 cycles
 SCF Done:  E(RB3LYP) =  -495.838182731     A.U. after   12 cycles
 SCF Done:  E(RB3LYP) =  -495.838310227     A.U. after   11 cycles
 SCF Done:  E(RB3LYP) =  -495.838345589     A.U. after   11 cycles
 SCF Done:  E(RB3LYP) =  -495.838350932     A.U. after    9 cycles
 SCF Done:  E(RB3LYP) =  -495.838353507     A.U. after   10 cycles
 SCF Done:  E(RB3LYP) =  -495.838354108     A.U. after    9 cycles
 SCF Done:  E(RB3LYP) =  -495.838354382     A.U. after    8 cycles
 SCF Done:  E(RB3LYP) =  -495.838354388     A.U. after    6 cycles
 Optimization completed.
    -- Stationary point found.

                         Standard orientation:
 ---------------------------------------------------------------------
 Center     Atomic      Atomic             Coordinates (Angstroms)
 Number     Number       Type             X           Y           Z
 ---------------------------------------------------------------------
      1          1           0       -3.267905   -2.087269    0.018483
      2          6           0       -3.126219   -1.005473    0.062745
      3          1           0       -3.543238   -0.651692    1.012956
      4          1           0       -3.681185   -0.532757   -0.754504
      5          6           0       -1.631884   -0.707788    0.034267
      6          8           0       -0.815365   -1.450234    0.560747
      7          7           0       -1.289311    0.434805   -0.648273
      8          1           0       -2.059916    1.001288   -0.979518
      9          6           0       -0.014095    1.165739   -0.558159
     10          1           0        0.309943    1.375049   -1.587046
     11          6           0       -0.199500    2.489477    0.187567
     12          1           0       -0.419269    2.295650    1.239925
     13          1           0        0.716010    3.087284    0.137187
     14          1           0       -1.014109    3.074272   -0.256787
     15          6           0        1.108931    0.338203    0.122601
     16          8           0        1.404682    0.501355    1.295255
     17          7           0        1.855956   -0.417078   -0.743273
     18          1           0        1.395355   -0.684609   -1.604446
     19          6           0        2.812308   -1.376253   -0.205447
     20          1           0        3.400341   -0.880576    0.568292
     21          1           0        2.309667   -2.242162    0.244071
     22          1           0        3.476009   -1.710963   -1.007253
 ---------------------------------------------------------------------

 The electronic state is 1-A.
 Alpha  occ. eigenvalues --  -19.11109 -19.10258 -14.36568 -14.35049 -10.29073
 Alpha  occ. eigenvalues --  -10.27863 -10.23945 -10.20554 -10.19480 -10.18241
 Alpha  occ. eigenvalues --   -1.03400  -1.02021  -0.92599  -0.90864  -0.77930
 Alpha  occ. eigenvalues --   -0.72874  -0.70153  -0.63779  -0.59510  -0.56425
 Alpha  occ. eigenvalues --   -0.51428  -0.49574  -0.47252  -0.45884  -0.44376
 Alpha  occ. eigenvalues --   -0.43449  -0.41708  -0.41393  -0.39979  -0.39601
 Alpha  occ. eigenvalues --   -0.38155  -0.37527  -0.36951  -0.35337  -0.35177
 Alpha  occ. eigenvalues --   -0.25785  -0.25034  -0.24818  -0.23604
 Alpha virt. eigenvalues --    0.02590   0.02802   0.06655   0.08975   0.11753
 Alpha virt. eigenvalues --    0.13119   0.13602   0.14801   0.15637   0.16226
 Alpha virt. eigenvalues --    0.17081   0.17944   0.18416   0.18893   0.20100

 Mulliken atomic charges:
              1
     1  H    0.187905
     2  C   -0.541801
     3  H    0.186457
     4  H    0.147209
     5  C    0.595818
     6  O   -0.495386
     7  N   -0.603780
     8  H    0.318956
     9  C   -0.040087
    10  H    0.145038
    11  C   -0.443459
    12  H    0.186967
    13  H    0.161909
    14  H    0.126492
    15  C    0.632911
    16  O   -0.511022
    17  N   -0.580922
    18  H    0.323464
    19  C   -0.307395
    20  H    0.189699
    21  H    0.176055
    22  H    0.144971
 Sum of Mulliken atomic charges =   0.00000

 Dipole moment (field-independent basis, Debye):
    X=             -2.3231    Y=              1.1802    Z=             -4.0760  Tot=              4.8377
 Quadrupole moment (field-independent basis, Debye-Ang):
   XX=            -51.1594   YY=            -59.0732   ZZ=            -61.6403
   XY=             -4.8492   XZ=             -2.6383   YZ=              0.5346

 Normal termination of Gaussian 09 at Fri Feb 10 20:15:39 2017.
