 Gaussian 09, Revision A.02,
 Gaussian 09:  EM64L-G09RevA.02 11-Jun-2009

 ----------------------------------------------------------------------
 # b3lyp/6-31G* Opt=(ModRedundant, maxcycles=1000, calcfc) geom=nocrowd
 ----------------------------------------------------------------------

 ------------------
 Phi Psi fixed scan
 ------------------
 Symbolic Z-matrix:
 Charge =  0 Multiplicity = 1

 SCF Done:  E(RB3LYP) =  -495.814163932     A.U. after   15 cycles

  Exact polarizability:   0.000   0.000   0.000   0.000   0.000   0.000
 Approx polarizability: 109.977  13.374 116.800   2.698   5.188 113.200

 SCF Done:  E(RB3LYP) =  -495.822992129     A.U. after   13 cycles
 SCF Done:  E(RB3LYP) =  -495.832957902     A.U. after   14 cycles
 SCF Done:  E(RB3LYP) =  -495.836480554     A.U. after   13 cycles
 SCF Done:  E(RB3LYP) =  -495.827402261     A.U. after   15 cycles
 SCF Done:  E(RB3LYP) =  -495.836487149     A.U. after   15 cycles
 SCF Done:  E(RB3LYP) =  -495.837364807     A.U. after   13 cycles
 SCF Done:  E(RB3LYP) =  -495.837989791     A.U. after   12 cycles
 SCF Done:  E(RB3LYP) =  -495.838270046     A.U. after   12 cycles
 SCF Done:  E(RB3LYP) =  -495.838316377     A.U. after   11 cycles
 SCF Done:  E(RB3LYP) =  -495.838415501     A.U. after   10 cycles
 SCF Done:  E(RB3LYP) =  -495.838417389     A.U. after    9 cycles
 SCF Done:  E(RB3LYP) =  -495.838418355     A.U. after    7 cycles
 SCF Done:  E(RB3LYP) =  -495.838419926     A.U. after    8 cycles
 SCF Done:  E(RB3LYP) =  -495.838422998     A.U. after    8 cycles
 SCF Done:  E(RB3LYP) =  -495.838431468     A.U. after   10 cycles
 SCF Done:  E(RB3LYP) =  -495.838440061     A.U. after   10 cycles
 SCF Done:  E(RB3LYP) =  -495.838440997     A.U. after    9 cycles
 SCF Done:  E(RB3LYP) =  -495.838441191     A.U. after    7 cycles
 SCF Done:  E(RB3LYP) =  -495.838441245     A.U. after    7 cycles
 Optimization completed.
    -- Stationary point found.

                         Standard orientation:
 ---------------------------------------------------------------------
 Center     Atomic      Atomic             Coordinates (Angstroms)
 Number     Number       Type             X           Y           Z
 ---------------------------------------------------------------------
      1          1           0        3.543622   -1.435650   -0.765051
      2          6           0        3.206975   -0.822822    0.074651
      3          1           0        3.827552    0.076911    0.136440
      4          1           0        3.350487   -1.408755    0.989332
      5          6           0        1.719752   -0.539240   -0.094805
      6          8           0        0.939047   -1.415823   -0.448313
      7          7           0        1.347892    0.751332    0.165583
      8          1           0        2.076416    1.371799    0.491460
      9          6           0       -0.015854    1.289010    0.317061
     10          1           0       -0.030094    1.827787    1.269389
     11          6           0       -0.333053    2.274934   -0.818457
     12          1           0       -0.298089    1.785210   -1.796836
     13          1           0       -1.328638    2.710540   -0.685944
     14          1           0        0.400014    3.090057   -0.829262
     15          6           0       -1.112106    0.209568    0.521933
     16          8           0       -1.485766   -0.055893    1.656108
     17          7           0       -1.711468   -0.289218   -0.602210
     18          1           0       -1.105467   -0.335984   -1.411542
     19          6           0       -2.621885   -1.418503   -0.458059
     20          1           0       -3.333238   -1.197752    0.338923
     21          1           0       -3.162333   -1.562962   -1.397408
     22          1           0       -2.084430   -2.339942   -0.199421
 ---------------------------------------------------------------------

 The electronic state is 1-A.
 Alpha  occ. eigenvalues --  -19.11317 -19.10623 -14.36943 -14.34523 -10.29428
 Alpha  occ. eigenvalues --  -10.27899 -10.24071 -10.20286 -10.19646 -10.19144
 Alpha  occ. eigenvalues --   -1.03537  -1.02248  -0.92805  -0.90687  -0.78357
 Alpha  occ. eigenvalues --   -0.73219  -0.69358  -0.64870  -0.59700  -0.56050
 Alpha  occ. eigenvalues --   -0.52347  -0.49775  -0.46957  -0.45575  -0.43997
 Alpha  occ. eigenvalues --   -0.43755  -0.42169  -0.41350  -0.40413  -0.40112
 Alpha  occ. eigenvalues --   -0.38683  -0.37598  -0.37022  -0.35939  -0.35065
 Alpha  occ. eigenvalues --   -0.26493  -0.25919  -0.24517  -0.23207
 Alpha virt. eigenvalues --    0.01583   0.02987   0.06291   0.09443   0.11523
 Alpha virt. eigenvalues --    0.13063   0.13813   0.15272   0.15914   0.15987
 Alpha virt. eigenvalues --    0.16856   0.17733   0.17993   0.18990   0.19813

 Mulliken atomic charges:
              1
     1  H    0.187071
     2  C   -0.538544
     3  H    0.144451
     4  H    0.190849
     5  C    0.600366
     6  O   -0.519512
     7  N   -0.600180
     8  H    0.324975
     9  C   -0.040506
    10  H    0.172252
    11  C   -0.437657
    12  H    0.151605
    13  H    0.166050
    14  H    0.141701
    15  C    0.599360
    16  O   -0.509928
    17  N   -0.560949
    18  H    0.332673
    19  C   -0.307378
    20  H    0.184645
    21  H    0.145526
    22  H    0.173133
 Sum of Mulliken atomic charges =   0.00000

 Dipole moment (field-independent basis, Debye):
    X=              2.6382    Y=              2.5066    Z=             -1.9208  Tot=              4.1149
 Quadrupole moment (field-independent basis, Debye-Ang):
   XX=            -52.3785   YY=            -58.3627   ZZ=            -63.4597
   XY=              3.8835   XZ=              6.6553   YZ=              1.1894

 Normal termination of Gaussian 09 at Fri Feb 10 20:10:59 2017.
