 Gaussian 09, Revision A.02,
 Gaussian 09:  EM64L-G09RevA.02 11-Jun-2009

 ----------------------------------------------------------------------
 # b3lyp/6-31G* Opt=(ModRedundant, maxcycles=1000, calcfc) geom=nocrowd
 ----------------------------------------------------------------------

 ------------------
 Phi Psi fixed scan
 ------------------
 Symbolic Z-matrix:
 Charge =  0 Multiplicity = 1

 SCF Done:  E(RB3LYP) =  -495.820444746     A.U. after   15 cycles

  Exact polarizability:   0.000   0.000   0.000   0.000   0.000   0.000
 Approx polarizability: 111.257   3.075 116.869  15.961   1.702 111.046

 SCF Done:  E(RB3LYP) =  -495.826471138     A.U. after   12 cycles
 SCF Done:  E(RB3LYP) =  -495.834463378     A.U. after   12 cycles
 SCF Done:  E(RB3LYP) =  -495.837680582     A.U. after   13 cycles
 SCF Done:  E(RB3LYP) =  -495.838473918     A.U. after   12 cycles
 SCF Done:  E(RB3LYP) =  -495.838162207     A.U. after   13 cycles
 SCF Done:  E(RB3LYP) =  -495.838980201     A.U. after   12 cycles
 SCF Done:  E(RB3LYP) =  -495.839003302     A.U. after   12 cycles
 SCF Done:  E(RB3LYP) =  -495.839277327     A.U. after   11 cycles
 SCF Done:  E(RB3LYP) =  -495.839364956     A.U. after   11 cycles
 SCF Done:  E(RB3LYP) =  -495.839415299     A.U. after   16 cycles
 SCF Done:  E(RB3LYP) =  -495.839454771     A.U. after   10 cycles
 SCF Done:  E(RB3LYP) =  -495.839465552     A.U. after   10 cycles
 SCF Done:  E(RB3LYP) =  -495.839466863     A.U. after   10 cycles
 SCF Done:  E(RB3LYP) =  -495.839467633     A.U. after    7 cycles
 SCF Done:  E(RB3LYP) =  -495.839467796     A.U. after    7 cycles
 SCF Done:  E(RB3LYP) =  -495.839467830     A.U. after    6 cycles
 SCF Done:  E(RB3LYP) =  -495.839467866     A.U. after    7 cycles
 Optimization completed.
    -- Stationary point found.

                         Standard orientation:
 ---------------------------------------------------------------------
 Center     Atomic      Atomic             Coordinates (Angstroms)
 Number     Number       Type             X           Y           Z
 ---------------------------------------------------------------------
      1          1           0       -3.225710   -1.952375   -0.213943
      2          6           0       -3.135907   -0.885130    0.005371
      3          1           0       -3.642859   -0.704483    0.959208
      4          1           0       -3.646577   -0.313707   -0.776374
      5          6           0       -1.657896   -0.544924    0.167118
      6          8           0       -0.921081   -1.229547    0.865912
      7          7           0       -1.255716    0.579903   -0.503226
      8          1           0       -1.963592    1.063941   -1.038106
      9          6           0        0.074132    1.212290   -0.546357
     10          1           0        0.288411    1.395047   -1.609259
     11          6           0        0.055614    2.551912    0.194589
     12          1           0       -0.105264    2.391428    1.263577
     13          1           0        1.009820    3.069688    0.070797
     14          1           0       -0.745356    3.190916   -0.195539
     15          6           0        1.242179    0.330687   -0.030219
     16          8           0        2.008303    0.745889    0.825736
     17          7           0        1.435792   -0.842684   -0.707224
     18          1           0        0.614950   -1.224125   -1.157710
     19          6           0        2.362393   -1.828949   -0.167537
     20          1           0        3.276945   -1.318376    0.136578
     21          1           0        1.939478   -2.341530    0.705924
     22          1           0        2.598353   -2.563017   -0.942963
 ---------------------------------------------------------------------

 The electronic state is 1-A.
 Alpha  occ. eigenvalues --  -19.11448 -19.10695 -14.37266 -14.34630 -10.29635
 Alpha  occ. eigenvalues --  -10.28033 -10.24231 -10.20340 -10.19937 -10.17889
 Alpha  occ. eigenvalues --   -1.03711  -1.02409  -0.93124  -0.90709  -0.78165
 Alpha  occ. eigenvalues --   -0.73121  -0.70010  -0.63918  -0.59913  -0.56303
 Alpha  occ. eigenvalues --   -0.52278  -0.49802  -0.47021  -0.46259  -0.44668
 Alpha  occ. eigenvalues --   -0.43490  -0.41825  -0.41449  -0.40256  -0.39810
 Alpha  occ. eigenvalues --   -0.38061  -0.37376  -0.36622  -0.36116  -0.35183
 Alpha  occ. eigenvalues --   -0.26183  -0.25791  -0.24928  -0.23501
 Alpha virt. eigenvalues --    0.02217   0.02348   0.06314   0.10250   0.11089
 Alpha virt. eigenvalues --    0.13355   0.13586   0.15011   0.15463   0.16093
 Alpha virt. eigenvalues --    0.17142   0.17417   0.18011   0.18989   0.20210

 Mulliken atomic charges:
              1
     1  H    0.186017
     2  C   -0.535850
     3  H    0.191007
     4  H    0.142483
     5  C    0.585731
     6  O   -0.506829
     7  N   -0.605682
     8  H    0.323900
     9  C   -0.051631
    10  H    0.159899
    11  C   -0.423739
    12  H    0.176933
    13  H    0.169050
    14  H    0.123562
    15  C    0.618443
    16  O   -0.511297
    17  N   -0.566340
    18  H    0.325303
    19  C   -0.308444
    20  H    0.187429
    21  H    0.175445
    22  H    0.144611
 Sum of Mulliken atomic charges =   0.00000

 Dipole moment (field-independent basis, Debye):
    X=             -3.5215    Y=              0.3429    Z=             -3.8171  Tot=              5.2047
 Quadrupole moment (field-independent basis, Debye-Ang):
   XX=            -56.4015   YY=            -57.3792   ZZ=            -61.3367
   XY=             -5.4089   XZ=             -0.5010   YZ=              0.2672

 Normal termination of Gaussian 09 at Fri Feb 10 20:11:19 2017.
