 Gaussian 09, Revision A.02,
 Gaussian 09:  EM64L-G09RevA.02 11-Jun-2009

 ----------------------------------------------------------------------
 # b3lyp/6-31G* Opt=(ModRedundant, maxcycles=1000, calcfc) geom=nocrowd
 ----------------------------------------------------------------------

 ------------------
 Phi Psi fixed scan
 ------------------
 Symbolic Z-matrix:
 Charge =  0 Multiplicity = 1

 SCF Done:  E(RB3LYP) =  -495.797988866     A.U. after   15 cycles

  Exact polarizability:   0.000   0.000   0.000   0.000   0.000   0.000
 Approx polarizability: 117.462   0.011 122.519  17.168   3.800 102.538

 SCF Done:  E(RB3LYP) =  -495.813915868     A.U. after   13 cycles
 SCF Done:  E(RB3LYP) =  -495.833258244     A.U. after   13 cycles
 SCF Done:  E(RB3LYP) =  -495.824717479     A.U. after   16 cycles
 SCF Done:  E(RB3LYP) =  -495.829137287     A.U. after   12 cycles
 SCF Done:  E(RB3LYP) =  -495.833378644     A.U. after   16 cycles
 SCF Done:  E(RB3LYP) =  -495.834622041     A.U. after   12 cycles
 SCF Done:  E(RB3LYP) =  -495.836490320     A.U. after   13 cycles
 SCF Done:  E(RB3LYP) =  -495.837222393     A.U. after   16 cycles
 SCF Done:  E(RB3LYP) =  -495.837071469     A.U. after   13 cycles
 SCF Done:  E(RB3LYP) =  -495.838887493     A.U. after   11 cycles
 SCF Done:  E(RB3LYP) =  -495.838911314     A.U. after   11 cycles
 SCF Done:  E(RB3LYP) =  -495.838924180     A.U. after   10 cycles
 SCF Done:  E(RB3LYP) =  -495.838946514     A.U. after   10 cycles
 SCF Done:  E(RB3LYP) =  -495.838963850     A.U. after   10 cycles
 SCF Done:  E(RB3LYP) =  -495.838974556     A.U. after   10 cycles
 SCF Done:  E(RB3LYP) =  -495.838982548     A.U. after   10 cycles
 SCF Done:  E(RB3LYP) =  -495.838984170     A.U. after    9 cycles
 SCF Done:  E(RB3LYP) =  -495.838984531     A.U. after    8 cycles
 SCF Done:  E(RB3LYP) =  -495.838984595     A.U. after    7 cycles
 Optimization completed.
    -- Stationary point found.

                         Standard orientation:
 ---------------------------------------------------------------------
 Center     Atomic      Atomic             Coordinates (Angstroms)
 Number     Number       Type             X           Y           Z
 ---------------------------------------------------------------------
      1          1           0       -3.691966   -0.676147    1.042782
      2          6           0       -3.287444   -0.697880    0.025672
      3          1           0       -3.782654    0.077747   -0.566684
      4          1           0       -3.524917   -1.677994   -0.397488
      5          6           0       -1.771736   -0.558629    0.107835
      6          8           0       -1.095688   -1.421761    0.664400
      7          7           0       -1.269070    0.563963   -0.480695
      8          1           0       -1.958120    1.173439   -0.900255
      9          6           0        0.082353    1.162057   -0.492065
     10          1           0        0.303102    1.373784   -1.548551
     11          6           0        0.046504    2.490355    0.273883
     12          1           0       -0.149362    2.313933    1.335741
     13          1           0        1.005588    3.002366    0.185358
     14          1           0       -0.742430    3.139498   -0.124981
     15          6           0        1.302815    0.315393   -0.030400
     16          8           0        2.223433    0.883863    0.543999
     17          7           0        1.392633   -0.965547   -0.494827
     18          1           0        0.508655   -1.466573   -0.482116
     19          6           0        2.555652   -1.756213   -0.106964
     20          1           0        3.464688   -1.201245   -0.345982
     21          1           0        2.566845   -1.982742    0.967201
     22          1           0        2.544803   -2.692299   -0.671321
 ---------------------------------------------------------------------

 The electronic state is 1-A.
 Alpha  occ. eigenvalues --  -19.11995 -19.10898 -14.37691 -14.33947 -10.30239
 Alpha  occ. eigenvalues --  -10.28147 -10.24603 -10.20295 -10.20184 -10.18191
 Alpha  occ. eigenvalues --   -1.04104  -1.02628  -0.93521  -0.90375  -0.78455
 Alpha  occ. eigenvalues --   -0.73362  -0.69872  -0.64255  -0.60246  -0.55660
 Alpha  occ. eigenvalues --   -0.52288  -0.50260  -0.47619  -0.46176  -0.44710
 Alpha  occ. eigenvalues --   -0.43532  -0.42122  -0.41512  -0.40875  -0.39883
 Alpha  occ. eigenvalues --   -0.38138  -0.37787  -0.36718  -0.35982  -0.35163
 Alpha  occ. eigenvalues --   -0.26866  -0.26283  -0.24958  -0.23646
 Alpha virt. eigenvalues --    0.01500   0.02144   0.06001   0.10811   0.12081
 Alpha virt. eigenvalues --    0.13459   0.13859   0.14980   0.15589   0.16150
 Alpha virt. eigenvalues --    0.16920   0.17443   0.18190   0.18748   0.20869

 Mulliken atomic charges:
              1
     1  H    0.191811
     2  C   -0.533582
     3  H    0.144639
     4  H    0.188649
     5  C    0.597160
     6  O   -0.527041
     7  N   -0.600096
     8  H    0.326561
     9  C   -0.048615
    10  H    0.174298
    11  C   -0.430716
    12  H    0.166716
    13  H    0.183210
    14  H    0.123400
    15  C    0.601561
    16  O   -0.514372
    17  N   -0.587860
    18  H    0.355920
    19  C   -0.302780
    20  H    0.179029
    21  H    0.164419
    22  H    0.147689
 Sum of Mulliken atomic charges =   0.00000

 Dipole moment (field-independent basis, Debye):
    X=             -3.6784    Y=              0.7460    Z=             -2.5008  Tot=              4.5101
 Quadrupole moment (field-independent basis, Debye-Ang):
   XX=            -56.8517   YY=            -58.6652   ZZ=            -60.9394
   XY=             -7.1668   XZ=             -0.1781   YZ=             -0.5076

 Normal termination of Gaussian 09 at Fri Feb 10 20:16:46 2017.
