 Gaussian 09, Revision A.02,
 Gaussian 09:  EM64L-G09RevA.02 11-Jun-2009

 -------------------------------------------
 # HF/6-31G* Opt=(ModRedundant) geom=nocrowd
 -------------------------------------------

 ------------------
 Phi Psi fixed scan
 ------------------
 Symbolic Z-matrix:
 Charge =  0 Multiplicity = 1

 SCF Done:  E(RHF) =  -492.842190883     A.U. after   15 cycles
 SCF Done:  E(RHF) =  -492.850416152     A.U. after   13 cycles
 SCF Done:  E(RHF) =  -492.852743782     A.U. after   13 cycles
 SCF Done:  E(RHF) =  -492.853735394     A.U. after   13 cycles
 SCF Done:  E(RHF) =  -492.854855453     A.U. after   14 cycles
 SCF Done:  E(RHF) =  -492.854769328     A.U. after   13 cycles
 SCF Done:  E(RHF) =  -492.855257291     A.U. after   13 cycles
 SCF Done:  E(RHF) =  -492.855310686     A.U. after   12 cycles
 SCF Done:  E(RHF) =  -492.855323255     A.U. after   11 cycles
 SCF Done:  E(RHF) =  -492.855339895     A.U. after   11 cycles
 SCF Done:  E(RHF) =  -492.855693244     A.U. after   11 cycles
 SCF Done:  E(RHF) =  -492.855661471     A.U. after   12 cycles
 SCF Done:  E(RHF) =  -492.855760377     A.U. after   11 cycles
 SCF Done:  E(RHF) =  -492.855772479     A.U. after   12 cycles
 SCF Done:  E(RHF) =  -492.855818620     A.U. after   11 cycles
 SCF Done:  E(RHF) =  -492.855821727     A.U. after   10 cycles
 SCF Done:  E(RHF) =  -492.855828274     A.U. after   11 cycles
 SCF Done:  E(RHF) =  -492.855834463     A.U. after   10 cycles
 SCF Done:  E(RHF) =  -492.855836261     A.U. after   10 cycles
 SCF Done:  E(RHF) =  -492.855836334     A.U. after    8 cycles
 Optimization completed.
    -- Stationary point found.

                         Standard orientation:
 ---------------------------------------------------------------------
 Center     Atomic      Atomic             Coordinates (Angstroms)
 Number     Number       Type             X           Y           Z
 ---------------------------------------------------------------------
      1          1           0        4.200143   -0.939808    0.113989
      2          6           0        3.246703   -1.066211   -0.377308
      3          1           0        2.893932   -2.079386   -0.209087
      4          1           0        3.361401   -0.922595   -1.445872
      5          6           0        2.254031   -0.087077    0.208509
      6          8           0        2.457588    0.502423    1.233010
      7          7           0        1.119090    0.084296   -0.529979
      8          1           0        0.916993   -0.640337   -1.183940
      9          6           0       -0.050114    0.702474    0.054979
     10          1           0        0.166944    0.880438    1.101008
     11          6           0       -0.344891    2.045298   -0.623626
     12          1           0       -0.618748    1.906402   -1.663962
     13          1           0       -1.139937    2.596313   -0.131989
     14          1           0        0.548348    2.655310   -0.584230
     15          6           0       -1.211227   -0.298477   -0.007325
     16          8           0       -1.025093   -1.458448   -0.265736
     17          7           0       -2.446821    0.199630    0.200956
     18          1           0       -2.542555    1.129465    0.534294
     19          6           0       -3.601950   -0.671855    0.274231
     20          1           0       -3.624539   -1.321273   -0.588329
     21          1           0       -3.588308   -1.287591    1.166785
     22          1           0       -4.494829   -0.061128    0.279535
 ---------------------------------------------------------------------

 The electronic state is 1-A.
 Alpha  occ. eigenvalues --  -20.53313 -20.52198 -15.59392 -15.57552 -11.35276
 Alpha  occ. eigenvalues --  -11.34393 -11.27899 -11.26374 -11.22977 -11.22647
 Alpha  occ. eigenvalues --   -1.40343  -1.38789  -1.24143  -1.23361  -1.05574
 Alpha  occ. eigenvalues --   -0.99080  -0.96025  -0.88510  -0.80092  -0.78303
 Alpha  occ. eigenvalues --   -0.73303  -0.67207  -0.65680  -0.64551  -0.63168
 Alpha  occ. eigenvalues --   -0.61953  -0.59610  -0.58941  -0.57060  -0.56368
 Alpha  occ. eigenvalues --   -0.55969  -0.54219  -0.53638  -0.52154  -0.49449
 Alpha  occ. eigenvalues --   -0.42635  -0.41627  -0.39990  -0.39149
 Alpha virt. eigenvalues --    0.19269   0.20334   0.21472   0.24242   0.26084
 Alpha virt. eigenvalues --    0.28202   0.29132   0.30008   0.31386   0.31482
 Alpha virt. eigenvalues --    0.32082   0.33214   0.33556   0.34417   0.38311

 Mulliken atomic charges:
              1
     1  H    0.211865
     2  C   -0.592450
     3  H    0.201777
     4  H    0.184908
     5  C    0.734908
     6  O   -0.601622
     7  N   -0.770707
     8  H    0.398889
     9  C   -0.078138
    10  H    0.248647
    11  C   -0.470381
    12  H    0.173177
    13  H    0.144854
    14  H    0.198966
    15  C    0.761828
    16  O   -0.622750
    17  N   -0.796443
    18  H    0.390527
    19  C   -0.273204
    20  H    0.204066
    21  H    0.181090
    22  H    0.170192
 Sum of Mulliken atomic charges =   0.00000

 Dipole moment (field-independent basis, Debye):
    X=             -2.9568    Y=              1.1972    Z=             -1.5566  Tot=              3.5495
 Quadrupole moment (field-independent basis, Debye-Ang):
   XX=            -53.6391   YY=            -62.2939   ZZ=            -62.7758
   XY=             -8.7057   XZ=             -9.3453   YZ=             -0.4671

 Normal termination of Gaussian 09 at Fri Feb 10 13:10:58 2017.
