 Gaussian 09, Revision A.02,
 Gaussian 09:  EM64L-G09RevA.02 11-Jun-2009

 -------------------------------------------
 # HF/6-31G* Opt=(ModRedundant) geom=nocrowd
 -------------------------------------------

 ------------------
 Phi Psi fixed scan
 ------------------
 Symbolic Z-matrix:
 Charge =  0 Multiplicity = 1

 SCF Done:  E(RHF) =  -492.842060970     A.U. after   15 cycles
 SCF Done:  E(RHF) =  -492.850680920     A.U. after   14 cycles
 SCF Done:  E(RHF) =  -492.853070729     A.U. after   13 cycles
 SCF Done:  E(RHF) =  -492.854016037     A.U. after   13 cycles
 SCF Done:  E(RHF) =  -492.854549560     A.U. after   13 cycles
 SCF Done:  E(RHF) =  -492.854972720     A.U. after   13 cycles
 SCF Done:  E(RHF) =  -492.854885625     A.U. after   12 cycles
 SCF Done:  E(RHF) =  -492.855071506     A.U. after   11 cycles
 SCF Done:  E(RHF) =  -492.855111680     A.U. after   11 cycles
 SCF Done:  E(RHF) =  -492.855346994     A.U. after   12 cycles
 SCF Done:  E(RHF) =  -492.855544161     A.U. after   12 cycles
 SCF Done:  E(RHF) =  -492.855382331     A.U. after   11 cycles
 SCF Done:  E(RHF) =  -492.855635379     A.U. after   14 cycles
 SCF Done:  E(RHF) =  -492.855664623     A.U. after   11 cycles
 SCF Done:  E(RHF) =  -492.855688317     A.U. after   11 cycles
 SCF Done:  E(RHF) =  -492.855685175     A.U. after   11 cycles
 SCF Done:  E(RHF) =  -492.855692266     A.U. after   11 cycles
 SCF Done:  E(RHF) =  -492.855693713     A.U. after   10 cycles
 SCF Done:  E(RHF) =  -492.855694466     A.U. after    9 cycles
 SCF Done:  E(RHF) =  -492.855695355     A.U. after   10 cycles
 Optimization completed.
    -- Stationary point found.

                         Standard orientation:
 ---------------------------------------------------------------------
 Center     Atomic      Atomic             Coordinates (Angstroms)
 Number     Number       Type             X           Y           Z
 ---------------------------------------------------------------------
      1          1           0        3.859230   -1.499371    0.155179
      2          6           0        3.184229   -1.008805   -0.530468
      3          1           0        2.775505   -1.734814   -1.224518
      4          1           0        3.744524   -0.273176   -1.100165
      5          6           0        2.102477   -0.307678    0.263274
      6          8           0        2.238092   -0.024846    1.417587
      7          7           0        0.963898   -0.027447   -0.442720
      8          1           0        1.030709   -0.114285   -1.433798
      9          6           0       -0.045052    0.893851    0.055830
     10          1           0        0.271976    1.200461    1.040408
     11          6           0       -0.172301    2.126367   -0.842909
     12          1           0       -0.465575    1.845770   -1.851421
     13          1           0       -0.922965    2.796496   -0.447286
     14          1           0        0.776089    2.649637   -0.893382
     15          6           0       -1.424521    0.261488    0.243091
     16          8           0       -2.280786    0.872417    0.823266
     17          7           0       -1.640957   -0.934701   -0.344979
     18          1           0       -0.838621   -1.472434   -0.577075
     19          6           0       -2.893997   -1.633351   -0.148350
     20          1           0       -3.715510   -0.962387   -0.349634
     21          1           0       -2.940633   -2.465433   -0.838936
     22          1           0       -2.998774   -2.007242    0.864894
 ---------------------------------------------------------------------

 The electronic state is 1-A.
 Alpha  occ. eigenvalues --  -20.53637 -20.51935 -15.59808 -15.58309 -11.36074
 Alpha  occ. eigenvalues --  -11.34057 -11.27817 -11.25586 -11.24362 -11.22955
 Alpha  occ. eigenvalues --   -1.40517  -1.38870  -1.25440  -1.22567  -1.05975
 Alpha  occ. eigenvalues --   -1.00067  -0.95985  -0.88151  -0.80613  -0.78538
 Alpha  occ. eigenvalues --   -0.73157  -0.68291  -0.66915  -0.63477  -0.62677
 Alpha  occ. eigenvalues --   -0.62636  -0.59519  -0.59259  -0.58573  -0.56607
 Alpha  occ. eigenvalues --   -0.55114  -0.54780  -0.53246  -0.52269  -0.49693
 Alpha  occ. eigenvalues --   -0.44013  -0.42939  -0.39129  -0.38763
 Alpha virt. eigenvalues --    0.19012   0.19793   0.20225   0.24821   0.25848
 Alpha virt. eigenvalues --    0.27418   0.28705   0.29648   0.30609   0.31390
 Alpha virt. eigenvalues --    0.31929   0.33105   0.33752   0.34511   0.37665

 Mulliken atomic charges:
              1
     1  H    0.220808
     2  C   -0.591716
     3  H    0.176978
     4  H    0.198811
     5  C    0.738846
     6  O   -0.580675
     7  N   -0.828179
     8  H    0.380550
     9  C   -0.045645
    10  H    0.262931
    11  C   -0.499636
    12  H    0.158283
    13  H    0.216150
    14  H    0.177273
    15  C    0.759490
    16  O   -0.616971
    17  N   -0.791520
    18  H    0.393216
    19  C   -0.277956
    20  H    0.204955
    21  H    0.165799
    22  H    0.178208
 Sum of Mulliken atomic charges =   0.00000

 Dipole moment (field-independent basis, Debye):
    X=              1.8069    Y=             -2.5371    Z=             -5.1399  Tot=              6.0100
 Quadrupole moment (field-independent basis, Debye-Ang):
   XX=            -64.8052   YY=            -56.2627   ZZ=            -64.6158
   XY=              4.4933   XZ=             -4.2231   YZ=             -1.0247

 Normal termination of Gaussian 09 at Fri Feb 10 13:58:25 2017.
