 Gaussian 09, Revision A.02,
 Gaussian 09:  EM64L-G09RevA.02 11-Jun-2009

 -------------------------------------------
 # HF/6-31G* Opt=(ModRedundant) geom=nocrowd
 -------------------------------------------

 ------------------
 Phi Psi fixed scan
 ------------------
 Symbolic Z-matrix:
 Charge =  0 Multiplicity = 1

 SCF Done:  E(RHF) =  -492.845377989     A.U. after   15 cycles
 SCF Done:  E(RHF) =  -492.853190899     A.U. after   14 cycles
 SCF Done:  E(RHF) =  -492.855204815     A.U. after   13 cycles
 SCF Done:  E(RHF) =  -492.855936616     A.U. after   13 cycles
 SCF Done:  E(RHF) =  -492.856087170     A.U. after   13 cycles
 SCF Done:  E(RHF) =  -492.856153185     A.U. after   13 cycles
 SCF Done:  E(RHF) =  -492.856375678     A.U. after   13 cycles
 SCF Done:  E(RHF) =  -492.856395847     A.U. after   12 cycles
 SCF Done:  E(RHF) =  -492.856438274     A.U. after   11 cycles
 SCF Done:  E(RHF) =  -492.856499362     A.U. after   11 cycles
 SCF Done:  E(RHF) =  -492.856861175     A.U. after   12 cycles
 SCF Done:  E(RHF) =  -492.856867587     A.U. after   11 cycles
 SCF Done:  E(RHF) =  -492.856883783     A.U. after   11 cycles
 SCF Done:  E(RHF) =  -492.856897174     A.U. after   11 cycles
 SCF Done:  E(RHF) =  -492.856907610     A.U. after   11 cycles
 SCF Done:  E(RHF) =  -492.856913629     A.U. after   11 cycles
 SCF Done:  E(RHF) =  -492.856916491     A.U. after   10 cycles
 SCF Done:  E(RHF) =  -492.856918462     A.U. after   10 cycles
 SCF Done:  E(RHF) =  -492.856918836     A.U. after    9 cycles
 SCF Done:  E(RHF) =  -492.856918898     A.U. after    8 cycles
 Optimization completed.
    -- Stationary point found.

                         Standard orientation:
 ---------------------------------------------------------------------
 Center     Atomic      Atomic             Coordinates (Angstroms)
 Number     Number       Type             X           Y           Z
 ---------------------------------------------------------------------
      1          1           0        3.803431   -1.551638    0.060041
      2          6           0        3.171956   -0.959648   -0.586032
      3          1           0        2.776182   -1.581378   -1.381400
      4          1           0        3.776241   -0.177370   -1.035742
      5          6           0        2.077246   -0.325075    0.245077
      6          8           0        2.186431   -0.159878    1.425544
      7          7           0        0.963463    0.042628   -0.455978
      8          1           0        1.033215    0.023531   -1.450026
      9          6           0       -0.059766    0.908391    0.106289
     10          1           0        0.224801    1.092862    1.131746
     11          6           0       -0.139064    2.240204   -0.642006
     12          1           0       -0.385347    2.085264   -1.689515
     13          1           0       -0.904567    2.865677   -0.206003
     14          1           0        0.814275    2.753672   -0.586247
     15          6           0       -1.447224    0.265488    0.174159
     16          8           0       -2.376059    0.902550    0.594511
     17          7           0       -1.567339   -0.996585   -0.281151
     18          1           0       -0.731572   -1.510751   -0.431612
     19          6           0       -2.813088   -1.720025   -0.141751
     20          1           0       -3.628774   -1.108327   -0.497403
     21          1           0       -2.761049   -2.621301   -0.738665
     22          1           0       -3.013044   -1.989921    0.889873
 ---------------------------------------------------------------------

 The electronic state is 1-A.
 Alpha  occ. eigenvalues --  -20.53592 -20.51811 -15.59830 -15.58305 -11.36107
 Alpha  occ. eigenvalues --  -11.34079 -11.27877 -11.25602 -11.24387 -11.22621
 Alpha  occ. eigenvalues --   -1.40497  -1.38790  -1.25474  -1.22568  -1.05896
 Alpha  occ. eigenvalues --   -1.00004  -0.96103  -0.88009  -0.80689  -0.78628
 Alpha  occ. eigenvalues --   -0.73310  -0.68306  -0.66872  -0.63613  -0.62672
 Alpha  occ. eigenvalues --   -0.62448  -0.59670  -0.59264  -0.58521  -0.56307
 Alpha  occ. eigenvalues --   -0.55172  -0.54604  -0.53076  -0.52318  -0.49697
 Alpha  occ. eigenvalues --   -0.43914  -0.42938  -0.39175  -0.38557
 Alpha virt. eigenvalues --    0.19153   0.19632   0.20720   0.24614   0.25985
 Alpha virt. eigenvalues --    0.27541   0.28472   0.29579   0.30510   0.31549
 Alpha virt. eigenvalues --    0.32219   0.33144   0.33657   0.34808   0.37504

 Mulliken atomic charges:
              1
     1  H    0.219920
     2  C   -0.590457
     3  H    0.175533
     4  H    0.201043
     5  C    0.737979
     6  O   -0.584511
     7  N   -0.830365
     8  H    0.382564
     9  C   -0.048616
    10  H    0.263017
    11  C   -0.494384
    12  H    0.155891
    13  H    0.218753
    14  H    0.174893
    15  C    0.764125
    16  O   -0.621920
    17  N   -0.794530
    18  H    0.397003
    19  C   -0.275021
    20  H    0.204188
    21  H    0.165644
    22  H    0.179250
 Sum of Mulliken atomic charges =   0.00000

 Dipole moment (field-independent basis, Debye):
    X=              2.0663    Y=             -2.3445    Z=             -4.6868  Tot=              5.6331
 Quadrupole moment (field-independent basis, Debye-Ang):
   XX=            -65.7688   YY=            -56.3370   ZZ=            -63.8259
   XY=              5.5861   XZ=             -5.1653   YZ=             -0.2193

 Normal termination of Gaussian 09 at Fri Feb 10 12:12:50 2017.
