 Gaussian 09, Revision A.02,
 Gaussian 09:  EM64L-G09RevA.02 11-Jun-2009

 -------------------------------------------
 # HF/6-31G* Opt=(ModRedundant) geom=nocrowd
 -------------------------------------------

 ------------------
 Phi Psi fixed scan
 ------------------
 Symbolic Z-matrix:
 Charge =  0 Multiplicity = 1

 SCF Done:  E(RHF) =  -492.848738414     A.U. after   15 cycles
 SCF Done:  E(RHF) =  -492.855682211     A.U. after   14 cycles
 SCF Done:  E(RHF) =  -492.856339408     A.U. after   13 cycles
 SCF Done:  E(RHF) =  -492.856518747     A.U. after   13 cycles
 SCF Done:  E(RHF) =  -492.856709928     A.U. after   13 cycles
 SCF Done:  E(RHF) =  -492.856758953     A.U. after   13 cycles
 SCF Done:  E(RHF) =  -492.856825466     A.U. after   12 cycles
 SCF Done:  E(RHF) =  -492.856854396     A.U. after   11 cycles
 SCF Done:  E(RHF) =  -492.856873701     A.U. after   11 cycles
 SCF Done:  E(RHF) =  -492.856896655     A.U. after   11 cycles
 SCF Done:  E(RHF) =  -492.857135282     A.U. after   11 cycles
 SCF Done:  E(RHF) =  -492.857147687     A.U. after    9 cycles
 SCF Done:  E(RHF) =  -492.857166630     A.U. after   10 cycles
 SCF Done:  E(RHF) =  -492.857197514     A.U. after   11 cycles
 SCF Done:  E(RHF) =  -492.857241678     A.U. after   11 cycles
 SCF Done:  E(RHF) =  -492.857257957     A.U. after   12 cycles
 SCF Done:  E(RHF) =  -492.857266093     A.U. after   11 cycles
 SCF Done:  E(RHF) =  -492.857266036     A.U. after    9 cycles
 SCF Done:  E(RHF) =  -492.857267209     A.U. after   10 cycles
 SCF Done:  E(RHF) =  -492.857267223     A.U. after    7 cycles
 Optimization completed.
    -- Stationary point found.

                         Standard orientation:
 ---------------------------------------------------------------------
 Center     Atomic      Atomic             Coordinates (Angstroms)
 Number     Number       Type             X           Y           Z
 ---------------------------------------------------------------------
      1          1           0        3.728771   -1.596152   -0.195703
      2          6           0        3.155764   -0.845644   -0.720412
      3          1           0        2.782760   -1.254779   -1.652633
      4          1           0        3.812278   -0.012851   -0.953520
      5          6           0        2.042855   -0.357680    0.182279
      6          8           0        2.109917   -0.436314    1.376948
      7          7           0        0.970111    0.176808   -0.462548
      8          1           0        1.029431    0.283561   -1.450856
      9          6           0       -0.080878    0.914336    0.217049
     10          1           0        0.147230    0.852418    1.272860
     11          6           0       -0.101436    2.379347   -0.211393
     12          1           0       -0.291581    2.471995   -1.276669
     13          1           0       -0.881771    2.914313    0.309638
     14          1           0        0.855648    2.838054    0.010291
     15          6           0       -1.461754    0.269666    0.046427
     16          8           0       -2.462458    0.934556    0.083263
     17          7           0       -1.481156   -1.068436   -0.100592
     18          1           0       -0.625956   -1.564738   -0.014787
     19          6           0       -2.725629   -1.806136   -0.094849
     20          1           0       -3.421785   -1.357878   -0.788876
     21          1           0       -2.527244   -2.824415   -0.402348
     22          1           0       -3.183677   -1.817406    0.888289
 ---------------------------------------------------------------------

 The electronic state is 1-A.
 Alpha  occ. eigenvalues --  -20.53418 -20.52074 -15.59777 -15.58220 -11.36062
 Alpha  occ. eigenvalues --  -11.34164 -11.27971 -11.25622 -11.24321 -11.22063
 Alpha  occ. eigenvalues --   -1.40361  -1.38939  -1.25398  -1.22552  -1.05802
 Alpha  occ. eigenvalues --   -0.99853  -0.96203  -0.87745  -0.80744  -0.78699
 Alpha  occ. eigenvalues --   -0.73381  -0.68247  -0.66678  -0.64153  -0.62635
 Alpha  occ. eigenvalues --   -0.62159  -0.59942  -0.59214  -0.58359  -0.55723
 Alpha  occ. eigenvalues --   -0.55185  -0.54015  -0.52867  -0.52321  -0.50258
 Alpha  occ. eigenvalues --   -0.43748  -0.42865  -0.39473  -0.38112
 Alpha virt. eigenvalues --    0.19110   0.19444   0.21706   0.24202   0.26210
 Alpha virt. eigenvalues --    0.27369   0.27964   0.29558   0.30474   0.31831
 Alpha virt. eigenvalues --    0.32484   0.33251   0.33604   0.34726   0.37450

 Mulliken atomic charges:
              1
     1  H    0.217620
     2  C   -0.588527
     3  H    0.175860
     4  H    0.203452
     5  C    0.736537
     6  O   -0.595674
     7  N   -0.818561
     8  H    0.385450
     9  C   -0.072144
    10  H    0.258850
    11  C   -0.475628
    12  H    0.158136
    13  H    0.211075
    14  H    0.170309
    15  C    0.768859
    16  O   -0.620600
    17  N   -0.790497
    18  H    0.399867
    19  C   -0.270720
    20  H    0.200171
    21  H    0.166409
    22  H    0.179756
 Sum of Mulliken atomic charges =   0.00000

 Dipole moment (field-independent basis, Debye):
    X=              2.2082    Y=             -1.8550    Z=             -3.4927  Tot=              4.5295
 Quadrupole moment (field-independent basis, Debye-Ang):
   XX=            -66.6028   YY=            -56.8909   ZZ=            -62.4387
   XY=              7.3452   XZ=             -7.8241   YZ=              1.4031

 Normal termination of Gaussian 09 at Fri Feb 10 12:21:49 2017.
