 Gaussian 09, Revision A.02,
 Gaussian 09:  EM64L-G09RevA.02 11-Jun-2009

 -------------------------------------------
 # HF/6-31G* Opt=(ModRedundant) geom=nocrowd
 -------------------------------------------

 ------------------
 Phi Psi fixed scan
 ------------------
 Symbolic Z-matrix:
 Charge =  0 Multiplicity = 1

 SCF Done:  E(RHF) =  -492.850714879     A.U. after   15 cycles
 SCF Done:  E(RHF) =  -492.857265576     A.U. after   16 cycles
 SCF Done:  E(RHF) =  -492.857597604     A.U. after   13 cycles
 SCF Done:  E(RHF) =  -492.857575739     A.U. after   12 cycles
 SCF Done:  E(RHF) =  -492.857704163     A.U. after   11 cycles
 SCF Done:  E(RHF) =  -492.857734753     A.U. after   11 cycles
 SCF Done:  E(RHF) =  -492.857776719     A.U. after   12 cycles
 SCF Done:  E(RHF) =  -492.857806951     A.U. after   12 cycles
 SCF Done:  E(RHF) =  -492.857829086     A.U. after   12 cycles
 SCF Done:  E(RHF) =  -492.857860352     A.U. after   12 cycles
 SCF Done:  E(RHF) =  -492.858216047     A.U. after   11 cycles
 SCF Done:  E(RHF) =  -492.858218280     A.U. after   11 cycles
 SCF Done:  E(RHF) =  -492.858224136     A.U. after   11 cycles
 SCF Done:  E(RHF) =  -492.858225821     A.U. after    9 cycles
 SCF Done:  E(RHF) =  -492.858231617     A.U. after   10 cycles
 SCF Done:  E(RHF) =  -492.858233704     A.U. after   11 cycles
 SCF Done:  E(RHF) =  -492.858233923     A.U. after    8 cycles
 SCF Done:  E(RHF) =  -492.858233982     A.U. after    7 cycles
 SCF Done:  E(RHF) =  -492.858234009     A.U. after    7 cycles
 SCF Done:  E(RHF) =  -492.858234016     A.U. after    7 cycles
 Optimization completed.
    -- Stationary point found.

                         Standard orientation:
 ---------------------------------------------------------------------
 Center     Atomic      Atomic             Coordinates (Angstroms)
 Number     Number       Type             X           Y           Z
 ---------------------------------------------------------------------
      1          1           0       -3.577453   -1.702448    0.661679
      2          6           0       -3.128293   -0.751799    0.910756
      3          1           0       -2.785867   -0.767165    1.938950
      4          1           0       -3.886146    0.019366    0.813805
      5          6           0       -2.012563   -0.465754   -0.070346
      6          8           0       -2.029172   -0.891135   -1.194415
      7          7           0       -1.006878    0.308356    0.405283
      8          1           0       -1.061546    0.653621    1.337333
      9          6           0        0.052710    0.838421   -0.436963
     10          1           0       -0.130295    0.453874   -1.427949
     11          6           0        0.046314    2.362013   -0.459661
     12          1           0        0.216217    2.762951    0.531708
     13          1           0        0.833014    2.735892   -1.105723
     14          1           0       -0.906546    2.720771   -0.832353
     15          6           0        1.378615    0.295258    0.098571
     16          8           0        1.997061    0.866836    0.956308
     17          7           0        1.768910   -0.876944   -0.440621
     18          1           0        1.128998   -1.354254   -1.034489
     19          6           0        2.908650   -1.606485    0.071572
     20          1           0        3.738824   -0.929656    0.208849
     21          1           0        2.692875   -2.082002    1.022975
     22          1           0        3.187994   -2.366370   -0.646126
 ---------------------------------------------------------------------

 The electronic state is 1-A.
 Alpha  occ. eigenvalues --  -20.52870 -20.52431 -15.59423 -15.58490 -11.35665
 Alpha  occ. eigenvalues --  -11.34278 -11.27804 -11.25674 -11.23856 -11.22081
 Alpha  occ. eigenvalues --   -1.39893  -1.39074  -1.24773  -1.23016  -1.05755
 Alpha  occ. eigenvalues --   -0.99625  -0.96293  -0.87661  -0.80455  -0.78802
 Alpha  occ. eigenvalues --   -0.73039  -0.67822  -0.66341  -0.64703  -0.62489
 Alpha  occ. eigenvalues --   -0.61984  -0.60222  -0.58927  -0.57909  -0.56307
 Alpha  occ. eigenvalues --   -0.55166  -0.53550  -0.52376  -0.51703  -0.51476
 Alpha  occ. eigenvalues --   -0.43307  -0.42478  -0.39001  -0.38654
 Alpha virt. eigenvalues --    0.18673   0.21403   0.21967   0.23242   0.26384
 Alpha virt. eigenvalues --    0.26896   0.27865   0.30144   0.31109   0.32178
 Alpha virt. eigenvalues --    0.32486   0.33191   0.34072   0.35204   0.37618

 Mulliken atomic charges:
              1
     1  H    0.214489
     2  C   -0.583831
     3  H    0.176817
     4  H    0.203208
     5  C    0.747520
     6  O   -0.614321
     7  N   -0.801325
     8  H    0.393634
     9  C   -0.075437
    10  H    0.239166
    11  C   -0.477987
    12  H    0.187542
    13  H    0.177384
    14  H    0.172573
    15  C    0.782172
    16  O   -0.620551
    17  N   -0.795048
    18  H    0.399451
    19  C   -0.275816
    20  H    0.205305
    21  H    0.173576
    22  H    0.171479
 Sum of Mulliken atomic charges =   0.00000

 Dipole moment (field-independent basis, Debye):
    X=             -1.1119    Y=             -0.7143    Z=              0.9328  Tot=              1.6176
 Quadrupole moment (field-independent basis, Debye-Ang):
   XX=            -61.2180   YY=            -58.5749   ZZ=            -63.0061
   XY=             -8.6708   XZ=            -12.0558   YZ=             -3.6597

 Normal termination of Gaussian 09 at Fri Feb 10 12:37:26 2017.
