 Gaussian 09, Revision A.02,
 Gaussian 09:  EM64L-G09RevA.02 11-Jun-2009

 -------------------------------------------
 # HF/6-31G* Opt=(ModRedundant) geom=nocrowd
 -------------------------------------------

 ------------------
 Phi Psi fixed scan
 ------------------
 Symbolic Z-matrix:
 Charge =  0 Multiplicity = 1

 SCF Done:  E(RHF) =  -492.849254103     A.U. after   15 cycles
 SCF Done:  E(RHF) =  -492.856234890     A.U. after   13 cycles
 SCF Done:  E(RHF) =  -492.856735568     A.U. after   13 cycles
 SCF Done:  E(RHF) =  -492.856858268     A.U. after   13 cycles
 SCF Done:  E(RHF) =  -492.857009056     A.U. after   12 cycles
 SCF Done:  E(RHF) =  -492.857064369     A.U. after   13 cycles
 SCF Done:  E(RHF) =  -492.857123769     A.U. after   10 cycles
 SCF Done:  E(RHF) =  -492.857150813     A.U. after   10 cycles
 SCF Done:  E(RHF) =  -492.857161666     A.U. after   11 cycles
 SCF Done:  E(RHF) =  -492.857180161     A.U. after   11 cycles
 SCF Done:  E(RHF) =  -492.857385622     A.U. after   11 cycles
 SCF Done:  E(RHF) =  -492.857388053     A.U. after   12 cycles
 SCF Done:  E(RHF) =  -492.857405371     A.U. after   11 cycles
 SCF Done:  E(RHF) =  -492.857403414     A.U. after   10 cycles
 SCF Done:  E(RHF) =  -492.857411223     A.U. after   11 cycles
 SCF Done:  E(RHF) =  -492.857415587     A.U. after   11 cycles
 SCF Done:  E(RHF) =  -492.857416542     A.U. after   10 cycles
 SCF Done:  E(RHF) =  -492.857417444     A.U. after   11 cycles
 SCF Done:  E(RHF) =  -492.857417481     A.U. after    8 cycles
 SCF Done:  E(RHF) =  -492.857417486     A.U. after    7 cycles
 Optimization completed.
    -- Stationary point found.

                         Standard orientation:
 ---------------------------------------------------------------------
 Center     Atomic      Atomic             Coordinates (Angstroms)
 Number     Number       Type             X           Y           Z
 ---------------------------------------------------------------------
      1          1           0        3.686746   -1.589245   -0.482713
      2          6           0        3.152598   -0.723396   -0.845924
      3          1           0        2.809327   -0.902966   -1.858393
      4          1           0        3.835808    0.120272   -0.862532
      5          6           0        2.013791   -0.415678    0.101616
      6          8           0        2.031319   -0.756496    1.253516
      7          7           0        0.974252    0.266038   -0.443186
      8          1           0        1.056383    0.566216   -1.389114
      9          6           0       -0.072501    0.888813    0.352826
     10          1           0        0.138858    0.627357    1.379930
     11          6           0       -0.069609    2.404044    0.193171
     12          1           0       -0.256282    2.688576   -0.836042
     13          1           0       -0.846774    2.851408    0.798761
     14          1           0        0.890454    2.802591    0.502138
     15          6           0       -1.435205    0.287936   -0.014583
     16          8           0       -2.338423    0.953829   -0.443858
     17          7           0       -1.536542   -1.039142    0.188107
     18          1           0       -0.750064   -1.531451    0.544790
     19          6           0       -2.752284   -1.763345   -0.110043
     20          1           0       -3.591369   -1.347386    0.432628
     21          1           0       -2.981076   -1.727013   -1.168401
     22          1           0       -2.619892   -2.795546    0.184860
 ---------------------------------------------------------------------

 The electronic state is 1-A.
 Alpha  occ. eigenvalues --  -20.53332 -20.52304 -15.59653 -15.58000 -11.35979
 Alpha  occ. eigenvalues --  -11.34055 -11.27878 -11.25572 -11.24187 -11.22007
 Alpha  occ. eigenvalues --   -1.40237  -1.38977  -1.25136  -1.22533  -1.05781
 Alpha  occ. eigenvalues --   -0.99789  -0.96202  -0.87569  -0.80626  -0.78596
 Alpha  occ. eigenvalues --   -0.73065  -0.68168  -0.66578  -0.64513  -0.62550
 Alpha  occ. eigenvalues --   -0.61889  -0.60168  -0.59149  -0.58163  -0.55703
 Alpha  occ. eigenvalues --   -0.55042  -0.53246  -0.52946  -0.52226  -0.51013
 Alpha  occ. eigenvalues --   -0.43601  -0.42837  -0.39282  -0.38031
 Alpha virt. eigenvalues --    0.18695   0.20349   0.22088   0.23840   0.25921
 Alpha virt. eigenvalues --    0.27101   0.27451   0.29791   0.30798   0.32144
 Alpha virt. eigenvalues --    0.32577   0.33141   0.33938   0.34794   0.37849

 Mulliken atomic charges:
              1
     1  H    0.216489
     2  C   -0.586315
     3  H    0.178712
     4  H    0.202647
     5  C    0.741739
     6  O   -0.610735
     7  N   -0.796084
     8  H    0.387511
     9  C   -0.089763
    10  H    0.246844
    11  C   -0.467431
    12  H    0.172639
    13  H    0.192428
    14  H    0.167571
    15  C    0.774569
    16  O   -0.615992
    17  N   -0.794287
    18  H    0.404619
    19  C   -0.265820
    20  H    0.190452
    21  H    0.181767
    22  H    0.168440
 Sum of Mulliken atomic charges =   0.00000

 Dipole moment (field-independent basis, Debye):
    X=              2.0556    Y=             -1.0989    Z=             -2.1161  Tot=              3.1481
 Quadrupole moment (field-independent basis, Debye-Ang):
   XX=            -64.7744   YY=            -57.9321   ZZ=            -61.8496
   XY=              8.9373   XZ=            -10.2905   YZ=              2.8506

 Normal termination of Gaussian 09 at Fri Feb 10 12:31:34 2017.
