 Gaussian 09, Revision A.02,
 Gaussian 09:  EM64L-G09RevA.02 11-Jun-2009

 -------------------------------------------
 # HF/6-31G* Opt=(ModRedundant) geom=nocrowd
 -------------------------------------------

 ------------------
 Phi Psi fixed scan
 ------------------
 Symbolic Z-matrix:
 Charge =  0 Multiplicity = 1

 SCF Done:  E(RHF) =  -492.849872094     A.U. after   15 cycles
 SCF Done:  E(RHF) =  -492.856801769     A.U. after   13 cycles
 SCF Done:  E(RHF) =  -492.857222551     A.U. after   13 cycles
 SCF Done:  E(RHF) =  -492.857277295     A.U. after   13 cycles
 SCF Done:  E(RHF) =  -492.857434305     A.U. after   11 cycles
 SCF Done:  E(RHF) =  -492.857495791     A.U. after   13 cycles
 SCF Done:  E(RHF) =  -492.857553775     A.U. after   12 cycles
 SCF Done:  E(RHF) =  -492.857586417     A.U. after   11 cycles
 SCF Done:  E(RHF) =  -492.857603444     A.U. after   11 cycles
 SCF Done:  E(RHF) =  -492.857631455     A.U. after   11 cycles
 SCF Done:  E(RHF) =  -492.857871804     A.U. after   12 cycles
 SCF Done:  E(RHF) =  -492.857893737     A.U. after   11 cycles
 SCF Done:  E(RHF) =  -492.857906646     A.U. after   11 cycles
 SCF Done:  E(RHF) =  -492.857925516     A.U. after   11 cycles
 SCF Done:  E(RHF) =  -492.857942256     A.U. after   12 cycles
 SCF Done:  E(RHF) =  -492.857949781     A.U. after   11 cycles
 SCF Done:  E(RHF) =  -492.857953886     A.U. after   11 cycles
 SCF Done:  E(RHF) =  -492.857954503     A.U. after   10 cycles
 SCF Done:  E(RHF) =  -492.857954797     A.U. after   10 cycles
 SCF Done:  E(RHF) =  -492.857954847     A.U. after    8 cycles
 Optimization completed.
    -- Stationary point found.

                         Standard orientation:
 ---------------------------------------------------------------------
 Center     Atomic      Atomic             Coordinates (Angstroms)
 Number     Number       Type             X           Y           Z
 ---------------------------------------------------------------------
      1          1           0        3.632686   -1.631202   -0.588369
      2          6           0        3.134290   -0.720202   -0.886324
      3          1           0        2.794842   -0.807160   -1.912077
      4          1           0        3.848686    0.095488   -0.831252
      5          6           0        1.999677   -0.444440    0.075679
      6          8           0        2.007340   -0.853220    1.205771
      7          7           0        0.978129    0.292845   -0.427691
      8          1           0        1.061939    0.646558   -1.354722
      9          6           0       -0.065140    0.872766    0.405285
     10          1           0        0.137140    0.542009    1.412751
     11          6           0       -0.052288    2.394499    0.342883
     12          1           0       -0.235847    2.743633   -0.665947
     13          1           0       -0.828481    2.806938    0.976172
     14          1           0        0.907969    2.768226    0.680816
     15          6           0       -1.413643    0.301923   -0.044808
     16          8           0       -2.194395    0.936368   -0.701355
     17          7           0       -1.632854   -0.970731    0.342648
     18          1           0       -0.890046   -1.459837    0.789199
     19          6           0       -2.785075   -1.719032   -0.108873
     20          1           0       -3.671486   -1.107971   -0.022758
     21          1           0       -2.685750   -2.034643   -1.142636
     22          1           0       -2.899066   -2.595101    0.515742
 ---------------------------------------------------------------------

 The electronic state is 1-A.
 Alpha  occ. eigenvalues --  -20.53230 -20.52389 -15.59617 -15.58116 -11.35913
 Alpha  occ. eigenvalues --  -11.34141 -11.27833 -11.25530 -11.24095 -11.22065
 Alpha  occ. eigenvalues --   -1.40151  -1.39030  -1.25015  -1.22695  -1.05797
 Alpha  occ. eigenvalues --   -0.99766  -0.96216  -0.87584  -0.80573  -0.78564
 Alpha  occ. eigenvalues --   -0.72977  -0.68075  -0.66550  -0.64634  -0.62549
 Alpha  occ. eigenvalues --   -0.61816  -0.60260  -0.59114  -0.58062  -0.55961
 Alpha  occ. eigenvalues --   -0.54982  -0.53420  -0.52589  -0.52087  -0.51373
 Alpha  occ. eigenvalues --   -0.43493  -0.42766  -0.38998  -0.38460
 Alpha virt. eigenvalues --    0.18594   0.20861   0.21954   0.23824   0.26068
 Alpha virt. eigenvalues --    0.27028   0.27654   0.29909   0.31068   0.32096
 Alpha virt. eigenvalues --    0.32563   0.33102   0.33994   0.34881   0.37677

 Mulliken atomic charges:
              1
     1  H    0.216000
     2  C   -0.585375
     3  H    0.178618
     4  H    0.202751
     5  C    0.744739
     6  O   -0.613196
     7  N   -0.796945
     8  H    0.389932
     9  C   -0.086026
    10  H    0.243091
    11  C   -0.471947
    12  H    0.181211
    13  H    0.184280
    14  H    0.169040
    15  C    0.778997
    16  O   -0.615879
    17  N   -0.794877
    18  H    0.402102
    19  C   -0.273184
    20  H    0.204099
    21  H    0.171620
    22  H    0.170951
 Sum of Mulliken atomic charges =   0.00000

 Dipole moment (field-independent basis, Debye):
    X=              1.7713    Y=             -0.8280    Z=             -1.5464  Tot=              2.4929
 Quadrupole moment (field-independent basis, Debye-Ang):
   XX=            -63.0921   YY=            -58.3526   ZZ=            -62.3315
   XY=              8.9757   XZ=            -11.0882   YZ=              3.4501

 Normal termination of Gaussian 09 at Fri Feb 10 12:34:37 2017.
