 Gaussian 09, Revision A.02,
 Gaussian 09:  EM64L-G09RevA.02 11-Jun-2009

 -------------------------------------------
 # HF/6-31G* Opt=(ModRedundant) geom=nocrowd
 -------------------------------------------

 ------------------
 Phi Psi fixed scan
 ------------------
 Symbolic Z-matrix:
 Charge =  0 Multiplicity = 1

 SCF Done:  E(RHF) =  -492.833477823     A.U. after   15 cycles
 SCF Done:  E(RHF) =  -492.844883494     A.U. after   14 cycles
 SCF Done:  E(RHF) =  -492.847878445     A.U. after   14 cycles
 SCF Done:  E(RHF) =  -492.848184712     A.U. after   16 cycles
 SCF Done:  E(RHF) =  -492.848351915     A.U. after   13 cycles
 SCF Done:  E(RHF) =  -492.848509408     A.U. after   12 cycles
 SCF Done:  E(RHF) =  -492.848681259     A.U. after   13 cycles
 SCF Done:  E(RHF) =  -492.848769137     A.U. after   13 cycles
 SCF Done:  E(RHF) =  -492.848819867     A.U. after   11 cycles
 SCF Done:  E(RHF) =  -492.848846532     A.U. after   11 cycles
 SCF Done:  E(RHF) =  -492.849128104     A.U. after   13 cycles
 SCF Done:  E(RHF) =  -492.849184172     A.U. after   11 cycles
 SCF Done:  E(RHF) =  -492.849265926     A.U. after   12 cycles
 SCF Done:  E(RHF) =  -492.849274895     A.U. after   12 cycles
 SCF Done:  E(RHF) =  -492.849316506     A.U. after   11 cycles
 SCF Done:  E(RHF) =  -492.849341091     A.U. after   11 cycles
 SCF Done:  E(RHF) =  -492.849356482     A.U. after   11 cycles
 SCF Done:  E(RHF) =  -492.849363022     A.U. after   11 cycles
 SCF Done:  E(RHF) =  -492.849364459     A.U. after   10 cycles
 SCF Done:  E(RHF) =  -492.849364646     A.U. after    9 cycles
 Optimization completed.
    -- Stationary point found.

                         Standard orientation:
 ---------------------------------------------------------------------
 Center     Atomic      Atomic             Coordinates (Angstroms)
 Number     Number       Type             X           Y           Z
 ---------------------------------------------------------------------
      1          1           0        4.132653   -0.928362   -0.586616
      2          6           0        3.095615   -1.073892   -0.851269
      3          1           0        2.828146   -2.107486   -0.654046
      4          1           0        2.958194   -0.882755   -1.909887
      5          6           0        2.237657   -0.171699    0.008714
      6          8           0        2.619577    0.269965    1.054853
      7          7           0        1.003144    0.097890   -0.498247
      8          1           0        0.728054   -0.375195   -1.329416
      9          6           0       -0.032320    0.739869    0.290325
     10          1           0        0.347801    0.796015    1.298124
     11          6           0       -0.316665    2.154398   -0.213280
     12          1           0       -0.602445    2.163994   -1.261477
     13          1           0       -1.099031    2.633920    0.367925
     14          1           0        0.583637    2.748287   -0.117115
     15          6           0       -1.232204   -0.215112    0.365736
     16          8           0       -1.170031   -1.212805    1.029101
     17          7           0       -2.311429    0.079047   -0.392995
     18          1           0       -2.382427    0.976270   -0.809785
     19          6           0       -3.503110   -0.742864   -0.338763
     20          1           0       -3.242923   -1.778532   -0.501963
     21          1           0       -4.002387   -0.664545    0.620576
     22          1           0       -4.181482   -0.421652   -1.118047
 ---------------------------------------------------------------------

 The electronic state is 1-A.
 Alpha  occ. eigenvalues --  -20.52431 -20.52115 -15.59294 -15.58717 -11.34748
 Alpha  occ. eigenvalues --  -11.34705 -11.27837 -11.26278 -11.23286 -11.23095
 Alpha  occ. eigenvalues --   -1.39683  -1.38837  -1.24298  -1.23401  -1.05799
 Alpha  occ. eigenvalues --   -0.99357  -0.96002  -0.89002  -0.79686  -0.79565
 Alpha  occ. eigenvalues --   -0.73159  -0.67164  -0.65762  -0.64931  -0.62838
 Alpha  occ. eigenvalues --   -0.62003  -0.59214  -0.58821  -0.57612  -0.56563
 Alpha  occ. eigenvalues --   -0.55964  -0.54834  -0.53211  -0.51993  -0.50098
 Alpha  occ. eigenvalues --   -0.42999  -0.41555  -0.39545  -0.38470
 Alpha virt. eigenvalues --    0.18513   0.20417   0.22007   0.23436   0.25682
 Alpha virt. eigenvalues --    0.27927   0.28254   0.30024   0.30334   0.31347
 Alpha virt. eigenvalues --    0.32517   0.33117   0.33488   0.34624   0.37670

 Mulliken atomic charges:
              1
     1  H    0.214511
     2  C   -0.589379
     3  H    0.205777
     4  H    0.173034
     5  C    0.755551
     6  O   -0.598141
     7  N   -0.796030
     8  H    0.383300
     9  C   -0.036073
    10  H    0.261990
    11  C   -0.505558
    12  H    0.151957
    13  H    0.168527
    14  H    0.205210
    15  C    0.732017
    16  O   -0.601123
    17  N   -0.800655
    18  H    0.395743
    19  C   -0.272912
    20  H    0.202129
    21  H    0.182868
    22  H    0.167256
 Sum of Mulliken atomic charges =   0.00000

 Dipole moment (field-independent basis, Debye):
    X=             -2.8646    Y=              1.5617    Z=             -4.9903  Tot=              5.9622
 Quadrupole moment (field-independent basis, Debye-Ang):
   XX=            -56.9431   YY=            -60.4446   ZZ=            -63.1414
   XY=             -7.2039   XZ=             -4.0691   YZ=              3.4178

 Normal termination of Gaussian 09 at Fri Feb 10 13:38:18 2017.
