 Gaussian 09, Revision A.02,
 Gaussian 09:  EM64L-G09RevA.02 11-Jun-2009

 -------------------------------------------
 # HF/6-31G* Opt=(ModRedundant) geom=nocrowd
 -------------------------------------------

 ------------------
 Phi Psi fixed scan
 ------------------
 Symbolic Z-matrix:
 Charge =  0 Multiplicity = 1

 SCF Done:  E(RHF) =  -492.851707865     A.U. after   15 cycles
 SCF Done:  E(RHF) =  -492.857773321     A.U. after   13 cycles
 SCF Done:  E(RHF) =  -492.858316418     A.U. after   13 cycles
 SCF Done:  E(RHF) =  -492.858904807     A.U. after   13 cycles
 SCF Done:  E(RHF) =  -492.859212506     A.U. after   13 cycles
 SCF Done:  E(RHF) =  -492.859096615     A.U. after   13 cycles
 SCF Done:  E(RHF) =  -492.859331849     A.U. after   13 cycles
 SCF Done:  E(RHF) =  -492.859349956     A.U. after   11 cycles
 SCF Done:  E(RHF) =  -492.859355357     A.U. after   10 cycles
 SCF Done:  E(RHF) =  -492.859365203     A.U. after   11 cycles
 SCF Done:  E(RHF) =  -492.859595430     A.U. after   11 cycles
 SCF Done:  E(RHF) =  -492.859639565     A.U. after   11 cycles
 SCF Done:  E(RHF) =  -492.859657258     A.U. after   11 cycles
 SCF Done:  E(RHF) =  -492.859662073     A.U. after   10 cycles
 SCF Done:  E(RHF) =  -492.859664694     A.U. after   10 cycles
 SCF Done:  E(RHF) =  -492.859666940     A.U. after   11 cycles
 SCF Done:  E(RHF) =  -492.859668528     A.U. after   10 cycles
 SCF Done:  E(RHF) =  -492.859668988     A.U. after    9 cycles
 SCF Done:  E(RHF) =  -492.859669035     A.U. after    8 cycles
 SCF Done:  E(RHF) =  -492.859669040     A.U. after    7 cycles
 Optimization completed.
    -- Stationary point found.

                         Standard orientation:
 ---------------------------------------------------------------------
 Center     Atomic      Atomic             Coordinates (Angstroms)
 Number     Number       Type             X           Y           Z
 ---------------------------------------------------------------------
      1          1           0        4.173890   -0.978053    0.103121
      2          6           0        3.235117   -1.056348   -0.425673
      3          1           0        2.921934   -2.096113   -0.422998
      4          1           0        3.365783   -0.744440   -1.455392
      5          6           0        2.195355   -0.224454    0.293219
      6          8           0        2.301914    0.068582    1.453454
      7          7           0        1.141195    0.156553   -0.471565
      8          1           0        1.018607   -0.269345   -1.364153
      9          6           0       -0.044442    0.758552    0.091220
     10          1           0        0.102706    0.809318    1.159918
     11          6           0       -0.274212    2.169913   -0.461003
     12          1           0       -0.396169    2.140009   -1.538194
     13          1           0       -1.162194    2.620242   -0.029200
     14          1           0        0.579857    2.793614   -0.226718
     15          6           0       -1.245285   -0.124402   -0.241628
     16          8           0       -1.292035   -0.744846   -1.272230
     17          7           0       -2.252232   -0.108595    0.651349
     18          1           0       -2.095813    0.308536    1.539512
     19          6           0       -3.452415   -0.896117    0.459558
     20          1           0       -3.820356   -0.760598   -0.546785
     21          1           0       -3.269530   -1.952975    0.619127
     22          1           0       -4.205202   -0.558655    1.159323
 ---------------------------------------------------------------------

 The electronic state is 1-A.
 Alpha  occ. eigenvalues --  -20.53098 -20.51980 -15.59460 -15.57914 -11.35005
 Alpha  occ. eigenvalues --  -11.34610 -11.27806 -11.26357 -11.22871 -11.22638
 Alpha  occ. eigenvalues --   -1.40080  -1.38679  -1.24170  -1.23543  -1.05670
 Alpha  occ. eigenvalues --   -0.99153  -0.96391  -0.87969  -0.80330  -0.78678
 Alpha  occ. eigenvalues --   -0.73284  -0.67271  -0.65892  -0.64153  -0.63090
 Alpha  occ. eigenvalues --   -0.62129  -0.60076  -0.58687  -0.57402  -0.56583
 Alpha  occ. eigenvalues --   -0.56009  -0.54064  -0.52799  -0.52090  -0.49847
 Alpha  occ. eigenvalues --   -0.42993  -0.41584  -0.40021  -0.38366
 Alpha virt. eigenvalues --    0.19190   0.20836   0.21474   0.23879   0.26324
 Alpha virt. eigenvalues --    0.27239   0.29623   0.30482   0.31107   0.31381
 Alpha virt. eigenvalues --    0.32351   0.33323   0.33644   0.34666   0.37534

 Mulliken atomic charges:
              1
     1  H    0.211892
     2  C   -0.586497
     3  H    0.199389
     4  H    0.181194
     5  C    0.742126
     6  O   -0.610706
     7  N   -0.790573
     8  H    0.406494
     9  C   -0.066201
    10  H    0.230033
    11  C   -0.475077
    12  H    0.180773
    13  H    0.165342
    14  H    0.190462
    15  C    0.773675
    16  O   -0.631249
    17  N   -0.794324
    18  H    0.389578
    19  C   -0.274193
    20  H    0.204759
    21  H    0.181731
    22  H    0.171370
 Sum of Mulliken atomic charges =   0.00000

 Dipole moment (field-independent basis, Debye):
    X=             -1.9592    Y=              0.4671    Z=              0.0167  Tot=              2.0142
 Quadrupole moment (field-independent basis, Debye-Ang):
   XX=            -55.2259   YY=            -59.2482   ZZ=            -65.1253
   XY=             -3.7694   XZ=            -14.1862   YZ=             -1.5024

 Normal termination of Gaussian 09 at Fri Feb 10 13:01:56 2017.
