 Gaussian 09, Revision A.02,
 Gaussian 09:  EM64L-G09RevA.02 11-Jun-2009

 -------------------------------------------
 # HF/6-31G* Opt=(ModRedundant) geom=nocrowd
 -------------------------------------------

 ------------------
 Phi Psi fixed scan
 ------------------
 Symbolic Z-matrix:
 Charge =  0 Multiplicity = 1

 SCF Done:  E(RHF) =  -492.848913457     A.U. after   15 cycles
 SCF Done:  E(RHF) =  -492.855801825     A.U. after   13 cycles
 SCF Done:  E(RHF) =  -492.856331987     A.U. after   13 cycles
 SCF Done:  E(RHF) =  -492.856493537     A.U. after   13 cycles
 SCF Done:  E(RHF) =  -492.856655223     A.U. after   12 cycles
 SCF Done:  E(RHF) =  -492.856699032     A.U. after   13 cycles
 SCF Done:  E(RHF) =  -492.856769937     A.U. after   10 cycles
 SCF Done:  E(RHF) =  -492.856798084     A.U. after   11 cycles
 SCF Done:  E(RHF) =  -492.856813047     A.U. after   11 cycles
 SCF Done:  E(RHF) =  -492.856833596     A.U. after   11 cycles
 SCF Done:  E(RHF) =  -492.854213567     A.U. after   13 cycles
 SCF Done:  E(RHF) =  -492.857080983     A.U. after   13 cycles
 SCF Done:  E(RHF) =  -492.857102280     A.U. after   12 cycles
 SCF Done:  E(RHF) =  -492.857115613     A.U. after    9 cycles
 SCF Done:  E(RHF) =  -492.857137014     A.U. after   11 cycles
 SCF Done:  E(RHF) =  -492.857159200     A.U. after   11 cycles
 SCF Done:  E(RHF) =  -492.857168378     A.U. after   10 cycles
 SCF Done:  E(RHF) =  -492.857170391     A.U. after   10 cycles
 SCF Done:  E(RHF) =  -492.857170544     A.U. after    8 cycles
 SCF Done:  E(RHF) =  -492.857170559     A.U. after    7 cycles
 Optimization completed.
    -- Stationary point found.

                         Standard orientation:
 ---------------------------------------------------------------------
 Center     Atomic      Atomic             Coordinates (Angstroms)
 Number     Number       Type             X           Y           Z
 ---------------------------------------------------------------------
      1          1           0        3.712855   -1.586218   -0.349892
      2          6           0        3.157881   -0.771196   -0.791090
      3          1           0        2.801799   -1.059993   -1.773510
      4          1           0        3.825890    0.076805   -0.907172
      5          6           0        2.029149   -0.384834    0.140082
      6          8           0        2.068262   -0.610223    1.318694
      7          7           0        0.974711    0.231450   -0.454108
      8          1           0        1.040087    0.433717   -1.426829
      9          6           0       -0.080052    0.902259    0.287280
     10          1           0        0.133242    0.725177    1.332929
     11          6           0       -0.087388    2.402534    0.014288
     12          1           0       -0.272743    2.608005   -1.034855
     13          1           0       -0.867042    2.888584    0.583678
     14          1           0        0.871315    2.827516    0.290054
     15          6           0       -1.451653    0.276029    0.002911
     16          8           0       -2.427053    0.949935   -0.191408
     17          7           0       -1.484984   -1.070992    0.017087
     18          1           0       -0.665001   -1.561560    0.289611
     19          6           0       -2.732230   -1.796226   -0.087018
     20          1           0       -3.299333   -1.434128   -0.932515
     21          1           0       -2.512634   -2.845473   -0.233615
     22          1           0       -3.340440   -1.684728    0.804258
 ---------------------------------------------------------------------

 The electronic state is 1-A.
 Alpha  occ. eigenvalues --  -20.53339 -20.52298 -15.59679 -15.58097 -11.35997
 Alpha  occ. eigenvalues --  -11.34162 -11.27954 -11.25586 -11.24230 -11.21977
 Alpha  occ. eigenvalues --   -1.40271  -1.39036  -1.25265  -1.22531  -1.05780
 Alpha  occ. eigenvalues --   -0.99792  -0.96191  -0.87628  -0.80687  -0.78613
 Alpha  occ. eigenvalues --   -0.73243  -0.68197  -0.66562  -0.64427  -0.62600
 Alpha  occ. eigenvalues --   -0.62043  -0.60034  -0.59156  -0.58247  -0.55583
 Alpha  occ. eigenvalues --   -0.55059  -0.53607  -0.52977  -0.52274  -0.50663
 Alpha  occ. eigenvalues --   -0.43696  -0.42830  -0.39596  -0.37897
 Alpha virt. eigenvalues --    0.18853   0.19828   0.22085   0.23983   0.26047
 Alpha virt. eigenvalues --    0.27238   0.27759   0.29698   0.30608   0.31959
 Alpha virt. eigenvalues --    0.32511   0.33126   0.33775   0.34695   0.37505

 Mulliken atomic charges:
              1
     1  H    0.216720
     2  C   -0.587303
     3  H    0.177626
     4  H    0.203057
     5  C    0.739302
     6  O   -0.605459
     7  N   -0.803524
     8  H    0.386436
     9  C   -0.086117
    10  H    0.252396
    11  C   -0.467759
    12  H    0.164387
    13  H    0.201447
    14  H    0.168302
    15  C    0.770275
    16  O   -0.616911
    17  N   -0.788402
    18  H    0.401218
    19  C   -0.270276
    20  H    0.198612
    21  H    0.167671
    22  H    0.178300
 Sum of Mulliken atomic charges =   0.00000

 Dipole moment (field-independent basis, Debye):
    X=              2.1243    Y=             -1.4415    Z=             -2.7305  Tot=              3.7479
 Quadrupole moment (field-independent basis, Debye-Ang):
   XX=            -65.8998   YY=            -57.5198   ZZ=            -61.9205
   XY=              8.2853   XZ=             -9.2073   YZ=              2.0930

 Normal termination of Gaussian 09 at Fri Feb 10 12:26:38 2017.
