 Gaussian 09, Revision A.02,
 Gaussian 09:  EM64L-G09RevA.02 11-Jun-2009

 -------------------------------------------
 # HF/6-31G* Opt=(ModRedundant) geom=nocrowd
 -------------------------------------------

 ------------------
 Phi Psi fixed scan
 ------------------
 Symbolic Z-matrix:
 Charge =  0 Multiplicity = 1

 SCF Done:  E(RHF) =  -492.846912953     A.U. after   15 cycles
 SCF Done:  E(RHF) =  -492.854105408     A.U. after   13 cycles
 SCF Done:  E(RHF) =  -492.855500358     A.U. after   13 cycles
 SCF Done:  E(RHF) =  -492.856278890     A.U. after   14 cycles
 SCF Done:  E(RHF) =  -492.857080489     A.U. after   13 cycles
 SCF Done:  E(RHF) =  -492.857090927     A.U. after   13 cycles
 SCF Done:  E(RHF) =  -492.857382627     A.U. after   12 cycles
 SCF Done:  E(RHF) =  -492.857412365     A.U. after   10 cycles
 SCF Done:  E(RHF) =  -492.857432308     A.U. after   11 cycles
 SCF Done:  E(RHF) =  -492.857502360     A.U. after   12 cycles
 SCF Done:  E(RHF) =  -492.857786334     A.U. after   11 cycles
 SCF Done:  E(RHF) =  -492.857799412     A.U. after   11 cycles
 SCF Done:  E(RHF) =  -492.857790731     A.U. after   12 cycles
 SCF Done:  E(RHF) =  -492.857825797     A.U. after   11 cycles
 SCF Done:  E(RHF) =  -492.857862330     A.U. after   11 cycles
 SCF Done:  E(RHF) =  -492.857867438     A.U. after   10 cycles
 SCF Done:  E(RHF) =  -492.857878976     A.U. after   11 cycles
 SCF Done:  E(RHF) =  -492.857883486     A.U. after   11 cycles
 SCF Done:  E(RHF) =  -492.857883904     A.U. after    9 cycles
 SCF Done:  E(RHF) =  -492.857883952     A.U. after    8 cycles
 Optimization completed.
    -- Stationary point found.

                         Standard orientation:
 ---------------------------------------------------------------------
 Center     Atomic      Atomic             Coordinates (Angstroms)
 Number     Number       Type             X           Y           Z
 ---------------------------------------------------------------------
      1          1           0        4.198950   -0.932284    0.222264
      2          6           0        3.261170   -1.067556   -0.296160
      3          1           0        2.914365   -2.084352   -0.137425
      4          1           0        3.404993   -0.923430   -1.361016
      5          6           0        2.243086   -0.098027    0.262190
      6          8           0        2.405972    0.478256    1.302163
      7          7           0        1.138018    0.077061   -0.515534
      8          1           0        0.959455   -0.624450   -1.201269
      9          6           0       -0.048987    0.709736    0.009623
     10          1           0        0.132644    0.926636    1.054076
     11          6           0       -0.340438    2.020891   -0.732123
     12          1           0       -0.540030    1.832200   -1.781690
     13          1           0       -1.191105    2.549048   -0.315719
     14          1           0        0.526765    2.665087   -0.660280
     15          6           0       -1.216868   -0.277497   -0.087190
     16          8           0       -1.088546   -1.363333   -0.588508
     17          7           0       -2.404021    0.172570    0.368409
     18          1           0       -2.422662    1.009363    0.903837
     19          6           0       -3.570715   -0.685468    0.405483
     20          1           0       -3.698266   -1.166106   -0.552981
     21          1           0       -3.485084   -1.453611    1.166370
     22          1           0       -4.440912   -0.077378    0.613533
 ---------------------------------------------------------------------

 The electronic state is 1-A.
 Alpha  occ. eigenvalues --  -20.53473 -20.52125 -15.59390 -15.57530 -11.35274
 Alpha  occ. eigenvalues --  -11.34428 -11.27862 -11.26387 -11.22861 -11.22676
 Alpha  occ. eigenvalues --   -1.40408  -1.38743  -1.24179  -1.23381  -1.05601
 Alpha  occ. eigenvalues --   -0.99089  -0.96102  -0.88280  -0.80177  -0.78306
 Alpha  occ. eigenvalues --   -0.73290  -0.67262  -0.65838  -0.64171  -0.63352
 Alpha  occ. eigenvalues --   -0.62010  -0.59767  -0.58882  -0.57123  -0.56441
 Alpha  occ. eigenvalues --   -0.56039  -0.54211  -0.53353  -0.52135  -0.49545
 Alpha  occ. eigenvalues --   -0.42834  -0.41599  -0.40146  -0.38838
 Alpha virt. eigenvalues --    0.19169   0.20483   0.21315   0.24243   0.26200
 Alpha virt. eigenvalues --    0.28064   0.29349   0.30438   0.31290   0.31603
 Alpha virt. eigenvalues --    0.32334   0.32776   0.33522   0.34173   0.37727

 Mulliken atomic charges:
              1
     1  H    0.211737
     2  C   -0.590760
     3  H    0.199888
     4  H    0.185106
     5  C    0.734780
     6  O   -0.604240
     7  N   -0.776455
     8  H    0.404412
     9  C   -0.081806
    10  H    0.241046
    11  C   -0.465001
    12  H    0.173325
    13  H    0.152353
    14  H    0.194901
    15  C    0.767437
    16  O   -0.624874
    17  N   -0.791436
    18  H    0.387165
    19  C   -0.274067
    20  H    0.205325
    21  H    0.180121
    22  H    0.171042
 Sum of Mulliken atomic charges =   0.00000

 Dipole moment (field-independent basis, Debye):
    X=             -2.6937    Y=              0.9885    Z=             -0.9152  Tot=              3.0118
 Quadrupole moment (field-independent basis, Debye-Ang):
   XX=            -53.9858   YY=            -61.9184   ZZ=            -63.1214
   XY=             -8.1889   XZ=            -10.7590   YZ=             -1.4083

 Normal termination of Gaussian 09 at Fri Feb 10 13:07:52 2017.
