 Gaussian 09, Revision A.02,
 Gaussian 09:  EM64L-G09RevA.02 11-Jun-2009

 -------------------------------------------
 # HF/6-31G* Opt=(ModRedundant) geom=nocrowd
 -------------------------------------------

 ------------------
 Phi Psi fixed scan
 ------------------
 Symbolic Z-matrix:
 Charge =  0 Multiplicity = 1

 SCF Done:  E(RHF) =  -492.852432904     A.U. after   15 cycles
 SCF Done:  E(RHF) =  -492.858216452     A.U. after   13 cycles
 SCF Done:  E(RHF) =  -492.858447872     A.U. after   13 cycles
 SCF Done:  E(RHF) =  -492.858925558     A.U. after   12 cycles
 SCF Done:  E(RHF) =  -492.859073328     A.U. after   13 cycles
 SCF Done:  E(RHF) =  -492.859023390     A.U. after   13 cycles
 SCF Done:  E(RHF) =  -492.859132617     A.U. after   12 cycles
 SCF Done:  E(RHF) =  -492.859146283     A.U. after   11 cycles
 SCF Done:  E(RHF) =  -492.859149417     A.U. after    9 cycles
 SCF Done:  E(RHF) =  -492.859156154     A.U. after   10 cycles
 SCF Done:  E(RHF) =  -492.859444874     A.U. after   12 cycles
 SCF Done:  E(RHF) =  -492.859441310     A.U. after   10 cycles
 SCF Done:  E(RHF) =  -492.859449219     A.U. after   11 cycles
 SCF Done:  E(RHF) =  -492.859450219     A.U. after   10 cycles
 SCF Done:  E(RHF) =  -492.859451068     A.U. after    8 cycles
 SCF Done:  E(RHF) =  -492.859451848     A.U. after   10 cycles
 SCF Done:  E(RHF) =  -492.859452923     A.U. after    9 cycles
 SCF Done:  E(RHF) =  -492.859453693     A.U. after    8 cycles
 SCF Done:  E(RHF) =  -492.859455264     A.U. after   10 cycles
 SCF Done:  E(RHF) =  -492.859455658     A.U. after    9 cycles
 Optimization completed.
    -- Stationary point found.

                         Standard orientation:
 ---------------------------------------------------------------------
 Center     Atomic      Atomic             Coordinates (Angstroms)
 Number     Number       Type             X           Y           Z
 ---------------------------------------------------------------------
      1          1           0       -4.144898   -0.975075    0.167904
      2          6           0       -3.195850   -0.962083    0.684338
      3          1           0       -2.908839   -1.987022    0.898592
      4          1           0       -3.296831   -0.432511    1.624366
      5          6           0       -2.154897   -0.340525   -0.221507
      6          8           0       -2.241688   -0.392792   -1.419115
      7          7           0       -1.122616    0.259588    0.418472
      8          1           0       -1.034174    0.158027    1.405282
      9          6           0        0.042399    0.765654   -0.272179
     10          1           0       -0.102552    0.554728   -1.320653
     11          6           0        0.208866    2.273448   -0.068631
     12          1           0        0.321468    2.503010    0.984608
     13          1           0        1.085752    2.640375   -0.593206
     14          1           0       -0.663474    2.791483   -0.448715
     15          6           0        1.270558    0.037323    0.266962
     16          8           0        1.429401   -0.097306    1.453112
     17          7           0        2.154220   -0.399748   -0.647660
     18          1           0        1.899443   -0.375678   -1.607553
     19          6           0        3.351107   -1.120215   -0.266070
     20          1           0        3.847546   -0.601524    0.540842
     21          1           0        3.124861   -2.128738    0.061737
     22          1           0        4.015659   -1.166783   -1.118337
 ---------------------------------------------------------------------

 The electronic state is 1-A.
 Alpha  occ. eigenvalues --  -20.52819 -20.51990 -15.59448 -15.58271 -11.34834
 Alpha  occ. eigenvalues --  -11.34778 -11.27798 -11.26285 -11.23041 -11.22466
 Alpha  occ. eigenvalues --   -1.39872  -1.38724  -1.24143  -1.23662  -1.05668
 Alpha  occ. eigenvalues --   -0.99207  -0.96490  -0.87891  -0.80313  -0.78955
 Alpha  occ. eigenvalues --   -0.73288  -0.67271  -0.65913  -0.64337  -0.62852
 Alpha  occ. eigenvalues --   -0.62186  -0.60127  -0.58568  -0.57566  -0.56636
 Alpha  occ. eigenvalues --   -0.55930  -0.53935  -0.52529  -0.52043  -0.50098
 Alpha  occ. eigenvalues --   -0.43034  -0.41656  -0.39850  -0.38283
 Alpha virt. eigenvalues --    0.19170   0.20916   0.21803   0.23544   0.26365
 Alpha virt. eigenvalues --    0.27062   0.29244   0.30524   0.31007   0.31496
 Alpha virt. eigenvalues --    0.32443   0.33607   0.33781   0.34981   0.37671

 Mulliken atomic charges:
              1
     1  H    0.211987
     2  C   -0.583873
     3  H    0.200625
     4  H    0.177937
     5  C    0.745533
     6  O   -0.613216
     7  N   -0.795724
     8  H    0.404206
     9  C   -0.060960
    10  H    0.230046
    11  C   -0.479879
    12  H    0.185268
    13  H    0.167345
    14  H    0.187077
    15  C    0.778018
    16  O   -0.634312
    17  N   -0.795202
    18  H    0.392288
    19  C   -0.275149
    20  H    0.204745
    21  H    0.181740
    22  H    0.171500
 Sum of Mulliken atomic charges =   0.00000

 Dipole moment (field-independent basis, Debye):
    X=              1.4221    Y=             -0.0021    Z=             -0.1841  Tot=              1.4339
 Quadrupole moment (field-independent basis, Debye-Ang):
   XX=            -56.3366   YY=            -58.0545   ZZ=            -65.7063
   XY=             -1.4908   XZ=            -15.0199   YZ=             -0.7922

 Normal termination of Gaussian 09 at Fri Feb 10 12:58:40 2017.
