 Gaussian 09, Revision A.02,
 Gaussian 09:  EM64L-G09RevA.02 11-Jun-2009

 -------------------------------------------
 # HF/6-31G* Opt=(ModRedundant) geom=nocrowd
 -------------------------------------------

 ------------------
 Phi Psi fixed scan
 ------------------
 Symbolic Z-matrix:
 Charge =  0 Multiplicity = 1

 SCF Done:  E(RHF) =  -492.851626905     A.U. after   15 cycles
 SCF Done:  E(RHF) =  -492.857728632     A.U. after   13 cycles
 SCF Done:  E(RHF) =  -492.857974940     A.U. after   13 cycles
 SCF Done:  E(RHF) =  -492.857953138     A.U. after   12 cycles
 SCF Done:  E(RHF) =  -492.858053445     A.U. after   12 cycles
 SCF Done:  E(RHF) =  -492.858062048     A.U. after   11 cycles
 SCF Done:  E(RHF) =  -492.858076701     A.U. after   11 cycles
 SCF Done:  E(RHF) =  -492.858085715     A.U. after   10 cycles
 SCF Done:  E(RHF) =  -492.858103239     A.U. after   11 cycles
 SCF Done:  E(RHF) =  -492.858121401     A.U. after   11 cycles
 SCF Done:  E(RHF) =  -492.858435689     A.U. after   11 cycles
 SCF Done:  E(RHF) =  -492.858453700     A.U. after   11 cycles
 SCF Done:  E(RHF) =  -492.858473922     A.U. after   11 cycles
 SCF Done:  E(RHF) =  -492.858481877     A.U. after   11 cycles
 SCF Done:  E(RHF) =  -492.858482601     A.U. after    9 cycles
 SCF Done:  E(RHF) =  -492.858482789     A.U. after    8 cycles
 SCF Done:  E(RHF) =  -492.858483063     A.U. after    9 cycles
 SCF Done:  E(RHF) =  -492.858483350     A.U. after    8 cycles
 SCF Done:  E(RHF) =  -492.858483778     A.U. after   10 cycles
 SCF Done:  E(RHF) =  -492.858483840     A.U. after    8 cycles
 Optimization completed.
    -- Stationary point found.

                         Standard orientation:
 ---------------------------------------------------------------------
 Center     Atomic      Atomic             Coordinates (Angstroms)
 Number     Number       Type             X           Y           Z
 ---------------------------------------------------------------------
      1          1           0       -3.549823   -1.763367    0.670253
      2          6           0       -3.143270   -0.789804    0.904722
      3          1           0       -2.796677   -0.776120    1.931391
      4          1           0       -3.937068   -0.057013    0.800412
      5          6           0       -2.049675   -0.465669   -0.089808
      6          8           0       -2.090081   -0.857432   -1.225573
      7          7           0       -1.047833    0.311738    0.384699
      8          1           0       -1.050328    0.587864    1.340851
      9          6           0        0.043906    0.795446   -0.439440
     10          1           0       -0.119713    0.389278   -1.424998
     11          6           0        0.071731    2.319338   -0.504024
     12          1           0        0.217860    2.740879    0.482621
     13          1           0        0.884741    2.659844   -1.137191
     14          1           0       -0.861698    2.687173   -0.914351
     15          6           0        1.340585    0.254309    0.160903
     16          8           0        1.785682    0.708718    1.182352
     17          7           0        1.916114   -0.762578   -0.507452
     18          1           0        1.414378   -1.177782   -1.258554
     19          6           0        3.074344   -1.455729    0.015393
     20          1           0        3.806394   -0.736186    0.350972
     21          1           0        2.817469   -2.098873    0.850438
     22          1           0        3.505949   -2.057450   -0.773281
 ---------------------------------------------------------------------

 The electronic state is 1-A.
 Alpha  occ. eigenvalues --  -20.52470 -20.52427 -15.59087 -15.58948 -11.35326
 Alpha  occ. eigenvalues --  -11.34462 -11.27797 -11.25919 -11.23548 -11.22137
 Alpha  occ. eigenvalues --   -1.39685  -1.39009  -1.24467  -1.23384  -1.05689
 Alpha  occ. eigenvalues --   -0.99441  -0.96418  -0.87749  -0.80297  -0.79116
 Alpha  occ. eigenvalues --   -0.73164  -0.67542  -0.66093  -0.64665  -0.62415
 Alpha  occ. eigenvalues --   -0.62243  -0.60167  -0.58655  -0.57804  -0.56567
 Alpha  occ. eigenvalues --   -0.55477  -0.53656  -0.52261  -0.51776  -0.51010
 Alpha  occ. eigenvalues --   -0.43144  -0.42107  -0.39334  -0.38458
 Alpha virt. eigenvalues --    0.18837   0.21482   0.22307   0.22626   0.26592
 Alpha virt. eigenvalues --    0.26845   0.28235   0.30497   0.31045   0.32263
 Alpha virt. eigenvalues --    0.32418   0.33425   0.34090   0.35205   0.37720

 Mulliken atomic charges:
              1
     1  H    0.212466
     2  C   -0.581464
     3  H    0.174635
     4  H    0.203729
     5  C    0.747974
     6  O   -0.614585
     7  N   -0.802509
     8  H    0.397443
     9  C   -0.064866
    10  H    0.235116
    11  C   -0.482075
    12  H    0.189896
    13  H    0.172382
    14  H    0.177366
    15  C    0.783166
    16  O   -0.628550
    17  N   -0.795178
    18  H    0.397111
    19  C   -0.276327
    20  H    0.205417
    21  H    0.177305
    22  H    0.171548
 Sum of Mulliken atomic charges =   0.00000

 Dipole moment (field-independent basis, Debye):
    X=             -0.2078    Y=             -0.5858    Z=              0.3824  Tot=              0.7297
 Quadrupole moment (field-independent basis, Debye-Ang):
   XX=            -59.2133   YY=            -58.6138   ZZ=            -63.8478
   XY=             -7.7535   XZ=            -13.1568   YZ=             -3.4595

 Normal termination of Gaussian 09 at Fri Feb 10 12:40:29 2017.
