 Gaussian 09, Revision A.02,
 Gaussian 09:  EM64L-G09RevA.02 11-Jun-2009

 -------------------------------------------
 # HF/6-31G* Opt=(ModRedundant) geom=nocrowd
 -------------------------------------------

 ------------------
 Phi Psi fixed scan
 ------------------
 Symbolic Z-matrix:
 Charge =  0 Multiplicity = 1

 SCF Done:  E(RHF) =  -492.849988921     A.U. after   15 cycles
 SCF Done:  E(RHF) =  -492.856473083     A.U. after   13 cycles
 SCF Done:  E(RHF) =  -492.857391496     A.U. after   13 cycles
 SCF Done:  E(RHF) =  -492.858062601     A.U. after   14 cycles
 SCF Done:  E(RHF) =  -492.858554115     A.U. after   13 cycles
 SCF Done:  E(RHF) =  -492.858496239     A.U. after   13 cycles
 SCF Done:  E(RHF) =  -492.858832962     A.U. after   13 cycles
 SCF Done:  E(RHF) =  -492.858846704     A.U. after   10 cycles
 SCF Done:  E(RHF) =  -492.858856098     A.U. after   10 cycles
 SCF Done:  E(RHF) =  -492.858877921     A.U. after   11 cycles
 SCF Done:  E(RHF) =  -492.859075245     A.U. after   12 cycles
 SCF Done:  E(RHF) =  -492.859139208     A.U. after   11 cycles
 SCF Done:  E(RHF) =  -492.859162381     A.U. after   11 cycles
 SCF Done:  E(RHF) =  -492.859181911     A.U. after   11 cycles
 SCF Done:  E(RHF) =  -492.859198794     A.U. after   12 cycles
 SCF Done:  E(RHF) =  -492.859200992     A.U. after   11 cycles
 SCF Done:  E(RHF) =  -492.859209488     A.U. after   11 cycles
 SCF Done:  E(RHF) =  -492.859216219     A.U. after   11 cycles
 SCF Done:  E(RHF) =  -492.859216932     A.U. after    9 cycles
 SCF Done:  E(RHF) =  -492.859217062     A.U. after    9 cycles
 Optimization completed.
    -- Stationary point found.

                         Standard orientation:
 ---------------------------------------------------------------------
 Center     Atomic      Atomic             Coordinates (Angstroms)
 Number     Number       Type             X           Y           Z
 ---------------------------------------------------------------------
      1          1           0        4.190965   -0.942717    0.241748
      2          6           0        3.257460   -1.074792   -0.285336
      3          1           0        2.923730   -2.099888   -0.154313
      4          1           0        3.405178   -0.901081   -1.345086
      5          6           0        2.224569   -0.135371    0.297590
      6          8           0        2.356210    0.372899    1.377478
      7          7           0        1.145876    0.089351   -0.499269
      8          1           0        0.992972   -0.536719   -1.260019
      9          6           0       -0.046783    0.729055    0.001804
     10          1           0        0.112251    0.931304    1.051689
     11          6           0       -0.319661    2.047928   -0.733061
     12          1           0       -0.471750    1.868964   -1.792260
     13          1           0       -1.199052    2.549176   -0.343306
     14          1           0        0.533088    2.705095   -0.615827
     15          6           0       -1.227383   -0.229243   -0.163844
     16          8           0       -1.178075   -1.165357   -0.918239
     17          7           0       -2.336280    0.088041    0.533043
     18          1           0       -2.270638    0.780407    1.243050
     19          6           0       -3.523330   -0.740701    0.489415
     20          1           0       -3.766950   -0.973207   -0.536654
     21          1           0       -3.386211   -1.671106    1.029460
     22          1           0       -4.345065   -0.193560    0.931780
 ---------------------------------------------------------------------

 The electronic state is 1-A.
 Alpha  occ. eigenvalues --  -20.53358 -20.52040 -15.59419 -15.57655 -11.35164
 Alpha  occ. eigenvalues --  -11.34496 -11.27823 -11.26390 -11.22760 -11.22749
 Alpha  occ. eigenvalues --   -1.40286  -1.38695  -1.24188  -1.23438  -1.05644
 Alpha  occ. eigenvalues --   -0.99115  -0.96246  -0.88092  -0.80276  -0.78441
 Alpha  occ. eigenvalues --   -0.73277  -0.67283  -0.65879  -0.64044  -0.63312
 Alpha  occ. eigenvalues --   -0.62070  -0.59951  -0.58799  -0.57249  -0.56516
 Alpha  occ. eigenvalues --   -0.56050  -0.54160  -0.53068  -0.52124  -0.49669
 Alpha  occ. eigenvalues --   -0.42933  -0.41574  -0.40132  -0.38558
 Alpha virt. eigenvalues --    0.19157   0.20705   0.21277   0.24113   0.26271
 Alpha virt. eigenvalues --    0.27626   0.29561   0.30553   0.31220   0.31547
 Alpha virt. eigenvalues --    0.32293   0.32901   0.33557   0.34332   0.37499

 Mulliken atomic charges:
              1
     1  H    0.211790
     2  C   -0.588825
     3  H    0.199035
     4  H    0.183810
     5  C    0.737845
     6  O   -0.607431
     7  N   -0.783926
     8  H    0.406948
     9  C   -0.074796
    10  H    0.233765
    11  C   -0.469229
    12  H    0.176124
    13  H    0.160778
    14  H    0.192775
    15  C    0.770292
    16  O   -0.627569
    17  N   -0.792282
    18  H    0.387364
    19  C   -0.273676
    20  H    0.205051
    21  H    0.180921
    22  H    0.171238
 Sum of Mulliken atomic charges =   0.00000

 Dipole moment (field-independent basis, Debye):
    X=             -2.3768    Y=              0.7779    Z=             -0.4092  Tot=              2.5341
 Quadrupole moment (field-independent basis, Debye-Ang):
   XX=            -54.4749   YY=            -60.9640   ZZ=            -63.8445
   XY=             -7.0055   XZ=            -12.2779   YZ=             -2.0290

 Normal termination of Gaussian 09 at Fri Feb 10 13:05:02 2017.
