 Gaussian 09, Revision A.02,
 Gaussian 09:  EM64L-G09RevA.02 11-Jun-2009

 -------------------------------------------
 # HF/6-31G* Opt=(ModRedundant) geom=nocrowd
 -------------------------------------------

 ------------------
 Phi Psi fixed scan
 ------------------
 Symbolic Z-matrix:
 Charge =  0 Multiplicity = 1

 SCF Done:  E(RHF) =  -492.833867713     A.U. after   15 cycles
 SCF Done:  E(RHF) =  -492.845277540     A.U. after   14 cycles
 SCF Done:  E(RHF) =  -492.848405049     A.U. after   13 cycles
 SCF Done:  E(RHF) =  -492.848765132     A.U. after   13 cycles
 SCF Done:  E(RHF) =  -492.848915127     A.U. after   13 cycles
 SCF Done:  E(RHF) =  -492.849189831     A.U. after   12 cycles
 SCF Done:  E(RHF) =  -492.849467374     A.U. after   13 cycles
 SCF Done:  E(RHF) =  -492.849611703     A.U. after   13 cycles
 SCF Done:  E(RHF) =  -492.849711720     A.U. after   12 cycles
 SCF Done:  E(RHF) =  -492.849740159     A.U. after   12 cycles
 SCF Done:  E(RHF) =  -492.848050556     A.U. after   15 cycles
 SCF Done:  E(RHF) =  -492.850026184     A.U. after   15 cycles
 SCF Done:  E(RHF) =  -492.850162747     A.U. after   11 cycles
 SCF Done:  E(RHF) =  -492.850138656     A.U. after   12 cycles
 SCF Done:  E(RHF) =  -492.850197132     A.U. after   12 cycles
 SCF Done:  E(RHF) =  -492.850215651     A.U. after   12 cycles
 SCF Done:  E(RHF) =  -492.850215890     A.U. after    8 cycles
 SCF Done:  E(RHF) =  -492.850216124     A.U. after    8 cycles
 SCF Done:  E(RHF) =  -492.850216205     A.U. after    8 cycles
 SCF Done:  E(RHF) =  -492.850216228     A.U. after    7 cycles
 Optimization completed.
    -- Stationary point found.

                         Standard orientation:
 ---------------------------------------------------------------------
 Center     Atomic      Atomic             Coordinates (Angstroms)
 Number     Number       Type             X           Y           Z
 ---------------------------------------------------------------------
      1          1           0        4.163943   -0.935095   -0.431934
      2          6           0        3.140832   -1.068131   -0.751357
      3          1           0        2.842522   -2.093074   -0.552678
      4          1           0        3.064601   -0.892797   -1.818842
      5          6           0        2.251935   -0.133904    0.039262
      6          8           0        2.598240    0.362792    1.073132
      7          7           0        1.031961    0.106616   -0.520368
      8          1           0        0.767914   -0.473046   -1.285277
      9          6           0       -0.039028    0.718277    0.244660
     10          1           0        0.309634    0.777807    1.265337
     11          6           0       -0.331348    2.132556   -0.255266
     12          1           0       -0.642552    2.137646   -1.295807
     13          1           0       -1.095035    2.619908    0.344484
     14          1           0        0.573317    2.722202   -0.179091
     15          6           0       -1.220200   -0.262812    0.276327
     16          8           0       -1.067306   -1.371208    0.713327
     17          7           0       -2.393376    0.145687   -0.247730
     18          1           0       -2.507378    1.092093   -0.519889
     19          6           0       -3.566527   -0.702484   -0.197715
     20          1           0       -3.346302   -1.667620   -0.631275
     21          1           0       -3.904625   -0.856074    0.820514
     22          1           0       -4.357590   -0.231756   -0.765986
 ---------------------------------------------------------------------

 The electronic state is 1-A.
 Alpha  occ. eigenvalues --  -20.52446 -20.52160 -15.59382 -15.58398 -11.34830
 Alpha  occ. eigenvalues --  -11.34599 -11.27840 -11.26341 -11.23137 -11.22925
 Alpha  occ. eigenvalues --   -1.39749  -1.38815  -1.24118  -1.23488  -1.05701
 Alpha  occ. eigenvalues --   -0.99260  -0.96007  -0.88903  -0.79770  -0.79215
 Alpha  occ. eigenvalues --   -0.73220  -0.67131  -0.65598  -0.65002  -0.62816
 Alpha  occ. eigenvalues --   -0.61957  -0.59138  -0.58944  -0.57374  -0.56313
 Alpha  occ. eigenvalues --   -0.55971  -0.54709  -0.53546  -0.52117  -0.49710
 Alpha  occ. eigenvalues --   -0.42596  -0.41483  -0.39668  -0.38780
 Alpha virt. eigenvalues --    0.18644   0.20611   0.22147   0.23478   0.25751
 Alpha virt. eigenvalues --    0.27921   0.28379   0.29934   0.30460   0.31407
 Alpha virt. eigenvalues --    0.32265   0.33092   0.33616   0.34633   0.37738

 Mulliken atomic charges:
              1
     1  H    0.213953
     2  C   -0.592187
     3  H    0.205736
     4  H    0.176866
     5  C    0.751893
     6  O   -0.599034
     7  N   -0.783218
     8  H    0.383902
     9  C   -0.038699
    10  H    0.257755
    11  C   -0.505720
    12  H    0.159323
    13  H    0.161525
    14  H    0.206862
    15  C    0.731131
    16  O   -0.607061
    17  N   -0.803713
    18  H    0.399030
    19  C   -0.270762
    20  H    0.199183
    21  H    0.185551
    22  H    0.167686
 Sum of Mulliken atomic charges =   0.00000

 Dipole moment (field-independent basis, Debye):
    X=             -3.1010    Y=              1.5676    Z=             -4.1375  Tot=              5.4030
 Quadrupole moment (field-independent basis, Debye-Ang):
   XX=            -55.4214   YY=            -61.5204   ZZ=            -62.5446
   XY=             -8.0493   XZ=             -5.2174   YZ=              2.7429

 Normal termination of Gaussian 09 at Fri Feb 10 13:35:16 2017.
