 Gaussian 09, Revision A.02,
 Gaussian 09:  EM64L-G09RevA.02 11-Jun-2009

 -------------------------------------------
 # HF/6-31G* Opt=(ModRedundant) geom=nocrowd
 -------------------------------------------

 ------------------
 Phi Psi fixed scan
 ------------------
 Symbolic Z-matrix:
 Charge =  0 Multiplicity = 1

 SCF Done:  E(RHF) =  -492.834740463     A.U. after   15 cycles
 SCF Done:  E(RHF) =  -492.845323715     A.U. after   14 cycles
 SCF Done:  E(RHF) =  -492.847836610     A.U. after   14 cycles
 SCF Done:  E(RHF) =  -492.848175475     A.U. after   13 cycles
 SCF Done:  E(RHF) =  -492.848228713     A.U. after   13 cycles
 SCF Done:  E(RHF) =  -492.848398303     A.U. after   12 cycles
 SCF Done:  E(RHF) =  -492.848504830     A.U. after   13 cycles
 SCF Done:  E(RHF) =  -492.848588795     A.U. after   13 cycles
 SCF Done:  E(RHF) =  -492.848648430     A.U. after   11 cycles
 SCF Done:  E(RHF) =  -492.848682484     A.U. after   11 cycles
 SCF Done:  E(RHF) =  -492.849133092     A.U. after   13 cycles
 SCF Done:  E(RHF) =  -492.849184285     A.U. after   11 cycles
 SCF Done:  E(RHF) =  -492.849230942     A.U. after   12 cycles
 SCF Done:  E(RHF) =  -492.849243082     A.U. after   11 cycles
 SCF Done:  E(RHF) =  -492.849248834     A.U. after   11 cycles
 SCF Done:  E(RHF) =  -492.849253993     A.U. after   11 cycles
 SCF Done:  E(RHF) =  -492.849257843     A.U. after   10 cycles
 SCF Done:  E(RHF) =  -492.849258442     A.U. after    9 cycles
 SCF Done:  E(RHF) =  -492.849258489     A.U. after    7 cycles
 SCF Done:  E(RHF) =  -492.849258497     A.U. after    7 cycles
 Optimization completed.
    -- Stationary point found.

                         Standard orientation:
 ---------------------------------------------------------------------
 Center     Atomic      Atomic             Coordinates (Angstroms)
 Number     Number       Type             X           Y           Z
 ---------------------------------------------------------------------
      1          1           0        4.083801   -1.016496   -0.614503
      2          6           0        3.037407   -1.164591   -0.837816
      3          1           0        2.768910   -2.184167   -0.578826
      4          1           0        2.867542   -1.027123   -1.900017
      5          6           0        2.216827   -0.211014    0.003679
      6          8           0        2.631104    0.260897    1.023779
      7          7           0        0.976625    0.062005   -0.486202
      8          1           0        0.681147   -0.411567   -1.310033
      9          6           0       -0.024167    0.785896    0.277659
     10          1           0        0.379279    0.903548    1.269824
     11          6           0       -0.298721    2.165366   -0.320755
     12          1           0       -0.576796    2.110227   -1.369746
     13          1           0       -1.086212    2.681130    0.220558
     14          1           0        0.602508    2.762716   -0.258422
     15          6           0       -1.246237   -0.125061    0.444979
     16          8           0       -1.308693   -0.911346    1.347379
     17          7           0       -2.199604   -0.049417   -0.515641
     18          1           0       -2.210414    0.739533   -1.117745
     19          6           0       -3.412322   -0.836335   -0.417342
     20          1           0       -3.160896   -1.872165   -0.244218
     21          1           0       -4.048669   -0.500073    0.394144
     22          1           0       -3.955359   -0.755656   -1.349811
 ---------------------------------------------------------------------

 The electronic state is 1-A.
 Alpha  occ. eigenvalues --  -20.52648 -20.52196 -15.59244 -15.58926 -11.34902
 Alpha  occ. eigenvalues --  -11.34698 -11.27829 -11.26255 -11.23399 -11.23257
 Alpha  occ. eigenvalues --   -1.39769  -1.38960  -1.24552  -1.23272  -1.05890
 Alpha  occ. eigenvalues --   -0.99454  -0.96044  -0.89032  -0.79823  -0.79544
 Alpha  occ. eigenvalues --   -0.73152  -0.67251  -0.65904  -0.64855  -0.62963
 Alpha  occ. eigenvalues --   -0.62053  -0.59361  -0.58791  -0.57848  -0.56808
 Alpha  occ. eigenvalues --   -0.55995  -0.54833  -0.52902  -0.51972  -0.50469
 Alpha  occ. eigenvalues --   -0.43443  -0.41682  -0.39621  -0.38331
 Alpha virt. eigenvalues --    0.18505   0.20126   0.21850   0.23351   0.25643
 Alpha virt. eigenvalues --    0.27820   0.28309   0.29854   0.30366   0.31307
 Alpha virt. eigenvalues --    0.32838   0.33238   0.33439   0.34552   0.37379

 Mulliken atomic charges:
              1
     1  H    0.215199
     2  C   -0.587995
     3  H    0.204740
     4  H    0.171837
     5  C    0.754321
     6  O   -0.595883
     7  N   -0.803815
     8  H    0.383446
     9  C   -0.041866
    10  H    0.266326
    11  C   -0.500404
    12  H    0.145915
    13  H    0.173854
    14  H    0.203270
    15  C    0.737674
    16  O   -0.596146
    17  N   -0.798640
    18  H    0.390920
    19  C   -0.274955
    20  H    0.204504
    21  H    0.180556
    22  H    0.167141
 Sum of Mulliken atomic charges =   0.00000

 Dipole moment (field-independent basis, Debye):
    X=             -2.5589    Y=              0.9488    Z=             -5.6738  Tot=              6.2961
 Quadrupole moment (field-independent basis, Debye-Ang):
   XX=            -58.7629   YY=            -58.7521   ZZ=            -64.3678
   XY=             -6.4733   XZ=             -2.3236   YZ=              3.2229

 Normal termination of Gaussian 09 at Fri Feb 10 13:41:29 2017.
