 Gaussian 09, Revision A.02,
 Gaussian 09:  EM64L-G09RevA.02 11-Jun-2009

 -------------------------------------------
 # HF/6-31G* Opt=(ModRedundant) geom=nocrowd
 -------------------------------------------

 ------------------
 Phi Psi fixed scan
 ------------------
 Symbolic Z-matrix:
 Charge =  0 Multiplicity = 1

 SCF Done:  E(RHF) =  -492.837248403     A.U. after   15 cycles
 SCF Done:  E(RHF) =  -492.847227447     A.U. after   13 cycles
 SCF Done:  E(RHF) =  -492.850483597     A.U. after   13 cycles
 SCF Done:  E(RHF) =  -492.851450638     A.U. after   13 cycles
 SCF Done:  E(RHF) =  -492.851993856     A.U. after   14 cycles
 SCF Done:  E(RHF) =  -492.852729689     A.U. after   13 cycles
 SCF Done:  E(RHF) =  -492.853099101     A.U. after   12 cycles
 SCF Done:  E(RHF) =  -492.853084701     A.U. after   13 cycles
 SCF Done:  E(RHF) =  -492.853216106     A.U. after   12 cycles
 SCF Done:  E(RHF) =  -492.853234453     A.U. after   10 cycles
 SCF Done:  E(RHF) =  -492.853469138     A.U. after   11 cycles
 SCF Done:  E(RHF) =  -492.853600928     A.U. after   11 cycles
 SCF Done:  E(RHF) =  -492.853552175     A.U. after   12 cycles
 SCF Done:  E(RHF) =  -492.853669539     A.U. after   11 cycles
 SCF Done:  E(RHF) =  -492.853614147     A.U. after   12 cycles
 SCF Done:  E(RHF) =  -492.853676348     A.U. after   11 cycles
 SCF Done:  E(RHF) =  -492.853711390     A.U. after   11 cycles
 SCF Done:  E(RHF) =  -492.853715879     A.U. after   10 cycles
 SCF Done:  E(RHF) =  -492.853719716     A.U. after   10 cycles
 SCF Done:  E(RHF) =  -492.853720080     A.U. after    9 cycles
 Optimization completed.
    -- Stationary point found.

                         Standard orientation:
 ---------------------------------------------------------------------
 Center     Atomic      Atomic             Coordinates (Angstroms)
 Number     Number       Type             X           Y           Z
 ---------------------------------------------------------------------
      1          1           0        4.195766   -0.948026   -0.050043
      2          6           0        3.218170   -1.070711   -0.492332
      3          1           0        2.870677   -2.082601   -0.306534
      4          1           0        3.279210   -0.926228   -1.565272
      5          6           0        2.259490   -0.090326    0.145204
      6          8           0        2.511817    0.490156    1.163231
      7          7           0        1.092184    0.094755   -0.539747
      8          1           0        0.867153   -0.620593   -1.195705
      9          6           0       -0.048735    0.701989    0.114845
     10          1           0        0.213473    0.829654    1.157924
     11          6           0       -0.345285    2.080139   -0.482512
     12          1           0       -0.678547    2.005686   -1.512347
     13          1           0       -1.092429    2.624584    0.087687
     14          1           0        0.563875    2.666774   -0.461268
     15          6           0       -1.209125   -0.302198    0.083709
     16          8           0       -0.995770   -1.486096    0.068998
     17          7           0       -2.458888    0.197817    0.046926
     18          1           0       -2.600060    1.175377    0.130772
     19          6           0       -3.614092   -0.673495    0.117484
     20          1           0       -3.552188   -1.434538   -0.647148
     21          1           0       -3.687506   -1.163090    1.081652
     22          1           0       -4.503414   -0.079863   -0.046191
 ---------------------------------------------------------------------

 The electronic state is 1-A.
 Alpha  occ. eigenvalues --  -20.52947 -20.52236 -15.59419 -15.57733 -11.35153
 Alpha  occ. eigenvalues --  -11.34404 -11.27888 -11.26383 -11.23060 -11.22676
 Alpha  occ. eigenvalues --   -1.40117  -1.38817  -1.24099  -1.23387  -1.05591
 Alpha  occ. eigenvalues --   -0.99112  -0.96020  -0.88702  -0.80022  -0.78454
 Alpha  occ. eigenvalues --   -0.73293  -0.67151  -0.65406  -0.65019  -0.62928
 Alpha  occ. eigenvalues --   -0.61916  -0.59460  -0.58974  -0.57098  -0.56285
 Alpha  occ. eigenvalues --   -0.55941  -0.54265  -0.53821  -0.52205  -0.49405
 Alpha  occ. eigenvalues --   -0.42386  -0.41609  -0.39758  -0.39339
 Alpha virt. eigenvalues --    0.19319   0.20366   0.21752   0.24041   0.25944
 Alpha virt. eigenvalues --    0.28078   0.28853   0.29594   0.31156   0.31620
 Alpha virt. eigenvalues --    0.31861   0.33290   0.33839   0.34637   0.38128

 Mulliken atomic charges:
              1
     1  H    0.212324
     2  C   -0.593688
     3  H    0.203906
     4  H    0.183298
     5  C    0.738753
     6  O   -0.599817
     7  N   -0.769144
     8  H    0.391972
     9  C   -0.062253
    10  H    0.253148
    11  C   -0.488619
    12  H    0.171804
    13  H    0.147103
    14  H    0.204416
    15  C    0.751426
    16  O   -0.619637
    17  N   -0.804281
    18  H    0.396025
    19  C   -0.270473
    20  H    0.200231
    21  H    0.184664
    22  H    0.168842
 Sum of Mulliken atomic charges =   0.00000

 Dipole moment (field-independent basis, Debye):
    X=             -3.1485    Y=              1.3802    Z=             -2.3882  Tot=              4.1859
 Quadrupole moment (field-independent basis, Debye-Ang):
   XX=            -53.6165   YY=            -62.3198   ZZ=            -62.5706
   XY=             -8.9045   XZ=             -7.7038   YZ=              0.5465

 Normal termination of Gaussian 09 at Fri Feb 10 13:15:05 2017.
