 Gaussian 09, Revision A.02,
 Gaussian 09:  EM64L-G09RevA.02 11-Jun-2009

 -------------------------------------------
 # HF/6-31G* Opt=(ModRedundant) geom=nocrowd
 -------------------------------------------

 ------------------
 Phi Psi fixed scan
 ------------------
 Symbolic Z-matrix:
 Charge =  0 Multiplicity = 1

 SCF Done:  E(RHF) =  -492.840069942     A.U. after   15 cycles
 SCF Done:  E(RHF) =  -492.847909033     A.U. after   16 cycles
 SCF Done:  E(RHF) =  -492.848647594     A.U. after   13 cycles
 SCF Done:  E(RHF) =  -492.848826351     A.U. after   13 cycles
 SCF Done:  E(RHF) =  -492.849121778     A.U. after   13 cycles
 SCF Done:  E(RHF) =  -492.849420461     A.U. after   13 cycles
 SCF Done:  E(RHF) =  -492.849643619     A.U. after   16 cycles
 SCF Done:  E(RHF) =  -492.849929753     A.U. after   12 cycles
 SCF Done:  E(RHF) =  -492.850125965     A.U. after   13 cycles
 SCF Done:  E(RHF) =  -492.850198347     A.U. after   12 cycles
 SCF Done:  E(RHF) =  -492.850385436     A.U. after   13 cycles
 SCF Done:  E(RHF) =  -492.850537258     A.U. after   13 cycles
 SCF Done:  E(RHF) =  -492.850731434     A.U. after   12 cycles
 SCF Done:  E(RHF) =  -492.850886889     A.U. after   13 cycles
 SCF Done:  E(RHF) =  -492.851006264     A.U. after   12 cycles
 SCF Done:  E(RHF) =  -492.851023613     A.U. after   11 cycles
 SCF Done:  E(RHF) =  -492.851026351     A.U. after   10 cycles
 SCF Done:  E(RHF) =  -492.851026421     A.U. after    8 cycles
 SCF Done:  E(RHF) =  -492.851026422     A.U. after    6 cycles
 Optimization completed.
    -- Stationary point found.

                         Standard orientation:
 ---------------------------------------------------------------------
 Center     Atomic      Atomic             Coordinates (Angstroms)
 Number     Number       Type             X           Y           Z
 ---------------------------------------------------------------------
      1          1           0        3.947253   -1.415125    0.285967
      2          6           0        3.191911   -1.128727   -0.430625
      3          1           0        2.751263   -2.015772   -0.872104
      4          1           0        3.663982   -0.554263   -1.222531
      5          6           0        2.154674   -0.273705    0.266244
      6          8           0        2.357793    0.244626    1.323997
      7          7           0        0.970341   -0.149806   -0.412071
      8          1           0        1.002194   -0.411288   -1.373877
      9          6           0       -0.020146    0.852612   -0.045880
     10          1           0        0.344975    1.342193    0.841518
     11          6           0       -0.221197    1.882859   -1.159634
     12          1           0       -0.559106    1.412344   -2.078373
     13          1           0       -0.965519    2.612197   -0.863253
     14          1           0        0.709962    2.402157   -1.357772
     15          6           0       -1.366905    0.247660    0.350061
     16          8           0       -2.006574    0.724248    1.244766
     17          7           0       -1.848583   -0.738496   -0.451154
     18          1           0       -1.175506   -1.281051   -0.942111
     19          6           0       -3.093097   -1.401343   -0.115110
     20          1           0       -3.861533   -0.660045    0.043304
     21          1           0       -3.382309   -2.036583   -0.942328
     22          1           0       -3.009156   -2.003776    0.783700
 ---------------------------------------------------------------------

 The electronic state is 1-A.
 Alpha  occ. eigenvalues --  -20.53483 -20.52448 -15.59702 -15.58417 -11.35868
 Alpha  occ. eigenvalues --  -11.34123 -11.27734 -11.25638 -11.24181 -11.23382
 Alpha  occ. eigenvalues --   -1.40362  -1.39192  -1.25242  -1.22635  -1.06078
 Alpha  occ. eigenvalues --   -1.00056  -0.95741  -0.88471  -0.80452  -0.78572
 Alpha  occ. eigenvalues --   -0.72812  -0.68111  -0.66819  -0.63528  -0.62999
 Alpha  occ. eigenvalues --   -0.62551  -0.59368  -0.59148  -0.58603  -0.56980
 Alpha  occ. eigenvalues --   -0.55327  -0.54758  -0.53122  -0.52054  -0.50356
 Alpha  occ. eigenvalues --   -0.44095  -0.42743  -0.39258  -0.38838
 Alpha virt. eigenvalues --    0.18848   0.19541   0.19801   0.24565   0.25977
 Alpha virt. eigenvalues --    0.26844   0.29084   0.29759   0.30469   0.31334
 Alpha virt. eigenvalues --    0.31567   0.33270   0.33444   0.34169   0.37560

 Mulliken atomic charges:
              1
     1  H    0.221737
     2  C   -0.593699
     3  H    0.180773
     4  H    0.193932
     5  C    0.742238
     6  O   -0.577283
     7  N   -0.816276
     8  H    0.373153
     9  C   -0.064501
    10  H    0.267542
    11  C   -0.498534
    12  H    0.161058
    13  H    0.202980
    14  H    0.181664
    15  C    0.763697
    16  O   -0.600024
    17  N   -0.782803
    18  H    0.376772
    19  C   -0.280594
    20  H    0.205994
    21  H    0.165966
    22  H    0.176208
 Sum of Mulliken atomic charges =   0.00000

 Dipole moment (field-independent basis, Debye):
    X=              0.8965    Y=             -2.8426    Z=             -5.9350  Tot=              6.6414
 Quadrupole moment (field-independent basis, Debye-Ang):
   XX=            -62.5859   YY=            -56.4766   ZZ=            -65.7836
   XY=              1.6983   XZ=             -2.8537   YZ=             -1.6891

 Normal termination of Gaussian 09 at Fri Feb 10 13:52:44 2017.
