 Gaussian 09, Revision A.02,
 Gaussian 09:  EM64L-G09RevA.02 11-Jun-2009

 -------------------------------------------
 # HF/6-31G* Opt=(ModRedundant) geom=nocrowd
 -------------------------------------------

 ------------------
 Phi Psi fixed scan
 ------------------
 Symbolic Z-matrix:
 Charge =  0 Multiplicity = 1

 SCF Done:  E(RHF) =  -492.840222524     A.U. after   15 cycles
 SCF Done:  E(RHF) =  -492.848717238     A.U. after   14 cycles
 SCF Done:  E(RHF) =  -492.850416877     A.U. after   13 cycles
 SCF Done:  E(RHF) =  -492.851227726     A.U. after   16 cycles
 SCF Done:  E(RHF) =  -492.852124075     A.U. after   13 cycles
 SCF Done:  E(RHF) =  -492.852695494     A.U. after   13 cycles
 SCF Done:  E(RHF) =  -492.852642142     A.U. after   13 cycles
 SCF Done:  E(RHF) =  -492.852853101     A.U. after   12 cycles
 SCF Done:  E(RHF) =  -492.852946974     A.U. after   12 cycles
 SCF Done:  E(RHF) =  -492.853133558     A.U. after   12 cycles
 SCF Done:  E(RHF) =  -492.853415005     A.U. after   11 cycles
 SCF Done:  E(RHF) =  -492.853625778     A.U. after   14 cycles
 SCF Done:  E(RHF) =  -492.853625873     A.U. after   12 cycles
 SCF Done:  E(RHF) =  -492.853655464     A.U. after   11 cycles
 SCF Done:  E(RHF) =  -492.853656038     A.U. after    9 cycles
 SCF Done:  E(RHF) =  -492.853656222     A.U. after    9 cycles
 SCF Done:  E(RHF) =  -492.853656318     A.U. after    7 cycles
 SCF Done:  E(RHF) =  -492.853656543     A.U. after    8 cycles
 SCF Done:  E(RHF) =  -492.853656662     A.U. after    8 cycles
 SCF Done:  E(RHF) =  -492.853656683     A.U. after    7 cycles
 Optimization completed.
    -- Stationary point found.

                         Standard orientation:
 ---------------------------------------------------------------------
 Center     Atomic      Atomic             Coordinates (Angstroms)
 Number     Number       Type             X           Y           Z
 ---------------------------------------------------------------------
      1          1           0        3.911815   -1.446130    0.234611
      2          6           0        3.193509   -1.064290   -0.475630
      3          1           0        2.770980   -1.884179   -1.045832
      4          1           0        3.706983   -0.400689   -1.165422
      5          6           0        2.129860   -0.288310    0.271725
      6          8           0        2.296415    0.117455    1.383935
      7          7           0        0.966744   -0.095343   -0.426498
      8          1           0        1.022888   -0.263880   -1.407937
      9          6           0       -0.031206    0.873794    0.001438
     10          1           0        0.313754    1.289324    0.934269
     11          6           0       -0.204304    1.995148   -1.026344
     12          1           0       -0.532287    1.601450   -1.984620
     13          1           0       -0.946389    2.703076   -0.680573
     14          1           0        0.735173    2.517423   -1.169871
     15          6           0       -1.396037    0.256688    0.303128
     16          8           0       -2.158080    0.823186    1.036676
     17          7           0       -1.733437   -0.853202   -0.397220
     18          1           0       -0.981456   -1.412717   -0.728004
     19          6           0       -2.990297   -1.524291   -0.133729
     20          1           0       -3.795609   -0.806698   -0.176829
     21          1           0       -3.148349   -2.277306   -0.894959
     22          1           0       -3.006477   -1.997419    0.842785
 ---------------------------------------------------------------------

 The electronic state is 1-A.
 Alpha  occ. eigenvalues --  -20.53620 -20.52197 -15.59770 -15.58323 -11.36002
 Alpha  occ. eigenvalues --  -11.34071 -11.27766 -11.25585 -11.24298 -11.23220
 Alpha  occ. eigenvalues --   -1.40487  -1.39035  -1.25366  -1.22573  -1.06048
 Alpha  occ. eigenvalues --   -1.00095  -0.95842  -0.88300  -0.80531  -0.78482
 Alpha  occ. eigenvalues --   -0.72964  -0.68235  -0.66907  -0.63432  -0.62893
 Alpha  occ. eigenvalues --   -0.62608  -0.59413  -0.59204  -0.58609  -0.56842
 Alpha  occ. eigenvalues --   -0.55179  -0.54794  -0.53299  -0.52182  -0.49913
 Alpha  occ. eigenvalues --   -0.44090  -0.42888  -0.39186  -0.38875
 Alpha virt. eigenvalues --    0.18918   0.19787   0.19863   0.24847   0.25839
 Alpha virt. eigenvalues --    0.27176   0.28923   0.29700   0.30595   0.31347
 Alpha virt. eigenvalues --    0.31646   0.33198   0.33747   0.34085   0.37832

 Mulliken atomic charges:
              1
     1  H    0.221432
     2  C   -0.592876
     3  H    0.178943
     4  H    0.196338
     5  C    0.740078
     6  O   -0.577919
     7  N   -0.823392
     8  H    0.377519
     9  C   -0.050761
    10  H    0.263986
    11  C   -0.501788
    12  H    0.161304
    13  H    0.210543
    14  H    0.179697
    15  C    0.758151
    16  O   -0.608610
    17  N   -0.787316
    18  H    0.386556
    19  C   -0.280115
    20  H    0.205206
    21  H    0.165926
    22  H    0.177097
 Sum of Mulliken atomic charges =   0.00000

 Dipole moment (field-independent basis, Debye):
    X=              1.4250    Y=             -2.7321    Z=             -5.5298  Tot=              6.3304
 Quadrupole moment (field-independent basis, Debye-Ang):
   XX=            -63.6967   YY=            -56.3259   ZZ=            -65.3035
   XY=              3.1728   XZ=             -3.5125   YZ=             -1.6270

 Normal termination of Gaussian 09 at Fri Feb 10 13:55:31 2017.
