 Gaussian 09, Revision A.02,
 Gaussian 09:  EM64L-G09RevA.02 11-Jun-2009

 -------------------------------------------
 # HF/6-31G* Opt=(ModRedundant) geom=nocrowd
 -------------------------------------------

 ------------------
 Phi Psi fixed scan
 ------------------
 Symbolic Z-matrix:
 Charge =  0 Multiplicity = 1

 SCF Done:  E(RHF) =  -492.847890981     A.U. after   15 cycles
 SCF Done:  E(RHF) =  -492.855043264     A.U. after   14 cycles
 SCF Done:  E(RHF) =  -492.856229762     A.U. after   13 cycles
 SCF Done:  E(RHF) =  -492.856642994     A.U. after   13 cycles
 SCF Done:  E(RHF) =  -492.856678514     A.U. after   13 cycles
 SCF Done:  E(RHF) =  -492.856799448     A.U. after   13 cycles
 SCF Done:  E(RHF) =  -492.856892284     A.U. after   12 cycles
 SCF Done:  E(RHF) =  -492.856914495     A.U. after   12 cycles
 SCF Done:  E(RHF) =  -492.856944729     A.U. after   11 cycles
 SCF Done:  E(RHF) =  -492.856981439     A.U. after   11 cycles
 SCF Done:  E(RHF) =  -492.857238884     A.U. after   14 cycles
 SCF Done:  E(RHF) =  -492.857267488     A.U. after   12 cycles
 SCF Done:  E(RHF) =  -492.857275709     A.U. after   10 cycles
 SCF Done:  E(RHF) =  -492.857306852     A.U. after   11 cycles
 SCF Done:  E(RHF) =  -492.857343970     A.U. after   11 cycles
 SCF Done:  E(RHF) =  -492.857354315     A.U. after   11 cycles
 SCF Done:  E(RHF) =  -492.857361318     A.U. after   11 cycles
 SCF Done:  E(RHF) =  -492.857363634     A.U. after   11 cycles
 SCF Done:  E(RHF) =  -492.857365101     A.U. after   10 cycles
 SCF Done:  E(RHF) =  -492.857365181     A.U. after    8 cycles
 Optimization completed.
    -- Stationary point found.

                         Standard orientation:
 ---------------------------------------------------------------------
 Center     Atomic      Atomic             Coordinates (Angstroms)
 Number     Number       Type             X           Y           Z
 ---------------------------------------------------------------------
      1          1           0        3.756643   -1.587505   -0.055978
      2          6           0        3.161198   -0.908242   -0.648330
      3          1           0        2.777160   -1.423726   -1.521540
      4          1           0        3.799186   -0.097136   -0.986192
      5          6           0        2.057318   -0.340078    0.217972
      6          8           0        2.144815   -0.291033    1.411672
      7          7           0        0.965661    0.111731   -0.463437
      8          1           0        1.031437    0.152385   -1.456634
      9          6           0       -0.072910    0.915925    0.157440
     10          1           0        0.180155    0.975882    1.206951
     11          6           0       -0.115400    2.325273   -0.431836
     12          1           0       -0.323053    2.296208   -1.498239
     13          1           0       -0.892622    2.905804    0.042781
     14          1           0        0.839676    2.815860   -0.281261
     15          6           0       -1.460325    0.267842    0.105750
     16          8           0       -2.440327    0.921060    0.348211
     17          7           0       -1.511923   -1.041720   -0.199564
     18          1           0       -0.656629   -1.541642   -0.256008
     19          6           0       -2.754027   -1.779377   -0.119359
     20          1           0       -3.531231   -1.244472   -0.645227
     21          1           0       -2.614683   -2.746789   -0.583854
     22          1           0       -3.073227   -1.923214    0.907308
 ---------------------------------------------------------------------

 The electronic state is 1-A.
 Alpha  occ. eigenvalues --  -20.53513 -20.51864 -15.59828 -15.58281 -11.36103
 Alpha  occ. eigenvalues --  -11.34119 -11.27935 -11.25620 -11.24377 -11.22298
 Alpha  occ. eigenvalues --   -1.40443  -1.38819  -1.25466  -1.22563  -1.05838
 Alpha  occ. eigenvalues --   -0.99929  -0.96178  -0.87873  -0.80743  -0.78696
 Alpha  occ. eigenvalues --   -0.73394  -0.68289  -0.66794  -0.63844  -0.62661
 Alpha  occ. eigenvalues --   -0.62283  -0.59819  -0.59253  -0.58452  -0.55985
 Alpha  occ. eigenvalues --   -0.55226  -0.54343  -0.52913  -0.52335  -0.49903
 Alpha  occ. eigenvalues --   -0.43816  -0.42908  -0.39294  -0.38339
 Alpha virt. eigenvalues --    0.19219   0.19454   0.21224   0.24399   0.26145
 Alpha virt. eigenvalues --    0.27530   0.28217   0.29517   0.30440   0.31701
 Alpha virt. eigenvalues --    0.32421   0.33247   0.33564   0.34833   0.37462

 Mulliken atomic charges:
              1
     1  H    0.218810
     2  C   -0.589376
     3  H    0.175023
     4  H    0.202742
     5  C    0.736967
     6  O   -0.589034
     7  N   -0.828109
     8  H    0.384134
     9  C   -0.057988
    10  H    0.262269
    11  C   -0.486188
    12  H    0.155520
    13  H    0.217335
    14  H    0.172657
    15  C    0.767753
    16  O   -0.623011
    17  N   -0.794254
    18  H    0.398899
    19  C   -0.272137
    20  H    0.202183
    21  H    0.165692
    22  H    0.180111
 Sum of Mulliken atomic charges =   0.00000

 Dipole moment (field-independent basis, Debye):
    X=              2.2023    Y=             -2.1366    Z=             -4.1503  Tot=              5.1614
 Quadrupole moment (field-independent basis, Debye-Ang):
   XX=            -66.4538   YY=            -56.5299   ZZ=            -63.0687
   XY=              6.4927   XZ=             -6.3855   YZ=              0.6272

 Normal termination of Gaussian 09 at Fri Feb 10 12:16:11 2017.
