 Gaussian 09, Revision A.02,
 Gaussian 09:  EM64L-G09RevA.02 11-Jun-2009

 -------------------------------------------
 # HF/6-31G* Opt=(ModRedundant) geom=nocrowd
 -------------------------------------------

 ------------------
 Phi Psi fixed scan
 ------------------
 Symbolic Z-matrix:
 Charge =  0 Multiplicity = 1

 SCF Done:  E(RHF) =  -492.839628971     A.U. after   15 cycles
 SCF Done:  E(RHF) =  -492.847601325     A.U. after   13 cycles
 SCF Done:  E(RHF) =  -492.848230973     A.U. after   13 cycles
 SCF Done:  E(RHF) =  -492.848144014     A.U. after   12 cycles
 SCF Done:  E(RHF) =  -492.848378403     A.U. after   11 cycles
 SCF Done:  E(RHF) =  -492.848393026     A.U. after   11 cycles
 SCF Done:  E(RHF) =  -492.848421487     A.U. after   11 cycles
 SCF Done:  E(RHF) =  -492.848484713     A.U. after   13 cycles
 SCF Done:  E(RHF) =  -492.848538676     A.U. after   13 cycles
 SCF Done:  E(RHF) =  -492.848593851     A.U. after   12 cycles
 SCF Done:  E(RHF) =  -492.849384522     A.U. after   10 cycles
 SCF Done:  E(RHF) =  -492.849409797     A.U. after   12 cycles
 SCF Done:  E(RHF) =  -492.849437902     A.U. after   11 cycles
 SCF Done:  E(RHF) =  -492.849447663     A.U. after   12 cycles
 SCF Done:  E(RHF) =  -492.849450120     A.U. after   11 cycles
 SCF Done:  E(RHF) =  -492.849450876     A.U. after    9 cycles
 SCF Done:  E(RHF) =  -492.849451713     A.U. after   10 cycles
 SCF Done:  E(RHF) =  -492.849452692     A.U. after   10 cycles
 SCF Done:  E(RHF) =  -492.849453707     A.U. after   10 cycles
 SCF Done:  E(RHF) =  -492.849453911     A.U. after    8 cycles
 Optimization completed.
    -- Stationary point found.

                         Standard orientation:
 ---------------------------------------------------------------------
 Center     Atomic      Atomic             Coordinates (Angstroms)
 Number     Number       Type             X           Y           Z
 ---------------------------------------------------------------------
      1          1           0        4.013414   -1.291090   -0.184380
      2          6           0        2.963550   -1.448627   -0.383274
      3          1           0        2.636071   -2.328161    0.162886
      4          1           0        2.815655   -1.630912   -1.441964
      5          6           0        2.186697   -0.243968    0.103904
      6          8           0        2.622177    0.506057    0.930001
      7          7           0        0.960726   -0.085370   -0.468371
      8          1           0        0.633200   -0.813259   -1.061928
      9          6           0       -0.010561    0.875735    0.029367
     10          1           0        0.401271    1.296952    0.930636
     11          6           0       -0.269964    1.997527   -0.979347
     12          1           0       -0.607595    1.616121   -1.939020
     13          1           0       -1.018722    2.687988   -0.604419
     14          1           0        0.648590    2.545776   -1.149060
     15          6           0       -1.292784    0.161250    0.459318
     16          8           0       -1.683342    0.193131    1.590413
     17          7           0       -1.937075   -0.542544   -0.513363
     18          1           0       -1.754890   -0.297162   -1.459875
     19          6           0       -3.215092   -1.169342   -0.237089
     20          1           0       -3.134312   -1.768734    0.656958
     21          1           0       -4.004972   -0.440282   -0.089296
     22          1           0       -3.475017   -1.810786   -1.068986
 ---------------------------------------------------------------------

 The electronic state is 1-A.
 Alpha  occ. eigenvalues --  -20.53273 -20.52488 -15.59349 -15.59080 -11.35155
 Alpha  occ. eigenvalues --  -11.34932 -11.27832 -11.26335 -11.23528 -11.23311
 Alpha  occ. eigenvalues --   -1.40139  -1.39294  -1.25066  -1.23070  -1.06002
 Alpha  occ. eigenvalues --   -0.99600  -0.96227  -0.88769  -0.79929  -0.79502
 Alpha  occ. eigenvalues --   -0.73502  -0.67513  -0.66050  -0.64376  -0.63443
 Alpha  occ. eigenvalues --   -0.62169  -0.59684  -0.59172  -0.58093  -0.57074
 Alpha  occ. eigenvalues --   -0.56063  -0.54698  -0.52704  -0.52268  -0.50438
 Alpha  occ. eigenvalues --   -0.44095  -0.41945  -0.40179  -0.38304
 Alpha virt. eigenvalues --    0.18614   0.19229   0.21394   0.23215   0.25670
 Alpha virt. eigenvalues --    0.27470   0.28985   0.30059   0.30247   0.31145
 Alpha virt. eigenvalues --    0.32267   0.32701   0.33949   0.35476   0.36567

 Mulliken atomic charges:
              1
     1  H    0.217071
     2  C   -0.589374
     3  H    0.200755
     4  H    0.174175
     5  C    0.748921
     6  O   -0.592562
     7  N   -0.807154
     8  H    0.382927
     9  C   -0.068257
    10  H    0.272000
    11  C   -0.484545
    12  H    0.141479
    13  H    0.182322
    14  H    0.199083
    15  C    0.754724
    16  O   -0.590108
    17  N   -0.795332
    18  H    0.377951
    19  C   -0.277708
    20  H    0.208198
    21  H    0.177498
    22  H    0.167935
 Sum of Mulliken atomic charges =   0.00000

 Dipole moment (field-independent basis, Debye):
    X=             -1.7408    Y=             -2.2556    Z=             -5.8187  Tot=              6.4789
 Quadrupole moment (field-independent basis, Debye-Ang):
   XX=            -62.7161   YY=            -56.7264   ZZ=            -65.4328
   XY=             -3.8713   XZ=              1.3266   YZ=             -0.8033

 Normal termination of Gaussian 09 at Fri Feb 10 13:50:19 2017.
