 Gaussian 09, Revision A.02,
 Gaussian 09:  EM64L-G09RevA.02 11-Jun-2009

 -------------------------------------------
 # HF/6-31G* Opt=(ModRedundant) geom=nocrowd
 -------------------------------------------

 ------------------
 Phi Psi fixed scan
 ------------------
 Symbolic Z-matrix:
 Charge =  0 Multiplicity = 1

 SCF Done:  E(RHF) =  -492.837575837     A.U. after   15 cycles
 SCF Done:  E(RHF) =  -492.846659586     A.U. after   13 cycles
 SCF Done:  E(RHF) =  -492.848137924     A.U. after   13 cycles
 SCF Done:  E(RHF) =  -492.848381659     A.U. after   13 cycles
 SCF Done:  E(RHF) =  -492.848424617     A.U. after   12 cycles
 SCF Done:  E(RHF) =  -492.848529418     A.U. after   12 cycles
 SCF Done:  E(RHF) =  -492.848598809     A.U. after   13 cycles
 SCF Done:  E(RHF) =  -492.848693115     A.U. after   12 cycles
 SCF Done:  E(RHF) =  -492.848834776     A.U. after   12 cycles
 SCF Done:  E(RHF) =  -492.848869355     A.U. after   12 cycles
 SCF Done:  E(RHF) =  -492.849422724     A.U. after   12 cycles
 SCF Done:  E(RHF) =  -492.849460702     A.U. after   11 cycles
 SCF Done:  E(RHF) =  -492.849458607     A.U. after   11 cycles
 SCF Done:  E(RHF) =  -492.849477541     A.U. after   11 cycles
 SCF Done:  E(RHF) =  -492.849480403     A.U. after   10 cycles
 SCF Done:  E(RHF) =  -492.849481132     A.U. after    9 cycles
 SCF Done:  E(RHF) =  -492.849481787     A.U. after    9 cycles
 SCF Done:  E(RHF) =  -492.849482598     A.U. after   10 cycles
 SCF Done:  E(RHF) =  -492.849483370     A.U. after   10 cycles
 SCF Done:  E(RHF) =  -492.849483386     A.U. after    7 cycles
 Optimization completed.
    -- Stationary point found.

                         Standard orientation:
 ---------------------------------------------------------------------
 Center     Atomic      Atomic             Coordinates (Angstroms)
 Number     Number       Type             X           Y           Z
 ---------------------------------------------------------------------
      1          1           0        4.037479   -1.181616   -0.453450
      2          6           0        2.985874   -1.333791   -0.647586
      3          1           0        2.693658   -2.294760   -0.235272
      4          1           0        2.811323   -1.355179   -1.717638
      5          6           0        2.197448   -0.240632    0.041577
      6          8           0        2.632854    0.369744    0.975724
      7          7           0        0.960589   -0.012562   -0.479561
      8          1           0        0.642227   -0.609646   -1.209078
      9          6           0       -0.016064    0.846545    0.169090
     10          1           0        0.398639    1.114701    1.126141
     11          6           0       -0.281223    2.116902   -0.640146
     12          1           0       -0.580263    1.900756   -1.662099
     13          1           0       -1.054677    2.721422   -0.176540
     14          1           0        0.627951    2.703653   -0.687721
     15          6           0       -1.265937    0.020502    0.485151
     16          8           0       -1.484209   -0.388663    1.589352
     17          7           0       -2.069013   -0.276173   -0.570782
     18          1           0       -1.993541    0.280218   -1.390312
     19          6           0       -3.309881   -0.998341   -0.371998
     20          1           0       -3.119574   -1.891351    0.204118
     21          1           0       -4.047554   -0.402881    0.155511
     22          1           0       -3.707161   -1.279928   -1.338389
 ---------------------------------------------------------------------

 The electronic state is 1-A.
 Alpha  occ. eigenvalues --  -20.52987 -20.52328 -15.59262 -15.59033 -11.35035
 Alpha  occ. eigenvalues --  -11.34793 -11.27827 -11.26285 -11.23414 -11.23399
 Alpha  occ. eigenvalues --   -1.39949  -1.39123  -1.24822  -1.23150  -1.05960
 Alpha  occ. eigenvalues --   -0.99534  -0.96132  -0.88955  -0.79861  -0.79554
 Alpha  occ. eigenvalues --   -0.73261  -0.67371  -0.66010  -0.64674  -0.63189
 Alpha  occ. eigenvalues --   -0.62107  -0.59512  -0.58917  -0.58027  -0.56986
 Alpha  occ. eigenvalues --   -0.56044  -0.54767  -0.52746  -0.52062  -0.50614
 Alpha  occ. eigenvalues --   -0.43822  -0.41818  -0.39853  -0.38297
 Alpha virt. eigenvalues --    0.18518   0.19705   0.21755   0.23215   0.25627
 Alpha virt. eigenvalues --    0.27655   0.28575   0.29918   0.30243   0.31167
 Alpha virt. eigenvalues --    0.32638   0.32971   0.34196   0.34628   0.36846

 Mulliken atomic charges:
              1
     1  H    0.216054
     2  C   -0.588132
     3  H    0.202918
     4  H    0.172515
     5  C    0.751518
     6  O   -0.594067
     7  N   -0.806747
     8  H    0.383648
     9  C   -0.055507
    10  H    0.270038
    11  C   -0.491495
    12  H    0.141977
    13  H    0.177878
    14  H    0.201197
    15  C    0.746344
    16  O   -0.592052
    17  N   -0.797111
    18  H    0.384931
    19  C   -0.276453
    20  H    0.206334
    21  H    0.178829
    22  H    0.167382
 Sum of Mulliken atomic charges =   0.00000

 Dipole moment (field-independent basis, Debye):
    X=             -2.1887    Y=             -0.5437    Z=             -6.0349  Tot=              6.4425
 Quadrupole moment (field-independent basis, Debye-Ang):
   XX=            -60.7860   YY=            -57.0316   ZZ=            -65.6081
   XY=             -5.4895   XZ=             -0.1415   YZ=              1.4945

 Normal termination of Gaussian 09 at Fri Feb 10 13:44:32 2017.
