 Gaussian 09, Revision A.02,
 Gaussian 09:  EM64L-G09RevA.02 11-Jun-2009

 -------------------
 #SP MP2/aug-cc-pVDZ
 -------------------

 -------------------------------
 Single Point calculation at MP2
 -------------------------------
 Symbolic Z-matrix:
 Charge =  0 Multiplicity = 1

                         Standard orientation:
 ---------------------------------------------------------------------
 Center     Atomic      Atomic             Coordinates (Angstroms)
 Number     Number       Type             X           Y           Z
 ---------------------------------------------------------------------
      1          1           0        3.459912   -1.894290   -0.180501
      2          6           0        3.163910   -0.945391   -0.635801
      3          1           0        2.872010   -1.121392   -1.676201
      4          1           0        4.041608   -0.290389   -0.622701
      5          6           0        2.069108   -0.315194    0.212699
      6          8           0        2.167908   -0.211693    1.426499
      7          7           0        0.959107    0.115104   -0.483701
      8          1           0        1.017607    0.137604   -1.494001
      9          6           0       -0.082695    0.932101    0.136899
     10          1           0        0.204705    1.000802    1.192099
     11          6           0       -0.142798    2.338101   -0.468301
     12          1           0       -0.334098    2.295700   -1.548101
     13          1           0       -0.958899    2.898399   -0.008301
     14          1           0        0.801601    2.865403   -0.302001
     15          6           0       -1.479493    0.272098    0.116499
     16          8           0       -2.483195    0.933195    0.359899
     17          7           0       -1.497890   -1.058802   -0.166301
     18          1           0       -0.605589   -1.516600   -0.286301
     19          6           0       -2.712688   -1.850405   -0.114301
     20          1           0       -3.548989   -1.159107   -0.000301
     21          1           0       -2.842386   -2.426906   -1.037401
     22          1           0       -2.705786   -2.543205    0.736399
 ---------------------------------------------------------------------

 SCF Done:  E(RHF) =  -492.925034566     A.U. after   14 cycles
 E2 =    -0.1601546753D+01 EUMP2 =    -0.49452658131887D+03

 The electronic state is 1-A.
 Alpha  occ. eigenvalues --  -20.54268 -20.52742 -15.61015 -15.59465 -11.37646
 Alpha  occ. eigenvalues --  -11.35827 -11.29222 -11.26800 -11.25943 -11.23490
 Alpha  occ. eigenvalues --   -1.39770  -1.38179  -1.25522  -1.22674  -1.05805
 Alpha  occ. eigenvalues --   -0.99968  -0.96219  -0.87695  -0.80906  -0.78672
 Alpha  occ. eigenvalues --   -0.73312  -0.68474  -0.66757  -0.63812  -0.62360
 Alpha  occ. eigenvalues --   -0.62203  -0.60027  -0.59334  -0.58322  -0.55997
 Alpha  occ. eigenvalues --   -0.54800  -0.54229  -0.52770  -0.52129  -0.50093
 Alpha  occ. eigenvalues --   -0.44277  -0.43581  -0.39787  -0.38974
 Alpha virt. eigenvalues --    0.02227   0.03697   0.04178   0.04591   0.05553
 Alpha virt. eigenvalues --    0.06147   0.06267   0.06527   0.07259   0.08080
 Alpha virt. eigenvalues --    0.08471   0.09425   0.11590   0.12139   0.12472

 Mulliken atomic charges:
              1
     1  H    0.033134
     2  C    0.364356
     3  H   -0.163661
     4  H    0.047727
     5  C    0.602016
     6  O   -0.856773
     7  N   -0.279982
     8  H   -0.095027
     9  C   -0.430882
    10  H   -0.002174
    11  C    0.847154
    12  H   -0.053952
    13  H   -0.028837
    14  H   -0.050326
    15  C    1.120853
    16  O   -0.853148
    17  N   -0.516904
    18  H   -0.070471
    19  C    0.721177
    20  H   -0.149333
    21  H   -0.105583
    22  H   -0.079363
 Sum of Mulliken atomic charges =   0.00000

 Dipole moment (field-independent basis, Debye):
    X=              2.3024    Y=             -2.3615    Z=             -4.4473  Tot=              5.5368
 Quadrupole moment (field-independent basis, Debye-Ang):
   XX=            -67.6359   YY=            -57.2650   ZZ=            -64.2364
   XY=              6.0385   XZ=             -6.7672   YZ=              0.5122

 Normal termination of Gaussian 09 at Mon Feb 13 07:36:52 2017.
