 Gaussian 09, Revision A.02,
 Gaussian 09:  EM64L-G09RevA.02 11-Jun-2009

 -------------------
 #SP MP2/aug-cc-pVDZ
 -------------------

 -------------------------------
 Single Point calculation at MP2
 -------------------------------
 Symbolic Z-matrix:
 Charge =  0 Multiplicity = 1

                         Standard orientation:
 ---------------------------------------------------------------------
 Center     Atomic      Atomic             Coordinates (Angstroms)
 Number     Number       Type             X           Y           Z
 ---------------------------------------------------------------------
      1          1           0        4.278897   -0.704373   -0.065499
      2          6           0        3.275799   -1.087778   -0.265799
      3          1           0        3.163704   -2.030879    0.281901
      4          1           0        3.168700   -1.292379   -1.335399
      5          6           0        2.253694   -0.088883    0.253201
      6          8           0        2.421791    0.539817    1.290801
      7          7           0        1.138693    0.066811   -0.540299
      8          1           0        0.921597   -0.698590   -1.171699
      9          6           0       -0.048610    0.713405   -0.006099
     10          1           0        0.164689    0.943306    1.044901
     11          6           0       -0.352917    2.024703   -0.754399
     12          1           0       -0.563616    1.830202   -1.811499
     13          1           0       -1.211919    2.554499   -0.327499
     14          1           0        0.517680    2.683708   -0.691599
     15          6           0       -1.215805   -0.294301   -0.081499
     16          8           0       -1.073699   -1.405100   -0.586199
     17          7           0       -2.410607    0.162593    0.385201
     18          1           0       -2.430612    1.053893    0.860001
     19          6           0       -3.606603   -0.663213    0.421401
     20          1           0       -3.417799   -1.541812   -0.196199
     21          1           0       -3.841901   -0.991414    1.441501
     22          1           0       -4.464106   -0.113318    0.019101
 ---------------------------------------------------------------------

 SCF Done:  E(RHF) =  -492.926018733     A.U. after   14 cycles
 E2 =    -0.1600228547D+01 EUMP2 =    -0.49452624728013D+03

 The electronic state is 1-A.
 Alpha  occ. eigenvalues --  -20.54277 -20.52904 -15.60501 -15.58582 -11.36952
 Alpha  occ. eigenvalues --  -11.35881 -11.29135 -11.27558 -11.24265 -11.24138
 Alpha  occ. eigenvalues --   -1.39751  -1.38053  -1.24292  -1.23307  -1.05487
 Alpha  occ. eigenvalues --   -0.99039  -0.96120  -0.88220  -0.80210  -0.78133
 Alpha  occ. eigenvalues --   -0.73208  -0.67405  -0.65921  -0.64098  -0.63134
 Alpha  occ. eigenvalues --   -0.61786  -0.59838  -0.58792  -0.57051  -0.56471
 Alpha  occ. eigenvalues --   -0.55480  -0.54144  -0.53183  -0.52126  -0.49345
 Alpha  occ. eigenvalues --   -0.43576  -0.42257  -0.40586  -0.39440
 Alpha virt. eigenvalues --    0.02813   0.03995   0.04324   0.04503   0.05677
 Alpha virt. eigenvalues --    0.06100   0.06231   0.07082   0.07332   0.07776
 Alpha virt. eigenvalues --    0.08987   0.09853   0.10964   0.11724   0.12898

 Mulliken atomic charges:
              1
     1  H   -0.001945
     2  C    0.386559
     3  H    0.068023
     4  H   -0.093690
     5  C    0.525806
     6  O   -0.834118
     7  N   -0.509013
     8  H   -0.005029
     9  C   -0.026452
    10  H   -0.031697
    11  C    0.788491
    12  H   -0.033188
    13  H   -0.096141
    14  H   -0.082291
    15  C    1.051228
    16  O   -0.844418
    17  N   -0.511725
    18  H   -0.106169
    19  C    0.703048
    20  H   -0.140779
    21  H   -0.079926
    22  H   -0.126575
 Sum of Mulliken atomic charges =   0.00000

 Dipole moment (field-independent basis, Debye):
    X=             -2.8600    Y=              1.0174    Z=             -1.0472  Tot=              3.2111
 Quadrupole moment (field-independent basis, Debye-Ang):
   XX=            -54.4155   YY=            -62.4884   ZZ=            -64.6434
   XY=             -9.1106   XZ=            -10.6136   YZ=             -1.9529

 Normal termination of Gaussian 09 at Mon Feb 13 07:13:53 2017.
