 Gaussian 09, Revision A.02,
 Gaussian 09:  EM64L-G09RevA.02 11-Jun-2009

 -------------------
 #SP MP2/aug-cc-pVDZ
 -------------------

 -------------------------------
 Single Point calculation at MP2
 -------------------------------
 Symbolic Z-matrix:
 Charge =  0 Multiplicity = 1

                         Standard orientation:
 ---------------------------------------------------------------------
 Center     Atomic      Atomic             Coordinates (Angstroms)
 Number     Number       Type             X           Y           Z
 ---------------------------------------------------------------------
      1          1           0        3.494827   -1.794262   -0.511208
      2          6           0        3.163817   -0.791866   -0.794108
      3          1           0        2.882717   -0.788268   -1.852108
      4          1           0        4.014110   -0.114657   -0.656708
      5          6           0        2.039713   -0.363977    0.137292
      6          8           0        2.087215   -0.556176    1.346392
      7          7           0        0.969207    0.242012   -0.472108
      8          1           0        1.021905    0.427713   -1.465008
      9          6           0       -0.089300    0.920202    0.275492
     10          1           0        0.157301    0.744404    1.328892
     11          6           0       -0.114015    2.421801   -0.010608
     12          1           0       -0.298317    2.618500   -1.073008
     13          1           0       -0.920920    2.898093    0.550292
     14          1           0        0.841080    2.874111    0.273692
     15          6           0       -1.472394    0.279188    0.011192
     16          8           0       -2.475201    0.956778   -0.181908
     17          7           0       -1.474580   -1.082912    0.048192
     18          1           0       -0.600975   -1.551103    0.243692
     19          6           0       -2.684572   -1.872024   -0.087908
     20          1           0       -3.503979   -1.181133   -0.291208
     21          1           0       -2.600965   -2.585424   -0.916508
     22          1           0       -2.904767   -2.426427    0.832592
 ---------------------------------------------------------------------

 SCF Done:  E(RHF) =  -492.924913837     A.U. after   14 cycles
 E2 =    -0.1601100377D+01 EUMP2 =    -0.49452601421402D+03

 The electronic state is 1-A.
 Alpha  occ. eigenvalues --  -20.54145 -20.53140 -15.60897 -15.59231 -11.37553
 Alpha  occ. eigenvalues --  -11.35885 -11.29277 -11.26709 -11.25818 -11.23188
 Alpha  occ. eigenvalues --   -1.39624  -1.38382  -1.25338  -1.22641  -1.05779
 Alpha  occ. eigenvalues --   -0.99840  -0.96174  -0.87473  -0.80845  -0.78702
 Alpha  occ. eigenvalues --   -0.73169  -0.68381  -0.66450  -0.64555  -0.62317
 Alpha  occ. eigenvalues --   -0.61844  -0.60197  -0.59262  -0.58151  -0.55424
 Alpha  occ. eigenvalues --   -0.54631  -0.53572  -0.52942  -0.52111  -0.50805
 Alpha  occ. eigenvalues --   -0.44242  -0.43541  -0.40054  -0.38530
 Alpha virt. eigenvalues --    0.02482   0.03801   0.04423   0.04510   0.05673
 Alpha virt. eigenvalues --    0.05959   0.06319   0.06539   0.07262   0.08089
 Alpha virt. eigenvalues --    0.08872   0.09492   0.11338   0.12058   0.12641

 Mulliken atomic charges:
              1
     1  H    0.027896
     2  C    0.354086
     3  H   -0.138273
     4  H    0.063627
     5  C    0.569887
     6  O   -0.863690
     7  N   -0.255848
     8  H   -0.125259
     9  C   -0.328374
    10  H   -0.093288
    11  C    0.846418
    12  H   -0.054902
    13  H   -0.026119
    14  H   -0.040681
    15  C    1.136403
    16  O   -0.805155
    17  N   -0.550702
    18  H   -0.094315
    19  C    0.723086
    20  H   -0.158621
    21  H   -0.099347
    22  H   -0.086831
 Sum of Mulliken atomic charges =   0.00000

 Dipole moment (field-independent basis, Debye):
    X=              2.2696    Y=             -1.5619    Z=             -3.0693  Tot=              4.1245
 Quadrupole moment (field-independent basis, Debye-Ang):
   XX=            -67.1167   YY=            -58.2329   ZZ=            -63.1849
   XY=              7.9561   XZ=             -9.7308   YZ=              2.3769

 Normal termination of Gaussian 09 at Mon Feb 13 09:09:06 2017.
