 Gaussian 09, Revision A.02,
 Gaussian 09:  EM64L-G09RevA.02 11-Jun-2009

 -------------------
 #SP MP2/aug-cc-pVDZ
 -------------------

 -------------------------------
 Single Point calculation at MP2
 -------------------------------
 Symbolic Z-matrix:
 Charge =  0 Multiplicity = 1

                         Standard orientation:
 ---------------------------------------------------------------------
 Center     Atomic      Atomic             Coordinates (Angstroms)
 Number     Number       Type             X           Y           Z
 ---------------------------------------------------------------------
      1          1           0        3.481518   -1.847684   -0.324809
      2          6           0        3.158813   -0.878486   -0.713809
      3          1           0        2.863914   -0.989887   -1.762209
      4          1           0        4.019710   -0.202781   -0.662509
      5          6           0        2.053811   -0.334191    0.179491
      6          8           0        2.132211   -0.361491    1.399991
      7          7           0        0.963608    0.182804   -0.483009
      8          1           0        1.012608    0.269004   -1.489909
      9          6           0       -0.090496    0.931998    0.198691
     10          1           0        0.172105    0.877700    1.261691
     11          6           0       -0.129103    2.395098   -0.247909
     12          1           0       -0.299503    2.474197   -1.328709
     13          1           0       -0.950206    2.912794    0.251291
     14          1           0        0.816495    2.889603   -0.005409
     15          6           0       -1.482092    0.272891    0.055791
     16          8           0       -2.508696    0.941886    0.099291
     17          7           0       -1.467886   -1.082909   -0.065009
     18          1           0       -0.568583   -1.542104   -0.072009
     19          6           0       -2.679382   -1.880515   -0.093109
     20          1           0       -3.524485   -1.190419   -0.092609
     21          1           0       -2.722179   -2.502515   -0.995009
     22          1           0       -2.748878   -2.531115    0.787191
 ---------------------------------------------------------------------

 SCF Done:  E(RHF) =  -492.924870569     A.U. after   14 cycles
 E2 =    -0.1601405337D+01 EUMP2 =    -0.49452627590596D+03

 The electronic state is 1-A.
 Alpha  occ. eigenvalues --  -20.54214 -20.52917 -15.60987 -15.59368 -11.37622
 Alpha  occ. eigenvalues --  -11.35872 -11.29266 -11.26765 -11.25909 -11.23260
 Alpha  occ. eigenvalues --   -1.39720  -1.38276  -1.25467  -1.22660  -1.05785
 Alpha  occ. eigenvalues --   -0.99904  -0.96216  -0.87569  -0.80908  -0.78721
 Alpha  occ. eigenvalues --   -0.73309  -0.68440  -0.66617  -0.64188  -0.62351
 Alpha  occ. eigenvalues --   -0.61986  -0.60148  -0.59332  -0.58254  -0.55650
 Alpha  occ. eigenvalues --   -0.54737  -0.53947  -0.52763  -0.52145  -0.50428
 Alpha  occ. eigenvalues --   -0.44257  -0.43567  -0.39908  -0.38760
 Alpha virt. eigenvalues --    0.02325   0.03742   0.04294   0.04551   0.05599
 Alpha virt. eigenvalues --    0.06071   0.06312   0.06493   0.07232   0.08108
 Alpha virt. eigenvalues --    0.08597   0.09468   0.11468   0.12113   0.12650

 Mulliken atomic charges:
              1
     1  H    0.028370
     2  C    0.354060
     3  H   -0.156347
     4  H    0.056439
     5  C    0.583990
     6  O   -0.852572
     7  N   -0.233122
     8  H   -0.122281
     9  C   -0.363736
    10  H   -0.050161
    11  C    0.840902
    12  H   -0.062338
    13  H   -0.021935
    14  H   -0.046265
    15  C    1.112869
    16  O   -0.830750
    17  N   -0.532342
    18  H   -0.075817
    19  C    0.708539
    20  H   -0.156367
    21  H   -0.097380
    22  H   -0.083756
 Sum of Mulliken atomic charges =   0.00000

 Dipole moment (field-independent basis, Debye):
    X=              2.3383    Y=             -2.0360    Z=             -3.8550  Tot=              4.9471
 Quadrupole moment (field-independent basis, Debye-Ang):
   XX=            -67.8219   YY=            -57.6108   ZZ=            -63.6477
   XY=              6.8999   XZ=             -8.2499   YZ=              1.4909

 Normal termination of Gaussian 09 at Mon Feb 13 09:08:10 2017.
