 Gaussian 09, Revision A.02,
 Gaussian 09:  EM64L-G09RevA.02 11-Jun-2009

 -------------------
 #SP MP2/aug-cc-pVDZ
 -------------------

 -------------------------------
 Single Point calculation at MP2
 -------------------------------
 Symbolic Z-matrix:
 Charge =  0 Multiplicity = 1

                         Standard orientation:
 ---------------------------------------------------------------------
 Center     Atomic      Atomic             Coordinates (Angstroms)
 Number     Number       Type             X           Y           Z
 ---------------------------------------------------------------------
      1          1           0       -4.214517   -0.681272    0.663810
      2          6           0       -3.186819   -1.034179    0.773910
      3          1           0       -3.134327   -2.049780    0.364710
      4          1           0       -2.927819   -1.075481    1.837010
      5          6           0       -2.267212   -0.129886   -0.031590
      6          8           0       -2.602409    0.364117   -1.098990
      7          7           0       -1.033311    0.099105    0.533410
      8          1           0       -0.766315   -0.482497    1.316410
      9          6           0        0.043194    0.707297   -0.244990
     10          1           0       -0.339606    0.762300   -1.269390
     11          6           0        0.344704    2.131395    0.240410
     12          1           0        0.670704    2.148693    1.287910
     13          1           0        1.109708    2.613989   -0.380190
     14          1           0       -0.566492    2.731802    0.169410
     15          6           0        1.225886   -0.285912   -0.288890
     16          8           0        1.065278   -1.417610   -0.729490
     17          7           0        2.409090    0.146980    0.238610
     18          1           0        2.486797    1.105979    0.541010
     19          6           0        3.609884   -0.671229    0.224310
     20          1           0        3.317676   -1.673027   -0.092490
     21          1           0        4.356786   -0.279135   -0.477190
     22          1           0        4.056183   -0.721132    1.223710
 ---------------------------------------------------------------------

 SCF Done:  E(RHF) =  -492.918801972     A.U. after   14 cycles
 E2 =    -0.1601722609D+01 EUMP2 =    -0.49452052458105D+03

 The electronic state is 1-A.
 Alpha  occ. eigenvalues --  -20.53288 -20.52892 -15.60462 -15.59559 -11.36525
 Alpha  occ. eigenvalues --  -11.36097 -11.29187 -11.27392 -11.24534 -11.24455
 Alpha  occ. eigenvalues --   -1.39056  -1.38115  -1.24196  -1.23450  -1.05694
 Alpha  occ. eigenvalues --   -0.99255  -0.95939  -0.88925  -0.79665  -0.79254
 Alpha  occ. eigenvalues --   -0.73127  -0.67292  -0.65461  -0.65244  -0.62529
 Alpha  occ. eigenvalues --   -0.61766  -0.59098  -0.58959  -0.57287  -0.56387
 Alpha  occ. eigenvalues --   -0.55371  -0.54693  -0.53469  -0.52166  -0.49585
 Alpha  occ. eigenvalues --   -0.43192  -0.42187  -0.40082  -0.39311
 Alpha virt. eigenvalues --    0.02536   0.03642   0.04167   0.04567   0.05725
 Alpha virt. eigenvalues --    0.05868   0.06148   0.06868   0.07524   0.07935
 Alpha virt. eigenvalues --    0.08478   0.09198   0.11344   0.11713   0.12627

 Mulliken atomic charges:
              1
     1  H   -0.001587
     2  C    0.357201
     3  H    0.073939
     4  H   -0.101000
     5  C    0.586675
     6  O   -0.834075
     7  N   -0.477617
     8  H   -0.071449
     9  C   -0.160174
    10  H   -0.031498
    11  C    0.861473
    12  H    0.033330
    13  H    0.002028
    14  H   -0.188800
    15  C    1.084084
    16  O   -0.883613
    17  N   -0.523792
    18  H   -0.144991
    19  C    0.770121
    20  H   -0.148561
    21  H   -0.083454
    22  H   -0.118239
 Sum of Mulliken atomic charges =   0.00000

 Dipole moment (field-independent basis, Debye):
    X=              3.0684    Y=              1.7242    Z=              4.4384  Tot=              5.6646
 Quadrupole moment (field-independent basis, Debye-Ang):
   XX=            -56.2219   YY=            -62.3631   ZZ=            -63.6255
   XY=              8.2204   XZ=             -5.8445   YZ=             -2.8207

 Normal termination of Gaussian 09 at Mon Feb 13 08:23:24 2017.
