 Gaussian 09, Revision A.02,
 Gaussian 09:  EM64L-G09RevA.02 11-Jun-2009

 -------------------------------------------------------------------
 # HF/6-31G* Opt=(ModRedundant, maxcycles=1000, calcfc) geom=nocrowd
 -------------------------------------------------------------------

 ------------------
 Phi Psi fixed scan
 ------------------
 Symbolic Z-matrix:
 Charge =  0 Multiplicity = 1

 SCF Done:  E(RHF) =  -984.311238559     A.U. after   17 cycles

  Exact polarizability:   0.000   0.000   0.000   0.000   0.000   0.000
 Approx polarizability: 146.967  -3.212 137.471  -6.730   8.802 113.695

 SCF Done:  E(RHF) =  -984.365422436     A.U. after   14 cycles
 SCF Done:  E(RHF) =  -984.440196306     A.U. after   14 cycles
 SCF Done:  E(RHF) =  -984.477654876     A.U. after   15 cycles
 SCF Done:  E(RHF) =  -984.509293932     A.U. after   13 cycles
 SCF Done:  E(RHF) =  -984.500736852     A.U. after   15 cycles
 SCF Done:  E(RHF) =  -984.522831245     A.U. after   14 cycles
 SCF Done:  E(RHF) =  -984.527853354     A.U. after   13 cycles
 SCF Done:  E(RHF) =  -984.536307842     A.U. after   14 cycles
 SCF Done:  E(RHF) =  -984.532977121     A.U. after   15 cycles
 SCF Done:  E(RHF) =  -984.551156943     A.U. after   11 cycles
 SCF Done:  E(RHF) =  -984.551160334     A.U. after   10 cycles
 SCF Done:  E(RHF) =  -984.551161863     A.U. after   10 cycles
 SCF Done:  E(RHF) =  -984.551162300     A.U. after    9 cycles
 SCF Done:  E(RHF) =  -984.551162528     A.U. after    9 cycles
 SCF Done:  E(RHF) =  -984.551162681     A.U. after    9 cycles
 SCF Done:  E(RHF) =  -984.551162750     A.U. after    8 cycles
 SCF Done:  E(RHF) =  -984.551162759     A.U. after    7 cycles
 SCF Done:  E(RHF) =  -984.551162756     A.U. after    7 cycles
 SCF Done:  E(RHF) =  -984.551162777     A.U. after    6 cycles
 Optimization completed.
    -- Stationary point found.

                         Standard orientation:
 ---------------------------------------------------------------------
 Center     Atomic      Atomic             Coordinates (Angstroms)
 Number     Number       Type             X           Y           Z
 ---------------------------------------------------------------------
      1          1           0        4.004070    3.901445   -0.489517
      2          6           0        3.665755    3.224303    0.281844
      3          1           0        2.660884    3.489272    0.588424
      4          1           0        4.324480    3.327050    1.138608
      5          6           0        3.758054    1.807096   -0.239243
      6          8           0        4.569613    1.478878   -1.064925
      7          7           0        2.887370    0.931274    0.307096
      8          1           0        2.215307    1.225512    0.980292
      9          6           0        2.858010   -0.458777   -0.076996
     10          1           0        3.077449   -0.514340   -1.134773
     11          6           0        3.884132   -1.300537    0.692318
     12          1           0        3.684007   -1.255963    1.756830
     13          1           0        3.856538   -2.339351    0.378078
     14          1           0        4.875524   -0.910261    0.502554
     15          6           0        1.448329   -0.973492    0.203888
     16          8           0        0.823212   -0.539429    1.140908
     17          7           0        1.029543   -1.963158   -0.603720
     18          1           0        1.641302   -2.159619   -1.363689
     19          6           0       -0.271249   -2.634451   -0.749123
     20          1           0       -0.349920   -2.863143   -1.803645
     21          6           0       -0.247610   -3.953644    0.035476
     22          1           0       -0.161156   -3.752949    1.098046
     23          1           0       -1.149594   -4.519358   -0.145055
     24          1           0        0.609964   -4.544905   -0.266533
     25          6           0       -1.607961   -1.920046   -0.465303
     26          8           0       -2.595147   -2.570223   -0.711386
     27          7           0       -1.661379   -0.644957   -0.069377
     28          1           0       -0.861799   -0.209183    0.337745
     29          6           0       -2.933793    0.006926    0.143613
     30          1           0       -3.615551   -0.344821   -0.617988
     31          6           0       -3.524132   -0.300683    1.526284
     32          1           0       -2.846786    0.030356    2.305466
     33          1           0       -4.478320    0.198193    1.663335
     34          1           0       -3.677092   -1.367862    1.621896
     35          6           0       -2.713226    1.509219   -0.002277
     36          8           0       -1.673164    2.028363    0.306018
     37          7           0       -3.776423    2.210408   -0.441655
     38          1           0       -4.568777    1.719786   -0.785113
     39          6           0       -3.723123    3.647618   -0.607199
     40          1           0       -3.324933    4.107387    0.285877
     41          1           0       -3.097993    3.930988   -1.446458
     42          1           0       -4.726619    4.014907   -0.775412
 ---------------------------------------------------------------------

 The electronic state is 1-A.
 Alpha  occ. eigenvalues --  -20.54628 -20.52862 -20.52040 -20.51656 -15.61077
 Alpha  occ. eigenvalues --  -15.59270 -15.57965 -15.57485 -11.36980 -11.35199
 Alpha  occ. eigenvalues --  -11.34866 -11.34385 -11.29750 -11.28558 -11.27722
 Alpha  occ. eigenvalues --  -11.26305 -11.22615 -11.22607 -11.22284 -11.22050
 Alpha  occ. eigenvalues --   -1.41743  -1.39947  -1.39074  -1.38503  -1.26076
 Alpha  occ. eigenvalues --   -1.24000  -1.23715  -1.23319  -1.07391  -1.04670
 Alpha  occ. eigenvalues --   -1.03155  -0.98694  -0.96230  -0.91464  -0.89682
 Alpha  occ. eigenvalues --   -0.87071  -0.82383  -0.79528  -0.79131  -0.78482
 Alpha  occ. eigenvalues --   -0.74281  -0.72715  -0.69335  -0.67185  -0.66501
 Alpha  occ. eigenvalues --   -0.65933  -0.64469  -0.63964  -0.63221  -0.62914
 Alpha  occ. eigenvalues --   -0.61654  -0.60829  -0.59696  -0.59444  -0.59055
 Alpha  occ. eigenvalues --   -0.58718  -0.57118  -0.56541  -0.55959  -0.55489
 Alpha  occ. eigenvalues --   -0.55088  -0.54651  -0.53530  -0.53060  -0.52845
 Alpha  occ. eigenvalues --   -0.51843  -0.51826  -0.49848  -0.49517  -0.43895
 Alpha  occ. eigenvalues --   -0.43096  -0.42466  -0.41368  -0.40328  -0.39798
 Alpha  occ. eigenvalues --   -0.38448  -0.37981
 Alpha virt. eigenvalues --    0.17673   0.17927   0.19621   0.21127   0.21433
 Alpha virt. eigenvalues --    0.21661   0.24193   0.26286   0.26956   0.27144
 Alpha virt. eigenvalues --    0.28365   0.29124   0.30016   0.30416   0.30542

 Mulliken atomic charges:
              1
     1  H    0.209625
     2  C   -0.582246
     3  H    0.186841
     4  H    0.198641
     5  C    0.752915
     6  O   -0.621654
     7  N   -0.819790
     8  H    0.422332
     9  C   -0.028633
    10  H    0.215017
    11  C   -0.486478
    12  H    0.183823
    13  H    0.160460
    14  H    0.209375
    15  C    0.799714
    16  O   -0.656457
    17  N   -0.839518
    18  H    0.394916
    19  C   -0.011793
    20  H    0.216952
    21  C   -0.478183
    22  H    0.182434
    23  H    0.211578
    24  H    0.161904
    25  C    0.780364
    26  O   -0.641782
    27  N   -0.860197
    28  H    0.486619
    29  C   -0.049115
    30  H    0.212460
    31  C   -0.489331
    32  H    0.187977
    33  H    0.161006
    34  H    0.203556
    35  C    0.782304
    36  O   -0.625535
    37  N   -0.800129
    38  H    0.388392
    39  C   -0.271824
    40  H    0.201528
    41  H    0.181838
    42  H    0.170094
 Sum of Mulliken atomic charges =   0.00000

 Dipole moment (field-independent basis, Debye):
    X=             -2.4405    Y=              0.3723    Z=             -0.3915  Tot=              2.4996
 Quadrupole moment (field-independent basis, Debye-Ang):
   XX=           -121.1957   YY=           -113.5057   ZZ=           -120.8300
   XY=            -21.2836   XZ=              9.0070   YZ=              2.8123

 Normal termination of Gaussian 09 at Tue Dec 27 11:52:15 2016.
