 Gaussian 09, Revision A.02,
 Gaussian 09:  EM64L-G09RevA.02 11-Jun-2009

 -------------------------------------------------------------------
 # HF/6-31G* Opt=(ModRedundant, maxcycles=1000, calcfc) geom=nocrowd
 -------------------------------------------------------------------

 ------------------
 Phi Psi fixed scan
 ------------------
 Symbolic Z-matrix:
 Charge =  0 Multiplicity = 1

 SCF Done:  E(RHF) =  -984.531633735     A.U. after   15 cycles

  Exact polarizability:   0.000   0.000   0.000   0.000   0.000   0.000
 Approx polarizability: 125.009  -0.347 123.924  14.144  -1.228 140.368

 SCF Done:  E(RHF) =  -984.541291945     A.U. after   13 cycles
 SCF Done:  E(RHF) =  -984.551684710     A.U. after   13 cycles
 SCF Done:  E(RHF) =  -984.554044997     A.U. after   13 cycles
 SCF Done:  E(RHF) =  -984.556114509     A.U. after   13 cycles
 SCF Done:  E(RHF) =  -984.556797490     A.U. after   15 cycles
 SCF Done:  E(RHF) =  -984.556708546     A.U. after   14 cycles
 SCF Done:  E(RHF) =  -984.557345718     A.U. after   13 cycles
 SCF Done:  E(RHF) =  -984.557507247     A.U. after   12 cycles
 SCF Done:  E(RHF) =  -984.557509811     A.U. after   13 cycles
 SCF Done:  E(RHF) =  -984.557582049     A.U. after   10 cycles
 SCF Done:  E(RHF) =  -984.557582298     A.U. after    9 cycles
 SCF Done:  E(RHF) =  -984.557582445     A.U. after    8 cycles
 SCF Done:  E(RHF) =  -984.557582721     A.U. after    8 cycles
 SCF Done:  E(RHF) =  -984.557583332     A.U. after    8 cycles
 SCF Done:  E(RHF) =  -984.557585268     A.U. after   10 cycles
 SCF Done:  E(RHF) =  -984.557586807     A.U. after   10 cycles
 SCF Done:  E(RHF) =  -984.557587016     A.U. after    8 cycles
 SCF Done:  E(RHF) =  -984.557587048     A.U. after    7 cycles
 SCF Done:  E(RHF) =  -984.557587056     A.U. after    7 cycles
 Optimization completed.
    -- Stationary point found.

                         Standard orientation:
 ---------------------------------------------------------------------
 Center     Atomic      Atomic             Coordinates (Angstroms)
 Number     Number       Type             X           Y           Z
 ---------------------------------------------------------------------
      1          1           0       -4.615759   -3.756128    0.935141
      2          6           0       -3.627087   -3.318963    0.901247
      3          1           0       -2.949570   -4.056723    0.484632
      4          1           0       -3.301521   -3.076700    1.905668
      5          6           0       -3.657271   -2.118895   -0.019676
      6          8           0       -4.267055   -2.131155   -1.057018
      7          7           0       -2.937574   -1.051424    0.384260
      8          1           0       -2.426501   -1.064602    1.238050
      9          6           0       -2.816017    0.138381   -0.420531
     10          1           0       -2.733585   -0.161532   -1.457634
     11          6           0       -4.027275    1.068620   -0.264362
     12          1           0       -4.122183    1.393099    0.766028
     13          1           0       -3.937879    1.947246   -0.895303
     14          1           0       -4.922745    0.532583   -0.548896
     15          6           0       -1.540889    0.857004    0.013769
     16          8           0       -1.066802    0.687168    1.105774
     17          7           0       -1.032326    1.715403   -0.894357
     18          1           0       -1.486050    1.769151   -1.777986
     19          6           0        0.155045    2.551780   -0.731865
     20          1           0        0.615369    2.608310   -1.712790
     21          6           0       -0.220082    3.955886   -0.268604
     22          1           0       -0.656873    3.920489    0.720693
     23          1           0        0.653326    4.593400   -0.229626
     24          1           0       -0.939208    4.389181   -0.956564
     25          6           0        1.217105    1.937308    0.196287
     26          8           0        1.665293    2.548368    1.125204
     27          7           0        1.699149    0.745709   -0.208066
     28          1           0        1.237190    0.229803   -0.923695
     29          6           0        2.670612    0.011653    0.566835
     30          1           0        3.440724    0.705808    0.878049
     31          6           0        2.062326   -0.654504    1.808739
     32          1           0        1.303321   -1.370706    1.516389
     33          1           0        2.825229   -1.170589    2.383432
     34          1           0        1.602559    0.098520    2.433123
     35          6           0        3.264438   -1.049842   -0.353050
     36          8           0        2.629257   -1.515821   -1.264048
     37          7           0        4.507963   -1.460423   -0.047228
     38          1           0        5.015640   -0.977749    0.656949
     39          6           0        5.182268   -2.486243   -0.815427
     40          1           0        4.540198   -3.348201   -0.927568
     41          1           0        5.454127   -2.130486   -1.802485
     42          1           0        6.079132   -2.780604   -0.287338
 ---------------------------------------------------------------------

 The electronic state is 1-A.
 Alpha  occ. eigenvalues --  -20.54399 -20.53251 -20.52327 -20.51670 -15.60747
 Alpha  occ. eigenvalues --  -15.59545 -15.58128 -15.57644 -11.36490 -11.35206
 Alpha  occ. eigenvalues --  -11.34842 -11.34519 -11.29182 -11.28537 -11.27845
 Alpha  occ. eigenvalues --  -11.26492 -11.22901 -11.22686 -11.21788 -11.21612
 Alpha  occ. eigenvalues --   -1.41534  -1.40254  -1.39104  -1.38573  -1.25981
 Alpha  occ. eigenvalues --   -1.24276  -1.23801  -1.23323  -1.07377  -1.04721
 Alpha  occ. eigenvalues --   -1.02803  -0.98849  -0.96321  -0.91629  -0.89790
 Alpha  occ. eigenvalues --   -0.86452  -0.82451  -0.79796  -0.78977  -0.78321
 Alpha  occ. eigenvalues --   -0.74312  -0.72405  -0.68650  -0.67563  -0.66708
 Alpha  occ. eigenvalues --   -0.66163  -0.64757  -0.64224  -0.63634  -0.62923
 Alpha  occ. eigenvalues --   -0.61741  -0.61101  -0.60117  -0.59296  -0.58896
 Alpha  occ. eigenvalues --   -0.58365  -0.57052  -0.56326  -0.56176  -0.55209
 Alpha  occ. eigenvalues --   -0.54951  -0.53904  -0.53492  -0.52966  -0.52762
 Alpha  occ. eigenvalues --   -0.52201  -0.51939  -0.50265  -0.49678  -0.43468
 Alpha  occ. eigenvalues --   -0.42822  -0.42351  -0.41455  -0.40440  -0.40120
 Alpha  occ. eigenvalues --   -0.38527  -0.38109
 Alpha virt. eigenvalues --    0.17619   0.18728   0.19379   0.21020   0.21246
 Alpha virt. eigenvalues --    0.22489   0.23629   0.25837   0.26090   0.27422
 Alpha virt. eigenvalues --    0.27699   0.28881   0.29089   0.29904   0.30200

 Mulliken atomic charges:
              1
     1  H    0.208306
     2  C   -0.576146
     3  H    0.204963
     4  H    0.173093
     5  C    0.756549
     6  O   -0.621413
     7  N   -0.823511
     8  H    0.418706
     9  C   -0.032863
    10  H    0.217000
    11  C   -0.485900
    12  H    0.180920
    13  H    0.156810
    14  H    0.214143
    15  C    0.792275
    16  O   -0.627261
    17  N   -0.839751
    18  H    0.394374
    19  C   -0.041696
    20  H    0.204355
    21  C   -0.455688
    22  H    0.198334
    23  H    0.186593
    24  H    0.150735
    25  C    0.814933
    26  O   -0.623003
    27  N   -0.821346
    28  H    0.413247
    29  C   -0.037262
    30  H    0.207916
    31  C   -0.481764
    32  H    0.177690
    33  H    0.151949
    34  H    0.223930
    35  C    0.780717
    36  O   -0.634410
    37  N   -0.800224
    38  H    0.390024
    39  C   -0.271694
    40  H    0.201529
    41  H    0.183889
    42  H    0.170952
 Sum of Mulliken atomic charges =   0.00000

 Dipole moment (field-independent basis, Debye):
    X=              3.0203    Y=              0.0830    Z=             -0.0943  Tot=              3.0229
 Quadrupole moment (field-independent basis, Debye-Ang):
   XX=           -108.0630   YY=           -120.8922   ZZ=           -123.7334
   XY=            -16.1396   XZ=             -4.7923   YZ=            -20.7397

 Normal termination of Gaussian 09 at Tue Dec 27 07:21:12 2016.
