 Gaussian 09, Revision A.02,
 Gaussian 09:  EM64L-G09RevA.02 11-Jun-2009

 -------------------------------------------------------------------
 # HF/6-31G* Opt=(ModRedundant, maxcycles=1000, calcfc) geom=nocrowd
 -------------------------------------------------------------------

 ------------------
 Phi Psi fixed scan
 ------------------
 Symbolic Z-matrix:
 Charge =  0 Multiplicity = 1

 SCF Done:  E(RHF) =  -983.674587282     A.U. after   17 cycles

  Exact polarizability:   0.000   0.000   0.000   0.000   0.000   0.000
 Approx polarizability: 145.708  -5.005 140.820   3.832   4.820 111.409

 SCF Done:  E(RHF) =  -983.863940819     A.U. after   14 cycles
 SCF Done:  E(RHF) =  -984.124594154     A.U. after   16 cycles
 SCF Done:  E(RHF) =  -984.346778489     A.U. after   14 cycles
 SCF Done:  E(RHF) =  -984.436763274     A.U. after   15 cycles
 SCF Done:  E(RHF) =  -984.435486503     A.U. after   14 cycles
 SCF Done:  E(RHF) =  -984.474119197     A.U. after   13 cycles
 SCF Done:  E(RHF) =  -984.507871465     A.U. after   15 cycles
 SCF Done:  E(RHF) =  -984.535215217     A.U. after   15 cycles
 SCF Done:  E(RHF) =  -984.538602206     A.U. after   15 cycles
 SCF Done:  E(RHF) =  -984.550158925     A.U. after    8 cycles
 SCF Done:  E(RHF) =  -984.550159521     A.U. after    8 cycles
 SCF Done:  E(RHF) =  -984.550159938     A.U. after    8 cycles
 SCF Done:  E(RHF) =  -984.550160233     A.U. after    9 cycles
 SCF Done:  E(RHF) =  -984.550160474     A.U. after    9 cycles
 SCF Done:  E(RHF) =  -984.550160602     A.U. after    8 cycles
 SCF Done:  E(RHF) =  -984.550160669     A.U. after    8 cycles
 SCF Done:  E(RHF) =  -984.550160703     A.U. after    8 cycles
 SCF Done:  E(RHF) =  -984.550160758     A.U. after    8 cycles
 SCF Done:  E(RHF) =  -984.550160808     A.U. after    7 cycles
 Optimization completed.
    -- Stationary point found.

                         Standard orientation:
 ---------------------------------------------------------------------
 Center     Atomic      Atomic             Coordinates (Angstroms)
 Number     Number       Type             X           Y           Z
 ---------------------------------------------------------------------
      1          1           0        4.701140    3.257616    0.870060
      2          6           0        3.979697    3.108874    0.073178
      3          1           0        4.294977    3.696983   -0.777636
      4          1           0        3.010815    3.451091    0.416020
      5          6           0        3.985116    1.647426   -0.317714
      6          8           0        4.819904    1.188080   -1.053217
      7          7           0        3.011872    0.892227    0.233192
      8          1           0        2.318751    1.292733    0.825397
      9          6           0        2.896389   -0.519709   -0.035181
     10          1           0        3.151729   -0.684272   -1.073886
     11          6           0        3.829930   -1.358408    0.848468
     12          1           0        3.587290   -1.212734    1.895167
     13          1           0        3.748693   -2.416159    0.619033
     14          1           0        4.851909   -1.047457    0.676684
     15          6           0        1.441453   -0.911825    0.218001
     16          8           0        0.780354   -0.290572    1.012338
     17          7           0        1.032832   -2.019031   -0.428486
     18          1           0        1.692039   -2.367590   -1.087850
     19          6           0       -0.293310   -2.632123   -0.613106
     20          1           0       -0.260737   -3.075456   -1.595973
     21          6           0       -0.490261   -3.748828    0.424424
     22          1           0       -0.520947   -3.330523    1.424597
     23          1           0       -1.412906   -4.281570    0.234925
     24          1           0        0.336050   -4.449132    0.375256
     25          6           0       -1.600022   -1.816661   -0.656765
     26          8           0       -2.491924   -2.335105   -1.287628
     27          7           0       -1.756198   -0.670124    0.006465
     28          1           0       -1.010281   -0.278786    0.546347
     29          6           0       -3.029955    0.014406   -0.006956
     30          1           0       -3.506611   -0.197605   -0.953405
     31          6           0       -3.946187   -0.459393    1.128740
     32          1           0       -3.481612   -0.270420    2.089987
     33          1           0       -4.902150    0.053742    1.100657
     34          1           0       -4.123995   -1.522547    1.026144
     35          6           0       -2.774388    1.511836    0.124436
     36          8           0       -1.841773    1.944195    0.746586
     37          7           0       -3.698160    2.305896   -0.454049
     38          1           0       -4.374878    1.897781   -1.055763
     39          6           0       -3.600723    3.748972   -0.397643
     40          1           0       -3.411026    4.064837    0.617944
     41          1           0       -2.801062    4.122601   -1.027641
     42          1           0       -4.538532    4.173914   -0.729824
 ---------------------------------------------------------------------

 The electronic state is 1-A.
 Alpha  occ. eigenvalues --  -20.54899 -20.52662 -20.51794 -20.51672 -15.61050
 Alpha  occ. eigenvalues --  -15.59079 -15.58057 -15.57390 -11.37094 -11.35008
 Alpha  occ. eigenvalues --  -11.34675 -11.34474 -11.29679 -11.28673 -11.27580
 Alpha  occ. eigenvalues --  -11.26166 -11.22779 -11.22753 -11.22753 -11.22124
 Alpha  occ. eigenvalues --   -1.41917  -1.39772  -1.38842  -1.38556  -1.26074
 Alpha  occ. eigenvalues --   -1.23841  -1.23746  -1.23188  -1.07565  -1.04734
 Alpha  occ. eigenvalues --   -1.03188  -0.98810  -0.96110  -0.91536  -0.89640
 Alpha  occ. eigenvalues --   -0.87260  -0.82360  -0.79482  -0.79147  -0.78303
 Alpha  occ. eigenvalues --   -0.74394  -0.72846  -0.69373  -0.67411  -0.66125
 Alpha  occ. eigenvalues --   -0.65935  -0.64427  -0.63861  -0.62946  -0.62820
 Alpha  occ. eigenvalues --   -0.61724  -0.61384  -0.59796  -0.59392  -0.58907
 Alpha  occ. eigenvalues --   -0.58270  -0.57327  -0.56772  -0.55866  -0.55796
 Alpha  occ. eigenvalues --   -0.54984  -0.54770  -0.53735  -0.53010  -0.52864
 Alpha  occ. eigenvalues --   -0.52329  -0.51751  -0.49863  -0.49456  -0.44157
 Alpha  occ. eigenvalues --   -0.43372  -0.42258  -0.41430  -0.39929  -0.39593
 Alpha  occ. eigenvalues --   -0.38416  -0.37889
 Alpha virt. eigenvalues --    0.17644   0.18651   0.19583   0.20791   0.21189
 Alpha virt. eigenvalues --    0.21629   0.24161   0.26274   0.26472   0.27171
 Alpha virt. eigenvalues --    0.28212   0.29025   0.29799   0.30414   0.30680

 Mulliken atomic charges:
              1
     1  H    0.201375
     2  C   -0.578906
     3  H    0.208406
     4  H    0.181457
     5  C    0.753967
     6  O   -0.622668
     7  N   -0.823112
     8  H    0.425574
     9  C   -0.032035
    10  H    0.215254
    11  C   -0.485770
    12  H    0.182245
    13  H    0.159309
    14  H    0.212006
    15  C    0.807240
    16  O   -0.653787
    17  N   -0.842869
    18  H    0.394267
    19  C   -0.008174
    20  H    0.220958
    21  C   -0.483871
    22  H    0.185477
    23  H    0.201844
    24  H    0.169329
    25  C    0.758186
    26  O   -0.644945
    27  N   -0.865502
    28  H    0.508116
    29  C   -0.041992
    30  H    0.216088
    31  C   -0.484377
    32  H    0.184688
    33  H    0.162032
    34  H    0.197493
    35  C    0.772897
    36  O   -0.618593
    37  N   -0.799656
    38  H    0.387694
    39  C   -0.271894
    40  H    0.202758
    41  H    0.179871
    42  H    0.169620
 Sum of Mulliken atomic charges =   0.00000

 Dipole moment (field-independent basis, Debye):
    X=             -2.1791    Y=              0.2372    Z=             -0.0447  Tot=              2.1924
 Quadrupole moment (field-independent basis, Debye-Ang):
   XX=           -124.2054   YY=           -108.2547   ZZ=           -124.2330
   XY=            -17.8754   XZ=              8.4603   YZ=             -3.7549

 Normal termination of Gaussian 09 at Tue Dec 27 08:57:32 2016.
