 Gaussian 09, Revision A.02,
 Gaussian 09:  EM64L-G09RevA.02 11-Jun-2009

 -------------------------------------------------------------------
 # HF/6-31G* Opt=(ModRedundant, maxcycles=1000, calcfc) geom=nocrowd
 -------------------------------------------------------------------

 ------------------
 Phi Psi fixed scan
 ------------------
 Symbolic Z-matrix:
 Charge =  0 Multiplicity = 1

 SCF Done:  E(RHF) =  -984.370395080     A.U. after   17 cycles

  Exact polarizability:   0.000   0.000   0.000   0.000   0.000   0.000
 Approx polarizability: 137.717   0.405 136.681   3.802 -17.074 119.828

 SCF Done:  E(RHF) =  -984.409044491     A.U. after   15 cycles
 SCF Done:  E(RHF) =  -984.463458317     A.U. after   15 cycles
 SCF Done:  E(RHF) =  -984.496548268     A.U. after   14 cycles
 SCF Done:  E(RHF) =  -984.512193441     A.U. after   13 cycles
 SCF Done:  E(RHF) =  -984.472296628     A.U. after   16 cycles
 SCF Done:  E(RHF) =  -984.524032958     A.U. after   13 cycles
 SCF Done:  E(RHF) =  -984.529121018     A.U. after   13 cycles
 SCF Done:  E(RHF) =  -984.533203570     A.U. after   16 cycles
 SCF Done:  E(RHF) =  -984.535583079     A.U. after   14 cycles
 SCF Done:  E(RHF) =  -984.540671341     A.U. after   11 cycles
 SCF Done:  E(RHF) =  -984.540671581     A.U. after   11 cycles
 SCF Done:  E(RHF) =  -984.540673920     A.U. after   10 cycles
 SCF Done:  E(RHF) =  -984.540677163     A.U. after   10 cycles
 SCF Done:  E(RHF) =  -984.540677628     A.U. after   10 cycles
 SCF Done:  E(RHF) =  -984.540679292     A.U. after   10 cycles
 SCF Done:  E(RHF) =  -984.540679653     A.U. after    8 cycles
 SCF Done:  E(RHF) =  -984.540679803     A.U. after    8 cycles
 SCF Done:  E(RHF) =  -984.540679814     A.U. after    7 cycles
 SCF Done:  E(RHF) =  -984.540679868     A.U. after    7 cycles
 Optimization completed.
    -- Stationary point found.

                         Standard orientation:
 ---------------------------------------------------------------------
 Center     Atomic      Atomic             Coordinates (Angstroms)
 Number     Number       Type             X           Y           Z
 ---------------------------------------------------------------------
      1          1           0       -6.314731   -2.753345    0.563435
      2          6           0       -5.318997   -2.459067    0.865039
      3          1           0       -4.682675   -3.337551    0.830782
      4          1           0       -5.339427   -2.088307    1.882768
      5          6           0       -4.790869   -1.439813   -0.121097
      6          8           0       -5.050193   -1.499036   -1.295344
      7          7           0       -3.998453   -0.481466    0.400677
      8          1           0       -3.717946   -0.512112    1.355707
      9          6           0       -3.307975    0.473709   -0.429769
     10          1           0       -2.959980   -0.033344   -1.322391
     11          6           0       -4.226065    1.634556   -0.840566
     12          1           0       -4.565650    2.171867    0.037899
     13          1           0       -3.725036    2.336813   -1.499075
     14          1           0       -5.084590    1.234129   -1.362251
     15          6           0       -2.099238    0.978284    0.361125
     16          8           0       -2.013424    0.803947    1.538084
     17          7           0       -1.221120    1.751605   -0.370387
     18          1           0       -1.491989    1.781922   -1.329495
     19          6           0        0.241268    1.753244   -0.273716
     20          1           0        0.593204    2.006213   -1.265065
     21          6           0        0.696508    2.844140    0.709104
     22          1           0        0.320426    2.618388    1.699124
     23          1           0        1.778223    2.916177    0.751481
     24          1           0        0.296212    3.801636    0.399025
     25          6           0        0.904518    0.431754    0.139348
     26          8           0        0.399500   -0.405165    0.830806
     27          7           0        2.142257    0.283032   -0.386274
     28          1           0        2.578223    1.011873   -0.907216
     29          6           0        3.004045   -0.812586   -0.009838
     30          1           0        2.829000   -1.044258    1.033813
     31          6           0        2.731234   -2.066990   -0.850018
     32          1           0        2.916438   -1.865293   -1.899402
     33          1           0        3.361066   -2.895114   -0.542210
     34          1           0        1.696856   -2.358920   -0.726097
     35          6           0        4.445648   -0.343076   -0.192699
     36          8           0        4.715641    0.605307   -0.884428
     37          7           0        5.380968   -1.076600    0.434372
     38          1           0        5.093549   -1.786928    1.066691
     39          6           0        6.790247   -0.752251    0.344674
     40          1           0        7.023828    0.159525    0.881919
     41          1           0        7.359832   -1.567819    0.768875
     42          1           0        7.075459   -0.623385   -0.689503
 ---------------------------------------------------------------------

 The electronic state is 1-A.
 Alpha  occ. eigenvalues --  -20.54180 -20.53461 -20.53000 -20.51040 -15.60205
 Alpha  occ. eigenvalues --  -15.58985 -15.58678 -15.57151 -11.36090 -11.35370
 Alpha  occ. eigenvalues --  -11.35256 -11.33788 -11.29548 -11.28796 -11.27618
 Alpha  occ. eigenvalues --  -11.27007 -11.22970 -11.22538 -11.22276 -11.22046
 Alpha  occ. eigenvalues --   -1.41233  -1.40647  -1.39615  -1.37849  -1.24999
 Alpha  occ. eigenvalues --   -1.24744  -1.24063  -1.22866  -1.07603  -1.04998
 Alpha  occ. eigenvalues --   -1.02421  -0.98148  -0.96968  -0.91428  -0.89809
 Alpha  occ. eigenvalues --   -0.86818  -0.81886  -0.79679  -0.79035  -0.77729
 Alpha  occ. eigenvalues --   -0.73722  -0.72187  -0.68396  -0.68120  -0.66463
 Alpha  occ. eigenvalues --   -0.65569  -0.65130  -0.64431  -0.63083  -0.62921
 Alpha  occ. eigenvalues --   -0.61225  -0.61107  -0.60408  -0.59979  -0.58796
 Alpha  occ. eigenvalues --   -0.58095  -0.56767  -0.56552  -0.56156  -0.55441
 Alpha  occ. eigenvalues --   -0.54901  -0.54390  -0.53878  -0.53581  -0.53002
 Alpha  occ. eigenvalues --   -0.52167  -0.51657  -0.50174  -0.48749  -0.44462
 Alpha  occ. eigenvalues --   -0.43508  -0.42358  -0.40942  -0.40749  -0.39231
 Alpha  occ. eigenvalues --   -0.38942  -0.37334
 Alpha virt. eigenvalues --    0.17550   0.18553   0.19502   0.20511   0.20953
 Alpha virt. eigenvalues --    0.21727   0.24449   0.24891   0.25810   0.27664
 Alpha virt. eigenvalues --    0.28131   0.28622   0.28746   0.30027   0.30801

 Mulliken atomic charges:
              1
     1  H    0.206325
     2  C   -0.577483
     3  H    0.201226
     4  H    0.176093
     5  C    0.752562
     6  O   -0.624423
     7  N   -0.817555
     8  H    0.423472
     9  C   -0.045034
    10  H    0.210979
    11  C   -0.485380
    12  H    0.178693
    13  H    0.152707
    14  H    0.214793
    15  C    0.796826
    16  O   -0.581797
    17  N   -0.815659
    18  H    0.377107
    19  C   -0.043580
    20  H    0.191494
    21  C   -0.480987
    22  H    0.214181
    23  H    0.167318
    24  H    0.181888
    25  C    0.768219
    26  O   -0.599060
    27  N   -0.835334
    28  H    0.421645
    29  C   -0.037704
    30  H    0.216589
    31  C   -0.480520
    32  H    0.178153
    33  H    0.158661
    34  H    0.210416
    35  C    0.775804
    36  O   -0.632668
    37  N   -0.798404
    38  H    0.391382
    39  C   -0.272620
    40  H    0.185429
    41  H    0.173317
    42  H    0.202926
 Sum of Mulliken atomic charges =   0.00000

 Dipole moment (field-independent basis, Debye):
    X=              4.9062    Y=             -0.3301    Z=              0.6236  Tot=              4.9567
 Quadrupole moment (field-independent basis, Debye-Ang):
   XX=           -113.8160   YY=           -113.3646   ZZ=           -125.1775
   XY=            -16.5961   XZ=              0.3636   YZ=            -10.0264

 Normal termination of Gaussian 09 at Tue Dec 27 07:14:57 2016.
