 Gaussian 09, Revision A.02,
 Gaussian 09:  EM64L-G09RevA.02 11-Jun-2009

 -------------------
 #SP MP2/aug-cc-pVDZ
 -------------------

 -------------------------------
 Single Point calculation at MP2
 -------------------------------
 Symbolic Z-matrix:
 Charge =  0 Multiplicity = 1

                         Standard orientation:
 ---------------------------------------------------------------------
 Center     Atomic      Atomic             Coordinates (Angstroms)
 Number     Number       Type             X           Y           Z
 ---------------------------------------------------------------------
      1          1           0       -3.610701   -1.295099    0.792988
      2          6           0       -3.044101   -1.029000   -0.100912
      3          1           0       -3.695600   -0.502999   -0.807312
      4          1           0       -2.691202   -1.951800   -0.576912
      5          6           0       -1.835900   -0.203601    0.303188
      6          8           0       -1.343700   -0.249201    1.420188
      7          7           0       -1.348299    0.645999   -0.680012
      8          1           0       -1.671000    0.408699   -1.610612
      9          6           0        0.062201    1.037397   -0.638112
     10          1           0        0.317801    1.361297   -1.654712
     11          6           0        0.274302    2.224997    0.315388
     12          1           0        0.111202    1.915597    1.350188
     13          1           0        1.276902    2.658296    0.213188
     14          1           0       -0.444397    3.013598    0.074288
     15          6           0        0.958600   -0.202303   -0.356212
     16          8           0        0.576599   -1.333103   -0.627112
     17          7           0        2.242900    0.069195    0.020488
     18          1           0        2.443701    0.976995    0.412788
     19          6           0        3.180999   -1.006405    0.305588
     20          1           0        2.981198   -1.826905   -0.384812
     21          1           0        4.203099   -0.645706    0.159088
     22          1           0        3.076999   -1.386405    1.330288
 ---------------------------------------------------------------------

 SCF Done:  E(RHF) =  -492.918698364     A.U. after   15 cycles
 E2 =    -0.1603078346D+01 EUMP2 =    -0.49452177670977D+03

 The electronic state is 1-A.
 Alpha  occ. eigenvalues --  -20.52851 -20.52796 -15.59407 -15.58904 -11.35847
 Alpha  occ. eigenvalues --  -11.35645 -11.29747 -11.26582 -11.23866 -11.23723
 Alpha  occ. eigenvalues --   -1.39037  -1.37491  -1.23295  -1.22958  -1.05132
 Alpha  occ. eigenvalues --   -0.98728  -0.95048  -0.88162  -0.79732  -0.76943
 Alpha  occ. eigenvalues --   -0.70925  -0.69739  -0.64920  -0.63565  -0.61496
 Alpha  occ. eigenvalues --   -0.61310  -0.59689  -0.58110  -0.56201  -0.55913
 Alpha  occ. eigenvalues --   -0.54819  -0.53955  -0.52938  -0.51095  -0.49065
 Alpha  occ. eigenvalues --   -0.43002  -0.41938  -0.39806  -0.39225
 Alpha virt. eigenvalues --    0.02845   0.03706   0.04466   0.04648   0.05888
 Alpha virt. eigenvalues --    0.06115   0.06210   0.06788   0.07652   0.07957
 Alpha virt. eigenvalues --    0.09065   0.09331   0.11108   0.11811   0.12825

 Mulliken atomic charges:
              1
     1  H   -0.023893
     2  C    0.322663
     3  H   -0.025935
     4  H    0.085782
     5  C    0.750416
     6  O   -0.867821
     7  N   -0.472043
     8  H   -0.034733
     9  C    0.074388
    10  H   -0.114751
    11  C    0.677528
    12  H   -0.034793
    13  H   -0.035435
    14  H   -0.097567
    15  C    0.873722
    16  O   -0.848301
    17  N   -0.484620
    18  H   -0.107123
    19  C    0.731688
    20  H   -0.120072
    21  H   -0.187763
    22  H   -0.061338
 Sum of Mulliken atomic charges =   0.00000

 Dipole moment (field-independent basis, Debye):
    X=              1.1245    Y=              2.7594    Z=             -2.3190  Tot=              3.7758
 Quadrupole moment (field-independent basis, Debye-Ang):
   XX=            -48.5886   YY=            -62.1626   ZZ=            -63.7035
   XY=              3.6215   XZ=              7.2569   YZ=             -1.1647

 Normal termination of Gaussian 09 at Tue Feb 14 00:11:29 2017.
