 Gaussian 09, Revision A.02,
 Gaussian 09:  EM64L-G09RevA.02 11-Jun-2009

 -------------------
 #SP MP2/aug-cc-pVDZ
 -------------------

 -------------------------------
 Single Point calculation at MP2
 -------------------------------
 Symbolic Z-matrix:
 Charge =  0 Multiplicity = 1

                         Standard orientation:
 ---------------------------------------------------------------------
 Center     Atomic      Atomic             Coordinates (Angstroms)
 Number     Number       Type             X           Y           Z
 ---------------------------------------------------------------------
      1          1           0       -2.568718   -2.327082   -0.557506
      2          6           0       -2.994514   -1.327780   -0.404406
      3          1           0       -3.792315   -1.409977    0.335694
      4          1           0       -3.416513   -0.986179   -1.356206
      5          6           0       -1.920311   -0.390285    0.144694
      6          8           0       -1.750610   -0.226185    1.338794
      7          7           0       -1.199208    0.263012   -0.838406
      8          1           0       -1.382409   -0.063387   -1.777806
      9          6           0        0.101795    0.941007   -0.678906
     10          1           0        0.477495    1.079106   -1.699006
     11          6           0       -0.079400    2.313308   -0.016706
     12          1           0       -0.438300    2.170909    1.004394
     13          1           0        0.873202    2.853504    0.020594
     14          1           0       -0.804497    2.909311   -0.579506
     15          6           0        1.149692    0.138503    0.137994
     16          8           0        1.162891    0.095703    1.356094
     17          7           0        2.134389   -0.427201   -0.635506
     18          1           0        2.025689   -0.425800   -1.639406
     19          6           0        3.202186   -1.228805   -0.063106
     20          1           0        3.233087   -1.013705    1.005894
     21          1           0        3.028582   -2.304304   -0.199506
     22          1           0        4.163487   -0.964909   -0.516706
 ---------------------------------------------------------------------

 SCF Done:  E(RHF) =  -492.905530382     A.U. after   14 cycles
 E2 =    -0.1603960209D+01 EUMP2 =    -0.49450949059156D+03

 The electronic state is 1-A.
 Alpha  occ. eigenvalues --  -20.52633 -20.52546 -15.59938 -15.59676 -11.35919
 Alpha  occ. eigenvalues --  -11.35667 -11.30047 -11.26730 -11.24612 -11.22322
 Alpha  occ. eigenvalues --   -1.38557  -1.37621  -1.23948  -1.22693  -1.05247
 Alpha  occ. eigenvalues --   -0.98824  -0.95673  -0.87123  -0.80530  -0.77135
 Alpha  occ. eigenvalues --   -0.70901  -0.69401  -0.64890  -0.63854  -0.61776
 Alpha  occ. eigenvalues --   -0.61398  -0.59938  -0.58631  -0.56276  -0.56027
 Alpha  occ. eigenvalues --   -0.54527  -0.52970  -0.51417  -0.51106  -0.50226
 Alpha  occ. eigenvalues --   -0.43861  -0.41589  -0.39096  -0.38156
 Alpha virt. eigenvalues --    0.01896   0.03576   0.03853   0.04559   0.05470
 Alpha virt. eigenvalues --    0.05746   0.06300   0.06865   0.07352   0.07667
 Alpha virt. eigenvalues --    0.08780   0.09507   0.10441   0.12087   0.12387

 Mulliken atomic charges:
              1
     1  H    0.054989
     2  C    0.314257
     3  H   -0.019440
     4  H   -0.062022
     5  C    0.738460
     6  O   -0.769587
     7  N   -0.286624
     8  H   -0.108880
     9  C   -0.230526
    10  H   -0.325185
    11  C    0.768194
    12  H    0.000013
    13  H   -0.049363
    14  H   -0.043690
    15  C    1.007706
    16  O   -0.766869
    17  N   -0.465576
    18  H   -0.134263
    19  C    0.742824
    20  H   -0.139019
    21  H   -0.085083
    22  H   -0.140316
 Sum of Mulliken atomic charges =   0.00000

 Dipole moment (field-independent basis, Debye):
    X=              0.7599    Y=             -0.9892    Z=             -7.1596  Tot=              7.2675
 Quadrupole moment (field-independent basis, Debye-Ang):
   XX=            -54.2218   YY=            -58.0927   ZZ=            -64.6338
   XY=              0.2246   XZ=              1.4868   YZ=              1.1855

 Normal termination of Gaussian 09 at Tue Feb 14 05:40:25 2017.
