 Gaussian 09, Revision A.02,
 Gaussian 09:  EM64L-G09RevA.02 11-Jun-2009

 -------------------
 #SP MP2/aug-cc-pVDZ
 -------------------

 -------------------------------
 Single Point calculation at MP2
 -------------------------------
 Symbolic Z-matrix:
 Charge =  0 Multiplicity = 1

                         Standard orientation:
 ---------------------------------------------------------------------
 Center     Atomic      Atomic             Coordinates (Angstroms)
 Number     Number       Type             X           Y           Z
 ---------------------------------------------------------------------
      1          1           0       -3.351687   -1.737543   -0.605901
      2          6           0       -3.263398   -0.688743   -0.307101
      3          1           0       -3.898499   -0.547349    0.572999
      4          1           0       -3.634905   -0.054447   -1.117601
      5          6           0       -1.819601   -0.416527    0.091399
      6          8           0       -1.275694   -1.085521    0.972699
      7          7           0       -1.209711    0.593979   -0.583401
      8          1           0       -1.768916    1.047473   -1.292001
      9          6           0        0.128582    1.193694   -0.403101
     10          1           0        0.338877    1.699096   -1.351101
     11          6           0        0.088671    2.250993    0.716599
     12          1           0       -0.165424    1.777291    1.670599
     13          1           0        1.068166    2.725204    0.806099
     14          1           0       -0.664637    3.015385    0.498099
     15          6           0        1.380992    0.299407   -0.201801
     16          8           0        2.464186    0.877119   -0.167501
     17          7           0        1.250006   -1.050194   -0.190601
     18          1           0        0.363410   -1.403004    0.165799
     19          6           0        2.434615   -1.872582    0.013499
     20          1           0        3.223911   -1.544773   -0.666101
     21          1           0        2.820314   -1.800278    1.038999
     22          1           0        2.180226   -2.913784   -0.200401
 ---------------------------------------------------------------------

 SCF Done:  E(RHF) =  -492.918126420     A.U. after   14 cycles
 E2 =    -0.1603939110D+01 EUMP2 =    -0.49452206552971D+03

 The electronic state is 1-A.
 Alpha  occ. eigenvalues --  -20.54600 -20.52300 -15.61719 -15.57484 -11.38319
 Alpha  occ. eigenvalues --  -11.35436 -11.30320 -11.26106 -11.25481 -11.23203
 Alpha  occ. eigenvalues --   -1.40117  -1.37686  -1.25461  -1.21720  -1.06062
 Alpha  occ. eigenvalues --   -1.00110  -0.94685  -0.88231  -0.81647  -0.76551
 Alpha  occ. eigenvalues --   -0.72092  -0.70764  -0.64667  -0.64080  -0.62456
 Alpha  occ. eigenvalues --   -0.61137  -0.60433  -0.59165  -0.58094  -0.56139
 Alpha  occ. eigenvalues --   -0.54259  -0.53954  -0.52158  -0.51689  -0.49669
 Alpha  occ. eigenvalues --   -0.44114  -0.42939  -0.40338  -0.38123
 Alpha virt. eigenvalues --    0.02299   0.03894   0.04256   0.04578   0.05825
 Alpha virt. eigenvalues --    0.06174   0.06440   0.06649   0.07599   0.08077
 Alpha virt. eigenvalues --    0.08993   0.09724   0.11172   0.12038   0.12397

 Mulliken atomic charges:
              1
     1  H    0.044748
     2  C    0.409398
     3  H    0.052108
     4  H   -0.143685
     5  C    0.591532
     6  O   -0.899884
     7  N   -0.219389
     8  H   -0.101604
     9  C   -0.270513
    10  H   -0.027229
    11  C    0.737569
    12  H   -0.059825
    13  H   -0.027469
    14  H   -0.066941
    15  C    0.896768
    16  O   -0.867700
    17  N   -0.410641
    18  H   -0.023500
    19  C    0.751886
    20  H   -0.120660
    21  H   -0.050964
    22  H   -0.194006
 Sum of Mulliken atomic charges =   0.00000

 Dipole moment (field-independent basis, Debye):
    X=             -4.7084    Y=              0.3265    Z=             -2.3117  Tot=              5.2554
 Quadrupole moment (field-independent basis, Debye-Ang):
   XX=            -61.8476   YY=            -59.2017   ZZ=            -61.9357
   XY=             -8.1731   XZ=              5.4831   YZ=              0.5274

 Normal termination of Gaussian 09 at Mon Feb 13 23:18:24 2017.
