 Gaussian 09, Revision A.02,
 Gaussian 09:  EM64L-G09RevA.02 11-Jun-2009

 -------------------
 #SP MP2/aug-cc-pVDZ
 -------------------

 -------------------------------
 Single Point calculation at MP2
 -------------------------------
 Symbolic Z-matrix:
 Charge =  0 Multiplicity = 1

                         Standard orientation:
 ---------------------------------------------------------------------
 Center     Atomic      Atomic             Coordinates (Angstroms)
 Number     Number       Type             X           Y           Z
 ---------------------------------------------------------------------
      1          1           0       -3.175709   -2.131300    0.263990
      2          6           0       -3.100409   -1.110800   -0.117810
      3          1           0       -3.832508   -0.498800    0.422090
      4          1           0       -3.359309   -1.101300   -1.181810
      5          6           0       -1.699508   -0.585001    0.172490
      6          8           0       -1.094208   -0.873202    1.192990
      7          7           0       -1.172508    0.223398   -0.807910
      8          1           0       -1.800807    0.503399   -1.549910
      9          6           0        0.017193    1.074497   -0.642310
     10          1           0        0.360593    1.304797   -1.657910
     11          6           0       -0.308706    2.372098    0.101390
     12          1           0       -0.601606    2.145698    1.129090
     13          1           0        0.567995    3.025397    0.138290
     14          1           0       -1.123406    2.904898   -0.402210
     15          6           0        1.180193    0.331997    0.070390
     16          8           0        1.597793    0.667596    1.165190
     17          7           0        1.825592   -0.574604   -0.733710
     18          1           0        1.293592   -0.937704   -1.515110
     19          6           0        2.857991   -1.441705   -0.184310
     20          1           0        3.437392   -0.861505    0.535090
     21          1           0        2.438391   -2.313504    0.335090
     22          1           0        3.514591   -1.783305   -0.989810
 ---------------------------------------------------------------------

 SCF Done:  E(RHF) =  -492.914736700     A.U. after   14 cycles
 E2 =    -0.1603074581D+01 EUMP2 =    -0.49451781128096D+03

 The electronic state is 1-A.
 Alpha  occ. eigenvalues --  -20.53471 -20.52336 -15.60584 -15.58634 -11.36794
 Alpha  occ. eigenvalues --  -11.35370 -11.29761 -11.25901 -11.25284 -11.22616
 Alpha  occ. eigenvalues --   -1.39155  -1.37633  -1.24569  -1.22050  -1.05345
 Alpha  occ. eigenvalues --   -0.99347  -0.95194  -0.87188  -0.80949  -0.76688
 Alpha  occ. eigenvalues --   -0.70740  -0.69476  -0.64912  -0.64216  -0.62137
 Alpha  occ. eigenvalues --   -0.60923  -0.60026  -0.58554  -0.57525  -0.55914
 Alpha  occ. eigenvalues --   -0.53857  -0.52791  -0.51927  -0.51316  -0.50770
 Alpha  occ. eigenvalues --   -0.42993  -0.41790  -0.39875  -0.38600
 Alpha virt. eigenvalues --    0.02162   0.03614   0.03834   0.04630   0.05721
 Alpha virt. eigenvalues --    0.06067   0.06221   0.06633   0.07192   0.08354
 Alpha virt. eigenvalues --    0.08770   0.09112   0.10818   0.11938   0.12780

 Mulliken atomic charges:
              1
     1  H    0.006180
     2  C    0.411263
     3  H    0.051379
     4  H   -0.096543
     5  C    0.632269
     6  O   -0.814875
     7  N   -0.323828
     8  H   -0.143191
     9  C   -0.252398
    10  H   -0.195472
    11  C    0.753508
    12  H   -0.018378
    13  H   -0.047731
    14  H   -0.029766
    15  C    1.153650
    16  O   -0.823840
    17  N   -0.582305
    18  H   -0.070469
    19  C    0.738562
    20  H   -0.112024
    21  H   -0.065257
    22  H   -0.170734
 Sum of Mulliken atomic charges =   0.00000

 Dipole moment (field-independent basis, Debye):
    X=             -2.7458    Y=             -0.2565    Z=             -5.9794  Tot=              6.5847
 Quadrupole moment (field-independent basis, Debye-Ang):
   XX=            -53.6229   YY=            -58.7672   ZZ=            -64.6995
   XY=             -4.2873   XZ=             -0.1852   YZ=              0.4606

 Normal termination of Gaussian 09 at Tue Feb 14 01:19:47 2017.
