 Gaussian 09, Revision A.02,
 Gaussian 09:  EM64L-G09RevA.02 11-Jun-2009

 -------------------
 #SP MP2/aug-cc-pVDZ
 -------------------

 -------------------------------
 Single Point calculation at MP2
 -------------------------------
 Symbolic Z-matrix:
 Charge =  0 Multiplicity = 1

                         Standard orientation:
 ---------------------------------------------------------------------
 Center     Atomic      Atomic             Coordinates (Angstroms)
 Number     Number       Type             X           Y           Z
 ---------------------------------------------------------------------
      1          1           0       -3.355121   -2.037355    0.093504
      2          6           0       -3.205307   -1.016357   -0.263996
      3          1           0       -3.941499   -0.376947    0.237104
      4          1           0       -3.392407   -0.979254   -1.342496
      5          6           0       -1.800801   -0.567076    0.130504
      6          8           0       -1.283706   -0.906383    1.181404
      7          7           0       -1.182490    0.237416   -0.799696
      8          1           0       -1.752286    0.537724   -1.579196
      9          6           0        0.044720    1.025599   -0.601996
     10          1           0        0.403023    1.264195   -1.610196
     11          6           0       -0.235062    2.323503    0.164004
     12          1           0       -0.533966    2.084307    1.186904
     13          1           0        0.663246    2.947791    0.210404
     14          1           0       -1.031655    2.892614   -0.328196
     15          6           0        1.177410    0.243884    0.120504
     16          8           0        1.418311    0.373581    1.307604
     17          7           0        2.011201   -0.429627   -0.738796
     18          1           0        1.646098   -0.649622   -1.656496
     19          6           0        3.077189   -1.279041   -0.229096
     20          1           0        3.471195   -0.815447    0.676304
     21          1           0        2.723776   -2.287037    0.026104
     22          1           0        3.872888   -1.356152   -0.975896
 ---------------------------------------------------------------------

 SCF Done:  E(RHF) =  -492.909768184     A.U. after   14 cycles
 E2 =    -0.1603284372D+01 EUMP2 =    -0.49451305255571D+03

 The electronic state is 1-A.
 Alpha  occ. eigenvalues --  -20.52894 -20.52377 -15.60287 -15.59050 -11.36360
 Alpha  occ. eigenvalues --  -11.35470 -11.29918 -11.26183 -11.24921 -11.22722
 Alpha  occ. eigenvalues --   -1.38711  -1.37633  -1.24268  -1.22310  -1.05308
 Alpha  occ. eigenvalues --   -0.99079  -0.95366  -0.87252  -0.80847  -0.76907
 Alpha  occ. eigenvalues --   -0.70481  -0.69274  -0.64941  -0.64016  -0.61985
 Alpha  occ. eigenvalues --   -0.61049  -0.59967  -0.58423  -0.57345  -0.55885
 Alpha  occ. eigenvalues --   -0.54109  -0.53086  -0.51840  -0.51144  -0.50553
 Alpha  occ. eigenvalues --   -0.42959  -0.41280  -0.39522  -0.38651
 Alpha virt. eigenvalues --    0.02134   0.03536   0.03921   0.04576   0.05765
 Alpha virt. eigenvalues --    0.05997   0.06094   0.06726   0.07159   0.08173
 Alpha virt. eigenvalues --    0.08844   0.08995   0.10818   0.11782   0.12733

 Mulliken atomic charges:
              1
     1  H    0.001139
     2  C    0.393941
     3  H    0.048763
     4  H   -0.096781
     5  C    0.649584
     6  O   -0.795438
     7  N   -0.310145
     8  H   -0.125725
     9  C   -0.264125
    10  H   -0.241493
    11  C    0.761551
    12  H   -0.014227
    13  H   -0.029785
    14  H   -0.026184
    15  C    1.045533
    16  O   -0.777411
    17  N   -0.501888
    18  H   -0.097037
    19  C    0.724771
    20  H   -0.114908
    21  H   -0.062916
    22  H   -0.167217
 Sum of Mulliken atomic charges =   0.00000

 Dipole moment (field-independent basis, Debye):
    X=             -1.6428    Y=              0.5382    Z=             -6.4829  Tot=              6.7094
 Quadrupole moment (field-independent basis, Debye-Ang):
   XX=            -51.9298   YY=            -59.2858   ZZ=            -64.6635
   XY=             -3.9949   XZ=             -0.0350   YZ=              1.3424

 Normal termination of Gaussian 09 at Tue Feb 14 00:30:00 2017.
