 Gaussian 09, Revision A.02,
 Gaussian 09:  EM64L-G09RevA.02 11-Jun-2009

 -------------------
 #SP MP2/aug-cc-pVDZ
 -------------------

 -------------------------------
 Single Point calculation at MP2
 -------------------------------
 Symbolic Z-matrix:
 Charge =  0 Multiplicity = 1

                         Standard orientation:
 ---------------------------------------------------------------------
 Center     Atomic      Atomic             Coordinates (Angstroms)
 Number     Number       Type             X           Y           Z
 ---------------------------------------------------------------------
      1          1           0        3.488880   -1.355929   -0.988603
      2          6           0        3.032783   -1.048024   -0.045703
      3          1           0        3.740689   -0.434531    0.521097
      4          1           0        2.812975   -1.950722    0.536897
      5          6           0        1.729790   -0.325412   -0.339903
      6          8           0        1.035888   -0.583005   -1.316003
      7          7           0        1.380700    0.655792    0.559597
      8          1           0        1.859500    0.625287    1.449997
      9          6           0       -0.002995    1.143905    0.602497
     10          1           0       -0.140691    1.572306    1.601497
     11          6           0       -0.226485    2.248207   -0.438903
     12          1           0       -0.070588    1.861406   -1.450503
     13          1           0       -1.234680    2.670017   -0.358303
     14          1           0        0.490923    3.058100   -0.275903
     15          6           0       -0.980707   -0.061885    0.556597
     16          8           0       -0.822416   -0.994287    1.334997
     17          7           0       -2.050106    0.036325   -0.282803
     18          1           0       -1.965600    0.669824   -1.064503
     19          6           0       -2.957017   -1.091066   -0.441903
     20          1           0       -3.136721   -1.531464    0.539897
     21          1           0       -3.902714   -0.738357   -0.862703
     22          1           0       -2.536125   -1.866770   -1.094503
 ---------------------------------------------------------------------

 SCF Done:  E(RHF) =  -492.921866860     A.U. after   14 cycles
 E2 =    -0.1602961491D+01 EUMP2 =    -0.49452482835122D+03

 The electronic state is 1-A.
 Alpha  occ. eigenvalues --  -20.53448 -20.52454 -15.59586 -15.58791 -11.36320
 Alpha  occ. eigenvalues --  -11.35491 -11.29640 -11.26017 -11.24548 -11.23758
 Alpha  occ. eigenvalues --   -1.39147  -1.37575  -1.23690  -1.22582  -1.05392
 Alpha  occ. eigenvalues --   -0.99208  -0.94592  -0.88450  -0.80030  -0.76848
 Alpha  occ. eigenvalues --   -0.71201  -0.69972  -0.64749  -0.63953  -0.61688
 Alpha  occ. eigenvalues --   -0.61139  -0.59665  -0.57944  -0.56630  -0.55875
 Alpha  occ. eigenvalues --   -0.54532  -0.54268  -0.52713  -0.51472  -0.49592
 Alpha  occ. eigenvalues --   -0.42712  -0.42483  -0.40107  -0.38720
 Alpha virt. eigenvalues --    0.03034   0.03765   0.04324   0.04686   0.05870
 Alpha virt. eigenvalues --    0.06014   0.06482   0.06757   0.07619   0.07850
 Alpha virt. eigenvalues --    0.08943   0.09737   0.10627   0.11826   0.12793

 Mulliken atomic charges:
              1
     1  H   -0.007767
     2  C    0.346397
     3  H   -0.050541
     4  H    0.079246
     5  C    0.698606
     6  O   -0.857391
     7  N   -0.391891
     8  H   -0.064205
     9  C   -0.194840
    10  H   -0.125868
    11  C    0.831582
    12  H    0.020685
    13  H    0.025432
    14  H   -0.153828
    15  C    1.010404
    16  O   -0.927134
    17  N   -0.510539
    18  H   -0.110435
    19  C    0.728937
    20  H   -0.108695
    21  H   -0.189515
    22  H   -0.048638
 Sum of Mulliken atomic charges =   0.00000

 Dipole moment (field-independent basis, Debye):
    X=              0.7339    Y=              2.8810    Z=              0.3789  Tot=              2.9971
 Quadrupole moment (field-independent basis, Debye-Ang):
   XX=            -49.5117   YY=            -60.9117   ZZ=            -65.1257
   XY=             -1.9700   XZ=              8.1862   YZ=              2.3507

 Normal termination of Gaussian 09 at Tue Feb 14 00:21:45 2017.
