 Gaussian 09, Revision A.02,
 Gaussian 09:  EM64L-G09RevA.02 11-Jun-2009

 -------------------
 #SP MP2/aug-cc-pVDZ
 -------------------

 -------------------------------
 Single Point calculation at MP2
 -------------------------------
 Symbolic Z-matrix:
 Charge =  0 Multiplicity = 1

                         Standard orientation:
 ---------------------------------------------------------------------
 Center     Atomic      Atomic             Coordinates (Angstroms)
 Number     Number       Type             X           Y           Z
 ---------------------------------------------------------------------
      1          1           0       -3.167579   -1.566048   -1.167792
      2          6           0       -3.223592   -0.664949   -0.547692
      3          1           0       -3.907189   -0.879358    0.278108
      4          1           0       -3.633003    0.151946   -1.149692
      5          6           0       -1.843496   -0.383129    0.029008
      6          8           0       -1.355785   -1.143522    0.869008
      7          7           0       -1.247712    0.754180   -0.422192
      8          1           0       -1.748219    1.230572   -1.159292
      9          6           0        0.129981    1.261599   -0.220892
     10          1           0        0.284370    1.988101   -1.020292
     11          6           0        0.238270    1.981501    1.137808
     12          1           0        0.051180    1.279698    1.956108
     13          1           0        1.241164    2.403115    1.256708
     14          1           0       -0.494941    2.792490    1.201608
     15          6           0        1.344094    0.306617   -0.373292
     16          8           0        2.341788    0.747431   -0.942592
     17          7           0        1.292112   -0.915484    0.193308
     18          1           0        0.427516   -1.204696    0.649908
     19          6           0        2.442524   -1.800868    0.137708
     20          1           0        2.790626   -1.918463   -0.893592
     21          1           0        3.278619   -1.407956    0.728308
     22          1           0        2.151938   -2.776172    0.534908
 ---------------------------------------------------------------------

 SCF Done:  E(RHF) =  -492.919727425     A.U. after   14 cycles
 E2 =    -0.1604316371D+01 EUMP2 =    -0.49452404379670D+03

 The electronic state is 1-A.
 Alpha  occ. eigenvalues --  -20.54839 -20.51935 -15.61801 -15.57330 -11.38460
 Alpha  occ. eigenvalues --  -11.35001 -11.30150 -11.26099 -11.25651 -11.23687
 Alpha  occ. eigenvalues --   -1.40213  -1.37233  -1.25451  -1.21675  -1.06217
 Alpha  occ. eigenvalues --   -1.00262  -0.94648  -0.88594  -0.81548  -0.76798
 Alpha  occ. eigenvalues --   -0.72319  -0.70889  -0.64770  -0.63528  -0.62286
 Alpha  occ. eigenvalues --   -0.61347  -0.60598  -0.58676  -0.58065  -0.56699
 Alpha  occ. eigenvalues --   -0.54489  -0.54164  -0.52270  -0.51889  -0.49784
 Alpha  occ. eigenvalues --   -0.44533  -0.43351  -0.39578  -0.37668
 Alpha virt. eigenvalues --    0.02427   0.03976   0.04379   0.04452   0.05738
 Alpha virt. eigenvalues --    0.06246   0.06459   0.06789   0.07256   0.08007
 Alpha virt. eigenvalues --    0.08887   0.09914   0.10991   0.11845   0.12382

 Mulliken atomic charges:
              1
     1  H    0.052647
     2  C    0.422123
     3  H    0.034137
     4  H   -0.142235
     5  C    0.631030
     6  O   -0.922068
     7  N   -0.228306
     8  H   -0.099420
     9  C   -0.113678
    10  H   -0.151285
    11  C    0.686575
    12  H   -0.059959
    13  H   -0.062173
    14  H   -0.090268
    15  C    0.948646
    16  O   -0.895489
    17  N   -0.415668
    18  H   -0.019276
    19  C    0.758279
    20  H   -0.067577
    21  H   -0.058206
    22  H   -0.207829
 Sum of Mulliken atomic charges =   0.00000

 Dipole moment (field-independent basis, Debye):
    X=             -4.4358    Y=              0.6044    Z=             -0.6857  Tot=              4.5290
 Quadrupole moment (field-independent basis, Debye-Ang):
   XX=            -61.9390   YY=            -58.8799   ZZ=            -63.0563
   XY=             -7.9124   XZ=             10.4471   YZ=              2.2856

 Normal termination of Gaussian 09 at Tue Feb 14 00:20:52 2017.
