 Gaussian 09, Revision A.02,
 Gaussian 09:  EM64L-G09RevA.02 11-Jun-2009

 -------------------
 #SP MP2/aug-cc-pVDZ
 -------------------

 -------------------------------
 Single Point calculation at MP2
 -------------------------------
 Symbolic Z-matrix:
 Charge =  0 Multiplicity = 1

                         Standard orientation:
 ---------------------------------------------------------------------
 Center     Atomic      Atomic             Coordinates (Angstroms)
 Number     Number       Type             X           Y           Z
 ---------------------------------------------------------------------
      1          1           0       -3.127659   -2.014382    0.043200
      2          6           0       -3.098287   -0.936381   -0.134500
      3          1           0       -3.814399   -0.472300    0.552700
      4          1           0       -3.417792   -0.730989   -1.161300
      5          6           0       -1.701100   -0.424745    0.193500
      6          8           0       -1.097491   -0.787829    1.196100
      7          7           0       -1.187824    0.480569   -0.697500
      8          1           0       -1.763731    0.741854   -1.484900
      9          6           0        0.097658    1.180903   -0.564700
     10          1           0        0.344648    1.527609   -1.576400
     11          6           0       -0.027374    2.398199    0.361800
     12          1           0       -0.307666    2.072392    1.367600
     13          1           0        0.928012    2.921824    0.423500
     14          1           0       -0.795292    3.082179   -0.015100
     15          6           0        1.309480    0.313334   -0.134700
     16          8           0        2.272766    0.849359    0.397800
     17          7           0        1.298015   -0.997666   -0.507600
     18          1           0        0.396825   -1.407790   -0.699100
     19          6           0        2.342238   -1.900539   -0.048200
     20          1           0        3.283924   -1.351314   -0.021200
     21          1           0        2.134048   -2.284944    0.958900
     22          1           0        2.429860   -2.741336   -0.742600
 ---------------------------------------------------------------------

 SCF Done:  E(RHF) =  -492.918518477     A.U. after   14 cycles
 E2 =    -0.1603626445D+01 EUMP2 =    -0.49452214492172D+03

 The electronic state is 1-A.
 Alpha  occ. eigenvalues --  -20.54198 -20.52467 -15.61274 -15.58197 -11.37621
 Alpha  occ. eigenvalues --  -11.35547 -11.30000 -11.25947 -11.25671 -11.22428
 Alpha  occ. eigenvalues --   -1.39778  -1.37829  -1.25167  -1.21979  -1.05655
 Alpha  occ. eigenvalues --   -0.99788  -0.95016  -0.87605  -0.81281  -0.77149
 Alpha  occ. eigenvalues --   -0.71866  -0.70176  -0.64907  -0.64336  -0.62266
 Alpha  occ. eigenvalues --   -0.61220  -0.60136  -0.59042  -0.57841  -0.55823
 Alpha  occ. eigenvalues --   -0.53967  -0.53081  -0.52059  -0.51819  -0.50195
 Alpha  occ. eigenvalues --   -0.43681  -0.42814  -0.40242  -0.38150
 Alpha virt. eigenvalues --    0.02159   0.03710   0.03977   0.04647   0.05879
 Alpha virt. eigenvalues --    0.06160   0.06358   0.06753   0.07014   0.08381
 Alpha virt. eigenvalues --    0.08988   0.09024   0.11469   0.12267   0.12473

 Mulliken atomic charges:
              1
     1  H    0.026062
     2  C    0.434530
     3  H    0.054342
     4  H   -0.126628
     5  C    0.503160
     6  O   -0.819383
     7  N   -0.144252
     8  H   -0.125948
     9  C   -0.331153
    10  H   -0.096953
    11  C    0.796657
    12  H   -0.072527
    13  H   -0.037815
    14  H   -0.050147
    15  C    1.028897
    16  O   -0.852286
    17  N   -0.460520
    18  H   -0.065595
    19  C    0.705374
    20  H   -0.125742
    21  H   -0.069033
    22  H   -0.171041
 Sum of Mulliken atomic charges =   0.00000

 Dipole moment (field-independent basis, Debye):
    X=             -4.4480    Y=             -0.7014    Z=             -4.2648  Tot=              6.2020
 Quadrupole moment (field-independent basis, Debye-Ang):
   XX=            -60.2267   YY=            -57.7762   ZZ=            -63.2619
   XY=             -5.5674   XZ=              2.4286   YZ=             -0.1118

 Normal termination of Gaussian 09 at Tue Feb 14 00:34:05 2017.
