 Gaussian 09, Revision A.02,
 Gaussian 09:  EM64L-G09RevA.02 11-Jun-2009

 -------------------
 #SP MP2/aug-cc-pVDZ
 -------------------

 -------------------------------
 Single Point calculation at MP2
 -------------------------------
 Symbolic Z-matrix:
 Charge =  0 Multiplicity = 1

                         Standard orientation:
 ---------------------------------------------------------------------
 Center     Atomic      Atomic             Coordinates (Angstroms)
 Number     Number       Type             X           Y           Z
 ---------------------------------------------------------------------
      1          1           0       -2.979607   -2.141487    0.154899
      2          6           0       -3.015199   -1.068987   -0.053601
      3          1           0       -3.735296   -0.624982    0.642299
      4          1           0       -3.374098   -0.912384   -1.075901
      5          6           0       -1.639595   -0.473098    0.215999
      6          8           0       -1.001597   -0.742203    1.224799
      7          7           0       -1.173088    0.383999   -0.749701
      8          1           0       -1.797886    0.631603   -1.504201
      9          6           0        0.062118    1.170689   -0.623901
     10          1           0        0.337220    1.454187   -1.648101
     11          6           0       -0.147272    2.434491    0.215499
     12          1           0       -0.432375    2.161893    1.234999
     13          1           0        0.777832    3.012584    0.266099
     14          1           0       -0.936368    3.054597   -0.224001
     15          6           0        1.254912    0.346780   -0.075101
     16          8           0        2.063215    0.843574    0.694499
     17          7           0        1.411302   -0.889521   -0.636701
     18          1           0        0.593699   -1.286115   -1.078801
     19          6           0        2.391095   -1.820829   -0.099501
     20          1           0        3.288999   -1.260635    0.164899
     21          1           0        2.021091   -2.328326    0.801099
     22          1           0        2.639989   -2.567530   -0.859201
 ---------------------------------------------------------------------

 SCF Done:  E(RHF) =  -492.919836307     A.U. after   14 cycles
 E2 =    -0.1603578820D+01 EUMP2 =    -0.49452341512723D+03

 The electronic state is 1-A.
 Alpha  occ. eigenvalues --  -20.54060 -20.52423 -15.61137 -15.58129 -11.37419
 Alpha  occ. eigenvalues --  -11.35374 -11.29812 -11.25813 -11.25638 -11.22429
 Alpha  occ. eigenvalues --   -1.39688  -1.37706  -1.25097  -1.21849  -1.05547
 Alpha  occ. eigenvalues --   -0.99696  -0.95034  -0.87364  -0.81242  -0.76877
 Alpha  occ. eigenvalues --   -0.71476  -0.70015  -0.64731  -0.64586  -0.62202
 Alpha  occ. eigenvalues --   -0.61078  -0.60027  -0.58918  -0.57752  -0.55920
 Alpha  occ. eigenvalues --   -0.53800  -0.52575  -0.52306  -0.51688  -0.50437
 Alpha  occ. eigenvalues --   -0.43422  -0.42536  -0.40098  -0.38328
 Alpha virt. eigenvalues --    0.02107   0.03684   0.03828   0.04664   0.05789
 Alpha virt. eigenvalues --    0.06171   0.06314   0.06641   0.07121   0.08484
 Alpha virt. eigenvalues --    0.08913   0.09096   0.11102   0.12395   0.12509

 Mulliken atomic charges:
              1
     1  H    0.029818
     2  C    0.437406
     3  H    0.053461
     4  H   -0.130570
     5  C    0.543822
     6  O   -0.829493
     7  N   -0.204365
     8  H   -0.140976
     9  C   -0.291945
    10  H   -0.146901
    11  C    0.814588
    12  H   -0.056980
    13  H   -0.042469
    14  H   -0.042029
    15  C    1.071638
    16  O   -0.844768
    17  N   -0.518354
    18  H   -0.066639
    19  C    0.724809
    20  H   -0.115703
    21  H   -0.066596
    22  H   -0.177754
 Sum of Mulliken atomic charges =   0.00000

 Dipole moment (field-independent basis, Debye):
    X=             -4.2212    Y=             -0.8518    Z=             -4.9435  Tot=              6.5561
 Quadrupole moment (field-independent basis, Debye-Ang):
   XX=            -58.4354   YY=            -57.6376   ZZ=            -63.8689
   XY=             -4.7302   XZ=              0.9459   YZ=             -0.3080

 Normal termination of Gaussian 09 at Tue Feb 14 00:24:40 2017.
