 Gaussian 09, Revision A.02,
 Gaussian 09:  EM64L-G09RevA.02 11-Jun-2009

 -------------------
 #SP MP2/aug-cc-pVDZ
 -------------------

 -------------------------------
 Single Point calculation at MP2
 -------------------------------
 Symbolic Z-matrix:
 Charge =  0 Multiplicity = 1

                         Standard orientation:
 ---------------------------------------------------------------------
 Center     Atomic      Atomic             Coordinates (Angstroms)
 Number     Number       Type             X           Y           Z
 ---------------------------------------------------------------------
      1          1           0       -3.673130   -1.496761    0.185808
      2          6           0       -2.889927   -1.228470   -0.524792
      3          1           0       -3.346023   -0.873965   -1.456492
      4          1           0       -2.299738   -2.124777   -0.751292
      5          6           0       -1.980515   -0.187881    0.110808
      6          8           0       -1.951213    0.013119    1.310108
      7          7           0       -1.253606    0.583511   -0.809492
      8          1           0       -1.356710    0.217112   -1.750592
      9          6           0        0.138099    0.981295   -0.566192
     10          1           0        0.532602    1.297390   -1.538792
     11          6           0        0.203713    2.175594    0.406808
     12          1           0       -0.221191    1.883399    1.369208
     13          1           0        1.237417    2.508682    0.556008
     14          1           0       -0.379678    3.010201    0.006208
     15          6           0        1.026385   -0.173116   -0.032792
     16          8           0        0.599174   -1.138211    0.580608
     17          7           0        2.341787   -0.055631   -0.406092
     18          1           0        2.643497    0.810565   -0.830692
     19          6           0        3.368176   -0.956143    0.094108
     20          1           0        2.869665   -1.865537    0.432008
     21          1           0        4.075373   -1.203852   -0.704192
     22          1           0        3.921381   -0.524550    0.938508
 ---------------------------------------------------------------------

 SCF Done:  E(RHF) =  -492.908317818     A.U. after   15 cycles
 E2 =    -0.1603315497D+01 EUMP2 =    -0.49451163331519D+03

 The electronic state is 1-A.
 Alpha  occ. eigenvalues --  -20.53347 -20.52344 -15.59900 -15.58923 -11.36191
 Alpha  occ. eigenvalues --  -11.35409 -11.29991 -11.27051 -11.23808 -11.23225
 Alpha  occ. eigenvalues --   -1.39142  -1.37331  -1.23675  -1.22803  -1.05089
 Alpha  occ. eigenvalues --   -0.98571  -0.95605  -0.87449  -0.79979  -0.76873
 Alpha  occ. eigenvalues --   -0.70535  -0.69464  -0.65204  -0.62849  -0.62193
 Alpha  occ. eigenvalues --   -0.61856  -0.59340  -0.58485  -0.56371  -0.55786
 Alpha  occ. eigenvalues --   -0.54926  -0.53310  -0.52981  -0.50908  -0.49112
 Alpha  occ. eigenvalues --   -0.44552  -0.41402  -0.39616  -0.38329
 Alpha virt. eigenvalues --    0.02287   0.03666   0.04169   0.04617   0.05762
 Alpha virt. eigenvalues --    0.05928   0.06087   0.07002   0.07757   0.08256
 Alpha virt. eigenvalues --    0.08589   0.09302   0.11222   0.11786   0.12237

 Mulliken atomic charges:
              1
     1  H   -0.049697
     2  C    0.310864
     3  H   -0.017051
     4  H    0.069854
     5  C    0.800421
     6  O   -0.821294
     7  N   -0.494923
     8  H   -0.035251
     9  C   -0.278623
    10  H   -0.210115
    11  C    0.731817
    12  H   -0.010833
    13  H   -0.085809
    14  H   -0.035035
    15  C    1.169016
    16  O   -0.812944
    17  N   -0.470823
    18  H   -0.117357
    19  C    0.728659
    20  H   -0.129719
    21  H   -0.150409
    22  H   -0.090748
 Sum of Mulliken atomic charges =   0.00000

 Dipole moment (field-independent basis, Debye):
    X=              2.9238    Y=              1.5602    Z=             -4.9863  Tot=              5.9871
 Quadrupole moment (field-independent basis, Debye-Ang):
   XX=            -51.9624   YY=            -60.9881   ZZ=            -63.2384
   XY=              5.0128   XZ=              5.3809   YZ=              1.1512

 Normal termination of Gaussian 09 at Mon Feb 13 23:45:00 2017.
