 Gaussian 09, Revision A.02,
 Gaussian 09:  EM64L-G09RevA.02 11-Jun-2009

 -------------------
 #SP MP2/aug-cc-pVDZ
 -------------------

 -------------------------------
 Single Point calculation at MP2
 -------------------------------
 Symbolic Z-matrix:
 Charge =  0 Multiplicity = 1

                         Standard orientation:
 ---------------------------------------------------------------------
 Center     Atomic      Atomic             Coordinates (Angstroms)
 Number     Number       Type             X           Y           Z
 ---------------------------------------------------------------------
      1          1           0       -3.727301   -1.545899    0.189390
      2          6           0       -2.929201   -1.339699   -0.525210
      3          1           0       -3.365801   -0.990899   -1.468210
      4          1           0       -2.392301   -2.275399   -0.725210
      5          6           0       -1.977501   -0.316599    0.089590
      6          8           0       -1.951201   -0.087999    1.283390
      7          7           0       -1.212101    0.367401   -0.852510
      8          1           0       -1.295901   -0.036399   -1.778310
      9          6           0        0.128699    0.942301   -0.624810
     10          1           0        0.520699    1.152901   -1.626310
     11          6           0        0.020399    2.260201    0.159290
     12          1           0       -0.384101    2.051001    1.151390
     13          1           0        1.005499    2.728501    0.268090
     14          1           0       -0.646601    2.952601   -0.363510
     15          6           0        1.111499    0.014001    0.131390
     16          8           0        0.930599   -0.377299    1.272290
     17          7           0        2.243599   -0.284899   -0.586710
     18          1           0        2.335099    0.065801   -1.528610
     19          6           0        3.328699   -1.078299   -0.037010
     20          1           0        3.057199   -1.326799    0.989990
     21          1           0        3.472399   -2.006299   -0.603610
     22          1           0        4.269899   -0.515699   -0.035410
 ---------------------------------------------------------------------

 SCF Done:  E(RHF) =  -492.904168494     A.U. after   14 cycles
 E2 =    -0.1603979128D+01 EUMP2 =    -0.49450814762203D+03

 The electronic state is 1-A.
 Alpha  occ. eigenvalues --  -20.52660 -20.52642 -15.59881 -15.59565 -11.35881
 Alpha  occ. eigenvalues --  -11.35692 -11.30064 -11.26885 -11.24384 -11.22570
 Alpha  occ. eigenvalues --   -1.38651  -1.37567  -1.23759  -1.22799  -1.05214
 Alpha  occ. eigenvalues --   -0.98746  -0.95733  -0.87148  -0.80339  -0.77000
 Alpha  occ. eigenvalues --   -0.70677  -0.69420  -0.65105  -0.63439  -0.62005
 Alpha  occ. eigenvalues --   -0.61475  -0.59751  -0.58614  -0.56226  -0.56034
 Alpha  occ. eigenvalues --   -0.54672  -0.53056  -0.51823  -0.50917  -0.49880
 Alpha  occ. eigenvalues --   -0.44309  -0.41645  -0.39222  -0.37961
 Alpha virt. eigenvalues --    0.01981   0.03629   0.03935   0.04561   0.05572
 Alpha virt. eigenvalues --    0.05795   0.06137   0.06870   0.07557   0.07803
 Alpha virt. eigenvalues --    0.08555   0.09558   0.10728   0.12017   0.12403

 Mulliken atomic charges:
              1
     1  H   -0.044844
     2  C    0.308102
     3  H   -0.019898
     4  H    0.053417
     5  C    0.726562
     6  O   -0.759182
     7  N   -0.358771
     8  H   -0.071123
     9  C   -0.192858
    10  H   -0.315703
    11  C    0.752520
    12  H    0.004299
    13  H   -0.067640
    14  H   -0.059482
    15  C    1.098150
    16  O   -0.790121
    17  N   -0.487653
    18  H   -0.134424
    19  C    0.736293
    20  H   -0.154322
    21  H   -0.106628
    22  H   -0.116694
 Sum of Mulliken atomic charges =   0.00000

 Dipole moment (field-independent basis, Debye):
    X=              2.0028    Y=             -0.1305    Z=             -6.7601  Tot=              7.0518
 Quadrupole moment (field-independent basis, Debye-Ang):
   XX=            -53.7147   YY=            -58.7478   ZZ=            -64.2396
   XY=              2.6211   XZ=              2.3020   YZ=              1.6123

 Normal termination of Gaussian 09 at Tue Feb 14 00:11:34 2017.
