 Gaussian 09, Revision A.02,
 Gaussian 09:  EM64L-G09RevA.02 11-Jun-2009

 -------------------
 #SP MP2/aug-cc-pVDZ
 -------------------

 -------------------------------
 Single Point calculation at MP2
 -------------------------------
 Symbolic Z-matrix:
 Charge =  0 Multiplicity = 1

                         Standard orientation:
 ---------------------------------------------------------------------
 Center     Atomic      Atomic             Coordinates (Angstroms)
 Number     Number       Type             X           Y           Z
 ---------------------------------------------------------------------
      1          1           0        3.611198   -1.451613   -0.367399
      2          6           0        3.038699   -0.995912    0.443501
      3          1           0        3.650700   -0.234013    0.936601
      4          1           0        2.808997   -1.782012    1.172201
      5          6           0        1.736799   -0.451510   -0.123599
      6          8           0        1.120198   -1.051409   -1.002399
      7          7           0        1.331101    0.751190    0.386601
      8          1           0        1.842902    1.077690    1.195101
      9          6           0       -0.032698    1.305592    0.249201
     10          1           0       -0.139097    2.014493    1.073001
     11          6           0       -0.186597    2.049993   -1.084499
     12          1           0       -0.008698    1.383492   -1.932499
     13          1           0       -1.193796    2.468694   -1.177799
     14          1           0        0.539404    2.868192   -1.140099
     15          6           0       -1.157600    0.269694    0.526701
     16          8           0       -1.652600    0.206995    1.647901
     17          7           0       -1.613301   -0.451005   -0.536299
     18          1           0       -0.910601   -0.639106   -1.244799
     19          6           0       -2.617702   -1.482204   -0.318099
     20          1           0       -3.428602   -1.068103    0.283901
     21          1           0       -3.011603   -1.803603   -1.285799
     22          1           0       -2.211603   -2.354004    0.212201
 ---------------------------------------------------------------------

 SCF Done:  E(RHF) =  -492.919836348     A.U. after   14 cycles
 E2 =    -0.1603436679D+01 EUMP2 =    -0.49452327302695D+03

 The electronic state is 1-A.
 Alpha  occ. eigenvalues --  -20.54526 -20.52922 -15.61106 -15.57583 -11.37780
 Alpha  occ. eigenvalues --  -11.35248 -11.29870 -11.25674 -11.25529 -11.23623
 Alpha  occ. eigenvalues --   -1.39895  -1.37833  -1.24849  -1.21872  -1.05885
 Alpha  occ. eigenvalues --   -0.99968  -0.94257  -0.88567  -0.81001  -0.76083
 Alpha  occ. eigenvalues --   -0.71775  -0.70480  -0.64934  -0.63908  -0.62622
 Alpha  occ. eigenvalues --   -0.61485  -0.60219  -0.57886  -0.57393  -0.56368
 Alpha  occ. eigenvalues --   -0.54388  -0.53692  -0.52098  -0.51585  -0.50993
 Alpha  occ. eigenvalues --   -0.44233  -0.43610  -0.40054  -0.37958
 Alpha virt. eigenvalues --    0.02762   0.03990   0.04230   0.04753   0.05676
 Alpha virt. eigenvalues --    0.06122   0.06445   0.06606   0.07565   0.08174
 Alpha virt. eigenvalues --    0.08767   0.10146   0.11050   0.11751   0.12430

 Mulliken atomic charges:
              1
     1  H    0.009208
     2  C    0.387212
     3  H   -0.098303
     4  H    0.061741
     5  C    0.621016
     6  O   -0.845788
     7  N   -0.420934
     8  H   -0.079023
     9  C    0.050827
    10  H   -0.203097
    11  C    0.796666
    12  H   -0.094809
    13  H   -0.012898
    14  H   -0.075378
    15  C    0.945255
    16  O   -0.888664
    17  N   -0.619961
    18  H    0.051434
    19  C    0.787246
    20  H   -0.120513
    21  H   -0.189884
    22  H   -0.061353
 Sum of Mulliken atomic charges =   0.00000

 Dipole moment (field-independent basis, Debye):
    X=              3.1581    Y=              1.2451    Z=             -0.4708  Tot=              3.4272
 Quadrupole moment (field-independent basis, Debye-Ang):
   XX=            -55.6756   YY=            -58.2550   ZZ=            -67.3011
   XY=              2.8884   XZ=             10.8624   YZ=             -0.9539

 Normal termination of Gaussian 09 at Tue Feb 14 00:21:02 2017.
