 Gaussian 09, Revision A.02,
 Gaussian 09:  EM64L-G09RevA.02 11-Jun-2009

 -------------------
 #SP MP2/aug-cc-pVDZ
 -------------------

 -------------------------------
 Single Point calculation at MP2
 -------------------------------
 Symbolic Z-matrix:
 Charge =  0 Multiplicity = 1

                         Standard orientation:
 ---------------------------------------------------------------------
 Center     Atomic      Atomic             Coordinates (Angstroms)
 Number     Number       Type             X           Y           Z
 ---------------------------------------------------------------------
      1          1           0        3.504945   -1.515131   -0.643819
      2          6           0        3.004436   -1.091442    0.229581
      3          1           0        3.680121   -0.392427    0.732681
      4          1           0        2.779854   -1.913747    0.918981
      5          6           0        1.700522   -0.449370   -0.216619
      6          8           0        1.013433   -0.927085   -1.115019
      7          7           0        1.358298    0.705923    0.436481
      8          1           0        1.888593    0.921734    1.269781
      9          6           0        0.000285    1.277894    0.381281
     10          1           0       -0.093828    1.896592    1.277381
     11          6           0       -0.168634    2.163590   -0.860419
     12          1           0        0.025278    1.600494   -1.778119
     13          1           0       -1.180543    2.578268   -0.908619
     14          1           0        0.547149    2.991305   -0.823719
     15          6           0       -1.084791    0.185070    0.581981
     16          8           0       -1.328283   -0.213735    1.715481
     17          7           0       -1.775882   -0.220145   -0.521419
     18          1           0       -1.257384   -0.163733   -1.388819
     19          6           0       -2.713559   -1.328465   -0.406519
     20          1           0       -3.337662   -1.171478    0.474481
     21          1           0       -3.344358   -1.356978   -1.299019
     22          1           0       -2.199838   -2.292454   -0.296019
 ---------------------------------------------------------------------

 SCF Done:  E(RHF) =  -492.920696082     A.U. after   15 cycles
 E2 =    -0.1602957505D+01 EUMP2 =    -0.49452365358696D+03

 The electronic state is 1-A.
 Alpha  occ. eigenvalues --  -20.54108 -20.52863 -15.60585 -15.57985 -11.37247
 Alpha  occ. eigenvalues --  -11.35333 -11.29765 -11.25604 -11.25303 -11.23685
 Alpha  occ. eigenvalues --   -1.39576  -1.37848  -1.24419  -1.22109  -1.05690
 Alpha  occ. eigenvalues --   -0.99699  -0.94294  -0.88563  -0.80645  -0.76286
 Alpha  occ. eigenvalues --   -0.71579  -0.70135  -0.64891  -0.64072  -0.62352
 Alpha  occ. eigenvalues --   -0.61357  -0.59905  -0.57829  -0.57114  -0.56153
 Alpha  occ. eigenvalues --   -0.54404  -0.53868  -0.52191  -0.51737  -0.50594
 Alpha  occ. eigenvalues --   -0.43640  -0.43340  -0.40142  -0.38131
 Alpha virt. eigenvalues --    0.02896   0.03976   0.04198   0.04781   0.05731
 Alpha virt. eigenvalues --    0.06152   0.06452   0.06617   0.07483   0.08091
 Alpha virt. eigenvalues --    0.08766   0.10103   0.10835   0.11875   0.12959

 Mulliken atomic charges:
              1
     1  H    0.003604
     2  C    0.386560
     3  H   -0.083442
     4  H    0.066330
     5  C    0.607449
     6  O   -0.846600
     7  N   -0.418850
     8  H   -0.084186
     9  C   -0.041557
    10  H   -0.170341
    11  C    0.841083
    12  H   -0.059458
    13  H   -0.011700
    14  H   -0.095556
    15  C    1.014747
    16  O   -0.926696
    17  N   -0.615827
    18  H    0.028664
    19  C    0.768643
    20  H   -0.120857
    21  H   -0.190335
    22  H   -0.051676
 Sum of Mulliken atomic charges =   0.00000

 Dipole moment (field-independent basis, Debye):
    X=              2.4661    Y=              1.8380    Z=             -0.6350  Tot=              3.1405
 Quadrupole moment (field-independent basis, Debye-Ang):
   XX=            -53.2812   YY=            -58.6432   ZZ=            -67.3009
   XY=              0.8977   XZ=              9.8353   YZ=              0.7928

 Normal termination of Gaussian 09 at Tue Feb 14 00:21:19 2017.
