 Gaussian 09, Revision A.02,
 Gaussian 09:  EM64L-G09RevA.02 11-Jun-2009

 -------------------
 #SP MP2/aug-cc-pVDZ
 -------------------

 -------------------------------
 Single Point calculation at MP2
 -------------------------------
 Symbolic Z-matrix:
 Charge =  0 Multiplicity = 1

                         Standard orientation:
 ---------------------------------------------------------------------
 Center     Atomic      Atomic             Coordinates (Angstroms)
 Number     Number       Type             X           Y           Z
 ---------------------------------------------------------------------
      1          1           0       -3.742016   -1.264281    0.222509
      2          6           0       -3.106813   -0.846785   -0.562291
      3          1           0       -3.638108   -0.030682   -1.061691
      4          1           0       -2.920019   -1.640887   -1.294091
      5          6           0       -1.782311   -0.426594    0.056909
      6          8           0       -1.231715   -1.130098    0.904709
      7          7           0       -1.295302    0.776602   -0.366091
      8          1           0       -1.796300    1.194806   -1.137991
      9          6           0        0.076201    1.303293   -0.178291
     10          1           0        0.199506    2.059892   -0.954891
     11          6           0        0.217006    1.962092    1.203309
     12          1           0        0.041801    1.236093    2.001609
     13          1           0        1.222808    2.376785    1.327109
     14          1           0       -0.511189    2.773297    1.309909
     15          6           0        1.237094    0.310785   -0.466191
     16          8           0        1.952996    0.500080   -1.446491
     17          7           0        1.474188   -0.654316    0.459509
     18          1           0        0.669486   -0.933211    1.017709
     19          6           0        2.529681   -1.629024    0.232509
     20          1           0        3.442285   -1.109330   -0.066491
     21          1           0        2.710978   -2.176225    1.161109
     22          1           0        2.273176   -2.344722   -0.560191
 ---------------------------------------------------------------------

 SCF Done:  E(RHF) =  -492.919599679     A.U. after   14 cycles
 E2 =    -0.1603946249D+01 EUMP2 =    -0.49452354592769D+03

 The electronic state is 1-A.
 Alpha  occ. eigenvalues --  -20.54771 -20.52627 -15.61492 -15.57336 -11.38170
 Alpha  occ. eigenvalues --  -11.35126 -11.29987 -11.25918 -11.25522 -11.23671
 Alpha  occ. eigenvalues --   -1.40101  -1.37602  -1.25174  -1.21723  -1.06069
 Alpha  occ. eigenvalues --   -1.00159  -0.94346  -0.88614  -0.81281  -0.76223
 Alpha  occ. eigenvalues --   -0.71987  -0.70744  -0.64904  -0.63659  -0.62703
 Alpha  occ. eigenvalues --   -0.61450  -0.60469  -0.58046  -0.57656  -0.56633
 Alpha  occ. eigenvalues --   -0.54396  -0.53776  -0.52260  -0.51533  -0.50833
 Alpha  occ. eigenvalues --   -0.44557  -0.43600  -0.39854  -0.37749
 Alpha virt. eigenvalues --    0.02613   0.03969   0.04271   0.04652   0.05628
 Alpha virt. eigenvalues --    0.06142   0.06459   0.06632   0.07528   0.08187
 Alpha virt. eigenvalues --    0.08784   0.10116   0.11115   0.11707   0.12140

 Mulliken atomic charges:
              1
     1  H    0.016223
     2  C    0.388472
     3  H   -0.115463
     4  H    0.057254
     5  C    0.661180
     6  O   -0.877166
     7  N   -0.327461
     8  H   -0.086714
     9  C   -0.033929
    10  H   -0.212492
    11  C    0.775164
    12  H   -0.099628
    13  H   -0.037082
    14  H   -0.083693
    15  C    0.895708
    16  O   -0.857930
    17  N   -0.522295
    18  H    0.028904
    19  C    0.797259
    20  H   -0.118423
    21  H   -0.187890
    22  H   -0.059996
 Sum of Mulliken atomic charges =   0.00000

 Dipole moment (field-independent basis, Debye):
    X=             -3.7290    Y=              0.9423    Z=              0.1633  Tot=              3.8497
 Quadrupole moment (field-independent basis, Debye-Ang):
   XX=            -58.1149   YY=            -58.5126   ZZ=            -66.0428
   XY=             -5.0649   XZ=             11.4408   YZ=              2.1918

 Normal termination of Gaussian 09 at Tue Feb 14 00:21:46 2017.
