 Gaussian 09, Revision A.02,
 Gaussian 09:  EM64L-G09RevA.02 11-Jun-2009

 -------------------
 #SP MP2/aug-cc-pVDZ
 -------------------

 -------------------------------
 Single Point calculation at MP2
 -------------------------------
 Symbolic Z-matrix:
 Charge =  0 Multiplicity = 1

                         Standard orientation:
 ---------------------------------------------------------------------
 Center     Atomic      Atomic             Coordinates (Angstroms)
 Number     Number       Type             X           Y           Z
 ---------------------------------------------------------------------
      1          1           0       -3.019958   -2.184931    0.275304
      2          6           0       -3.021668   -1.139431   -0.041996
      3          1           0       -3.749073   -0.607039    0.581304
      4          1           0       -3.346969   -1.077935   -1.085596
      5          6           0       -1.637374   -0.553118    0.202304
      6          8           0       -0.988771   -0.810311    1.206204
      7          7           0       -1.170582    0.274987   -0.790296
      8          1           0       -1.821185    0.536181   -1.519196
      9          6           0        0.018809    1.129199   -0.648096
     10          1           0        0.331107    1.378002   -1.669996
     11          6           0       -0.284604    2.412696    0.127704
     12          1           0       -0.573301    2.169493    1.153104
     13          1           0        0.601590    3.050905    0.171304
     14          1           0       -1.097609    2.965788   -0.356396
     15          6           0        1.203617    0.368811    0.001804
     16          8           0        1.815812    0.821417    0.955004
     17          7           0        1.615928   -0.729985   -0.707096
     18          1           0        0.925232   -1.144892   -1.319996
     19          6           0        2.616537   -1.626375   -0.146396
     20          1           0        3.385731   -1.020968    0.335004
     21          1           0        2.190343   -2.303979    0.605204
     22          1           0        3.068443   -2.215171   -0.949896
 ---------------------------------------------------------------------

 SCF Done:  E(RHF) =  -492.918649146     A.U. after   14 cycles
 E2 =    -0.1603206972D+01 EUMP2 =    -0.49452185611754D+03

 The electronic state is 1-A.
 Alpha  occ. eigenvalues --  -20.53887 -20.52361 -15.60899 -15.58252 -11.37179
 Alpha  occ. eigenvalues --  -11.35311 -11.29719 -11.25678 -11.25601 -11.22533
 Alpha  occ. eigenvalues --   -1.39527  -1.37633  -1.24884  -1.21841  -1.05450
 Alpha  occ. eigenvalues --   -0.99568  -0.95044  -0.87225  -0.81121  -0.76627
 Alpha  occ. eigenvalues --   -0.71095  -0.69744  -0.64814  -0.64449  -0.62192
 Alpha  occ. eigenvalues --   -0.60925  -0.60053  -0.58693  -0.57673  -0.55945
 Alpha  occ. eigenvalues --   -0.53732  -0.52535  -0.52156  -0.51553  -0.50687
 Alpha  occ. eigenvalues --   -0.43197  -0.42194  -0.40060  -0.38500
 Alpha virt. eigenvalues --    0.02136   0.03707   0.03752   0.04656   0.05735
 Alpha virt. eigenvalues --    0.06164   0.06253   0.06600   0.07180   0.08520
 Alpha virt. eigenvalues --    0.08781   0.09139   0.10924   0.12169   0.12685

 Mulliken atomic charges:
              1
     1  H    0.017269
     2  C    0.433854
     3  H    0.054834
     4  H   -0.114786
     5  C    0.586135
     6  O   -0.829941
     7  N   -0.263541
     8  H   -0.151363
     9  C   -0.276757
    10  H   -0.164502
    11  C    0.779167
    12  H   -0.033296
    13  H   -0.048463
    14  H   -0.035059
    15  C    1.149246
    16  O   -0.847926
    17  N   -0.585293
    18  H   -0.055916
    19  C    0.745482
    20  H   -0.112450
    21  H   -0.067971
    22  H   -0.178723
 Sum of Mulliken atomic charges =   0.00000

 Dipole moment (field-independent basis, Debye):
    X=             -3.6617    Y=             -0.7173    Z=             -5.4279  Tot=              6.5867
 Quadrupole moment (field-independent basis, Debye-Ang):
   XX=            -55.8881   YY=            -58.1837   ZZ=            -64.4202
   XY=             -4.4579   XZ=              0.0918   YZ=             -0.1288

 Normal termination of Gaussian 09 at Tue Feb 14 00:15:02 2017.
