 Gaussian 09, Revision A.02,
 Gaussian 09:  EM64L-G09RevA.02 11-Jun-2009

 -------------------
 #SP MP2/aug-cc-pVDZ
 -------------------

 -------------------------------
 Single Point calculation at MP2
 -------------------------------
 Symbolic Z-matrix:
 Charge =  0 Multiplicity = 1

                         Standard orientation:
 ---------------------------------------------------------------------
 Center     Atomic      Atomic             Coordinates (Angstroms)
 Number     Number       Type             X           Y           Z
 ---------------------------------------------------------------------
      1          1           0       -3.675110   -1.410996    0.363817
      2          6           0       -2.951009   -1.143598   -0.407283
      3          1           0       -3.476208   -0.734096   -1.277983
      4          1           0       -2.419412   -2.050200   -0.719983
      5          6           0       -1.943206   -0.167101    0.175817
      6          8           0       -1.777905   -0.025802    1.374017
      7          7           0       -1.281803    0.621896   -0.774183
      8          1           0       -1.449004    0.284997   -1.716683
      9          6           0        0.122998    0.991592   -0.589183
     10          1           0        0.488399    1.306091   -1.573983
     11          6           0        0.251702    2.178891    0.385917
     12          1           0       -0.119699    1.885593    1.369717
     13          1           0        1.290103    2.517188    0.481517
     14          1           0       -0.349795    3.017293    0.022117
     15          6           0        0.996794   -0.211111   -0.134883
     16          8           0        0.535091   -1.298709    0.176517
     17          7           0        2.342495    0.010085   -0.266283
     18          1           0        2.658498    0.955884   -0.429083
     19          6           0        3.329992   -0.967619    0.162417
     20          1           0        2.842389   -1.942917    0.179517
     21          1           0        4.166392   -0.990921   -0.543483
     22          1           0        3.717492   -0.752020    1.166717
 ---------------------------------------------------------------------

 SCF Done:  E(RHF) =  -492.911793410     A.U. after   15 cycles
 E2 =    -0.1603254788D+01 EUMP2 =    -0.49451504819821D+03

 The electronic state is 1-A.
 Alpha  occ. eigenvalues --  -20.53396 -20.52286 -15.59760 -15.58779 -11.36172
 Alpha  occ. eigenvalues --  -11.35363 -11.29918 -11.26978 -11.23616 -11.23428
 Alpha  occ. eigenvalues --   -1.39194  -1.37279  -1.23577  -1.22835  -1.05037
 Alpha  occ. eigenvalues --   -0.98493  -0.95456  -0.87677  -0.79840  -0.76902
 Alpha  occ. eigenvalues --   -0.70651  -0.69492  -0.65145  -0.62999  -0.61996
 Alpha  occ. eigenvalues --   -0.61762  -0.59314  -0.58285  -0.56290  -0.55813
 Alpha  occ. eigenvalues --   -0.54893  -0.53466  -0.53182  -0.50953  -0.48986
 Alpha  occ. eigenvalues --   -0.44152  -0.41431  -0.39629  -0.38642
 Alpha virt. eigenvalues --    0.02445   0.03693   0.04281   0.04660   0.05751
 Alpha virt. eigenvalues --    0.05986   0.06161   0.06962   0.07730   0.08330
 Alpha virt. eigenvalues --    0.08693   0.09165   0.11330   0.12035   0.12123

 Mulliken atomic charges:
              1
     1  H   -0.045751
     2  C    0.322321
     3  H   -0.017168
     4  H    0.079052
     5  C    0.801928
     6  O   -0.847857
     7  N   -0.513025
     8  H   -0.032570
     9  C   -0.102718
    10  H   -0.152482
    11  C    0.709957
    12  H   -0.020357
    13  H   -0.123523
    14  H   -0.037699
    15  C    1.029296
    16  O   -0.793601
    17  N   -0.510151
    18  H   -0.102643
    19  C    0.727263
    20  H   -0.127899
    21  H   -0.159491
    22  H   -0.082884
 Sum of Mulliken atomic charges =   0.00000

 Dipole moment (field-independent basis, Debye):
    X=              2.6144    Y=              2.0265    Z=             -4.1833  Tot=              5.3331
 Quadrupole moment (field-independent basis, Debye-Ang):
   XX=            -50.5803   YY=            -61.7381   ZZ=            -63.2144
   XY=              4.7996   XZ=              6.2489   YZ=              0.4184

 Normal termination of Gaussian 09 at Tue Feb 14 00:23:29 2017.
