 Gaussian 09, Revision A.02,
 Gaussian 09:  EM64L-G09RevA.02 11-Jun-2009

 -------------------
 #SP MP2/aug-cc-pVDZ
 -------------------

 -------------------------------
 Single Point calculation at MP2
 -------------------------------
 Symbolic Z-matrix:
 Charge =  0 Multiplicity = 1

                         Standard orientation:
 ---------------------------------------------------------------------
 Center     Atomic      Atomic             Coordinates (Angstroms)
 Number     Number       Type             X           Y           Z
 ---------------------------------------------------------------------
      1          1           0       -3.652304   -1.342785    0.584618
      2          6           0       -3.008202   -1.074089   -0.254182
      3          1           0       -3.606899   -0.602085   -1.041382
      4          1           0       -2.561807   -1.989291   -0.660882
      5          6           0       -1.891297   -0.174295    0.244618
      6          8           0       -1.558097   -0.118197    1.416518
      7          7           0       -1.315293    0.638502   -0.731882
      8          1           0       -1.556594    0.339803   -1.670382
      9          6           0        0.095909    1.009694   -0.617882
     10          1           0        0.412411    1.321793   -1.620682
     11          6           0        0.269716    2.201893    0.341818
     12          1           0        0.008614    1.902895    1.358818
     13          1           0        1.292218    2.598388    0.332518
     14          1           0       -0.399280    3.011297    0.035118
     15          6           0        0.972903   -0.220210   -0.242782
     16          8           0        0.527296   -1.359208   -0.228382
     17          7           0        2.307704    0.049182   -0.117982
     18          1           0        2.596009    1.010381   -0.008782
     19          6           0        3.267798   -0.986923    0.229218
     20          1           0        2.862993   -1.943021   -0.104382
     21          1           0        4.219299   -0.796028   -0.276882
     22          1           0        3.443898   -1.042324    1.311418
 ---------------------------------------------------------------------

 SCF Done:  E(RHF) =  -492.915330037     A.U. after   15 cycles
 E2 =    -0.1603255276D+01 EUMP2 =    -0.49451858531325D+03

 The electronic state is 1-A.
 Alpha  occ. eigenvalues --  -20.53165 -20.52445 -15.59602 -15.58756 -11.36047
 Alpha  occ. eigenvalues --  -11.35424 -11.29848 -11.26809 -11.23631 -11.23621
 Alpha  occ. eigenvalues --   -1.39110  -1.37341  -1.23405  -1.22905  -1.05036
 Alpha  occ. eigenvalues --   -0.98535  -0.95280  -0.87934  -0.79750  -0.76936
 Alpha  occ. eigenvalues --   -0.70795  -0.69572  -0.65046  -0.63257  -0.61743
 Alpha  occ. eigenvalues --   -0.61526  -0.59479  -0.58142  -0.56125  -0.55971
 Alpha  occ. eigenvalues --   -0.54824  -0.53742  -0.53046  -0.50989  -0.48984
 Alpha  occ. eigenvalues --   -0.43548  -0.41625  -0.39705  -0.38960
 Alpha virt. eigenvalues --    0.02639   0.03708   0.04398   0.04693   0.05802
 Alpha virt. eigenvalues --    0.06041   0.06197   0.06794   0.07700   0.08256
 Alpha virt. eigenvalues --    0.08898   0.09103   0.11649   0.11758   0.12772

 Mulliken atomic charges:
              1
     1  H   -0.037761
     2  C    0.322817
     3  H   -0.018756
     4  H    0.083519
     5  C    0.789999
     6  O   -0.865313
     7  N   -0.517546
     8  H   -0.031387
     9  C    0.076472
    10  H   -0.124866
    11  C    0.679957
    12  H   -0.002812
    13  H   -0.131807
    14  H   -0.046053
    15  C    0.905196
    16  O   -0.808236
    17  N   -0.526101
    18  H   -0.094516
    19  C    0.717920
    20  H   -0.129393
    21  H   -0.171483
    22  H   -0.069851
 Sum of Mulliken atomic charges =   0.00000

 Dipole moment (field-independent basis, Debye):
    X=              1.9846    Y=              2.4353    Z=             -3.3215  Tot=              4.5719
 Quadrupole moment (field-independent basis, Debye-Ang):
   XX=            -49.2756   YY=            -62.0865   ZZ=            -63.4234
   XY=              4.2851   XZ=              6.7532   YZ=             -0.3597

 Normal termination of Gaussian 09 at Tue Feb 14 00:11:48 2017.
