 Gaussian 09, Revision A.02,
 Gaussian 09:  EM64L-G09RevA.02 11-Jun-2009

 ----------------------------------------------------------------------
 # b3lyp/6-31G* Opt=(ModRedundant, maxcycles=1000, calcfc) geom=nocrowd
 ----------------------------------------------------------------------

 ------------------
 Phi Psi fixed scan
 ------------------
 Symbolic Z-matrix:
 Charge =  0 Multiplicity = 1

 SCF Done:  E(RB3LYP) =  -990.402444641     A.U. after   15 cycles

  Exact polarizability:   0.000   0.000   0.000   0.000   0.000   0.000
 Approx polarizability: 256.026   0.587 251.828  14.239  19.141 174.722

 SCF Done:  E(RB3LYP) =  -990.435286551     A.U. after   14 cycles
 SCF Done:  E(RB3LYP) =  -990.456879303     A.U. after   15 cycles
 SCF Done:  E(RB3LYP) =  -990.469047453     A.U. after   13 cycles
 SCF Done:  E(RB3LYP) =  -990.471519672     A.U. after   12 cycles
 SCF Done:  E(RB3LYP) =  -990.474330678     A.U. after   12 cycles
 SCF Done:  E(RB3LYP) =  -990.476519109     A.U. after   12 cycles
 SCF Done:  E(RB3LYP) =  -990.478955095     A.U. after   13 cycles
 SCF Done:  E(RB3LYP) =  -990.477430208     A.U. after   15 cycles
 SCF Done:  E(RB3LYP) =  -990.482324232     A.U. after   13 cycles
 SCF Done:  E(RB3LYP) =  -990.490845780     A.U. after   10 cycles
 SCF Done:  E(RB3LYP) =  -990.490850358     A.U. after   10 cycles
 SCF Done:  E(RB3LYP) =  -990.490852083     A.U. after    9 cycles
 SCF Done:  E(RB3LYP) =  -990.490853586     A.U. after    8 cycles
 SCF Done:  E(RB3LYP) =  -990.490854185     A.U. after    8 cycles
 SCF Done:  E(RB3LYP) =  -990.490854584     A.U. after    7 cycles
 SCF Done:  E(RB3LYP) =  -990.490854687     A.U. after    7 cycles
 SCF Done:  E(RB3LYP) =  -990.490854698     A.U. after    6 cycles
 SCF Done:  E(RB3LYP) =  -990.490854674     A.U. after    6 cycles
 SCF Done:  E(RB3LYP) =  -990.490854650     A.U. after    6 cycles
 Optimization completed.
    -- Stationary point found.

                         Standard orientation:
 ---------------------------------------------------------------------
 Center     Atomic      Atomic             Coordinates (Angstroms)
 Number     Number       Type             X           Y           Z
 ---------------------------------------------------------------------
      1          1           0        6.103484   -2.729486   -1.121792
      2          6           0        5.020895   -2.692886   -0.967091
      3          1           0        4.731503   -3.622544   -0.466409
      4          1           0        4.522000   -2.642285   -1.939705
      5          6           0        4.694419   -1.521297   -0.051735
      6          8           0        5.216297   -1.394859    1.053326
      7          7           0        3.796636   -0.624368   -0.546042
      8          1           0        3.262893   -0.810514   -1.388338
      9          6           0        3.279751    0.464008    0.260073
     10          1           0        3.062785    0.082771    1.267182
     11          6           0        4.295196    1.618188    0.378510
     12          1           0        4.514594    2.038622   -0.608131
     13          1           0        3.927788    2.423896    1.024596
     14          1           0        5.216241    1.223880    0.813649
     15          6           0        1.958685    0.906994   -0.388609
     16          8           0        1.594410    0.467905   -1.469962
     17          7           0        1.290465    1.931951    0.267013
     18          1           0        1.712153    2.124128    1.169469
     19          6           0       -0.178097    1.966525    0.358240
     20          1           0       -0.416273    2.418279    1.327715
     21          6           0       -0.747984    2.857002   -0.763495
     22          1           0       -0.528543    2.406697   -1.735547
     23          1           0       -1.829964    3.003596   -0.678514
     24          1           0       -0.271529    3.840846   -0.725346
     25          6           0       -0.813272    0.548899    0.365051
     26          8           0       -0.152387   -0.477681    0.472648
     27          7           0       -2.171875    0.545661    0.448643
     28          1           0       -2.732213    1.367340    0.247982
     29          6           0       -2.928014   -0.694719    0.456148
     30          1           0       -2.426893   -1.410206   -0.207869
     31          6           0       -3.005281   -1.306566    1.867863
     32          1           0       -3.513074   -0.621875    2.554945
     33          1           0       -3.546968   -2.259290    1.863670
     34          1           0       -1.990343   -1.488843    2.229687
     35          6           0       -4.325123   -0.361777   -0.096979
     36          8           0       -4.710193    0.801247   -0.202152
     37          7           0       -5.085152   -1.437457   -0.428482
     38          1           0       -4.677775   -2.357986   -0.343126
     39          6           0       -6.442762   -1.322560   -0.935985
     40          1           0       -6.692221   -0.261513   -0.965589
     41          1           0       -6.521182   -1.737814   -1.947153
     42          1           0       -7.152468   -1.841982   -0.282112
 ---------------------------------------------------------------------

 The electronic state is 1-A.
 Alpha  occ. eigenvalues --  -19.13221 -19.11942 -19.11785 -19.09093 -14.38119
 Alpha  occ. eigenvalues --  -14.35983 -14.35981 -14.33971 -10.30332 -10.29094
 Alpha  occ. eigenvalues --  -10.28952 -10.27036 -10.24823 -10.24533 -10.23183
 Alpha  occ. eigenvalues --  -10.22750 -10.19277 -10.18748 -10.17816 -10.17788
 Alpha  occ. eigenvalues --   -1.05271  -1.04419  -1.03080  -1.01028  -0.93904
 Alpha  occ. eigenvalues --   -0.92693  -0.92580  -0.90555  -0.79588  -0.77347
 Alpha  occ. eigenvalues --   -0.75176  -0.72084  -0.71316  -0.67123  -0.65680
 Alpha  occ. eigenvalues --   -0.63518  -0.60682  -0.58588  -0.58115  -0.56265
 Alpha  occ. eigenvalues --   -0.54431  -0.52695  -0.49151  -0.49043  -0.48039
 Alpha  occ. eigenvalues --   -0.46930  -0.46646  -0.45999  -0.44360  -0.44190
 Alpha  occ. eigenvalues --   -0.43904  -0.43081  -0.42932  -0.42284  -0.40849
 Alpha  occ. eigenvalues --   -0.40760  -0.40581  -0.40382  -0.39373  -0.39063
 Alpha  occ. eigenvalues --   -0.38486  -0.38088  -0.37870  -0.37563  -0.37015
 Alpha  occ. eigenvalues --   -0.36215  -0.35805  -0.34565  -0.32933  -0.27813
 Alpha  occ. eigenvalues --   -0.27376  -0.27096  -0.25894  -0.25596  -0.24541
 Alpha  occ. eigenvalues --   -0.23539  -0.23040
 Alpha virt. eigenvalues --    0.00894   0.01515   0.02028   0.04454   0.05835
 Alpha virt. eigenvalues --    0.06319   0.09413   0.10775   0.11059   0.13129
 Alpha virt. eigenvalues --    0.13235   0.13365   0.13697   0.14514   0.15069

 Mulliken atomic charges:
              1
     1  H    0.179285
     2  C   -0.532739
     3  H    0.179851
     4  H    0.147990
     5  C    0.595985
     6  O   -0.526617
     7  N   -0.603921
     8  H    0.349077
     9  C   -0.037324
    10  H    0.176767
    11  C   -0.449912
    12  H    0.157246
    13  H    0.131688
    14  H    0.193752
    15  C    0.627962
    16  O   -0.515210
    17  N   -0.596626
    18  H    0.324764
    19  C   -0.074560
    20  H    0.165467
    21  C   -0.447905
    22  H    0.188488
    23  H    0.147382
    24  H    0.160229
    25  C    0.630431
    26  O   -0.524120
    27  N   -0.627662
    28  H    0.357563
    29  C   -0.035043
    30  H    0.176019
    31  C   -0.442921
    32  H    0.159093
    33  H    0.136399
    34  H    0.189912
    35  C    0.606040
    36  O   -0.531300
    37  N   -0.591748
    38  H    0.333137
    39  C   -0.314011
    40  H    0.208130
    41  H    0.165303
    42  H    0.163660
 Sum of Mulliken atomic charges =   0.00000

 Dipole moment (field-independent basis, Debye):
    X=             -5.6812    Y=             -0.4160    Z=             -0.1108  Tot=              5.6975
 Quadrupole moment (field-independent basis, Debye-Ang):
   XX=           -120.0196   YY=           -107.1382   ZZ=           -120.1784
   XY=             20.7913   XZ=             -7.0529   YZ=              9.8688

 Normal termination of Gaussian 09 at Thu Dec 29 21:37:23 2016.
