 Gaussian 09, Revision A.02,
 Gaussian 09:  EM64L-G09RevA.02 11-Jun-2009

 ----------------------------------------------------------------------
 # b3lyp/6-31G* Opt=(ModRedundant, maxcycles=1000, calcfc) geom=nocrowd
 ----------------------------------------------------------------------

 ------------------
 Phi Psi fixed scan
 ------------------
 Symbolic Z-matrix:
 Charge =  0 Multiplicity = 1

 SCF Done:  E(RB3LYP) =  -990.458399153     A.U. after   15 cycles

  Exact polarizability:   0.000   0.000   0.000   0.000   0.000   0.000
 Approx polarizability: 232.049   4.023 230.008  42.620  -8.605 210.373

 SCF Done:  E(RB3LYP) =  -990.472164680     A.U. after   12 cycles
 SCF Done:  E(RB3LYP) =  -990.486175586     A.U. after   14 cycles
 SCF Done:  E(RB3LYP) =  -990.491756418     A.U. after   13 cycles
 SCF Done:  E(RB3LYP) =  -990.388308860     A.U. after   16 cycles
 SCF Done:  E(RB3LYP) =  -990.430046679     A.U. after   16 cycles
 SCF Done:  E(RB3LYP) =  -990.491756397     A.U. after   16 cycles
 SCF Done:  E(RB3LYP) =  -990.493103611     A.U. after   12 cycles
 SCF Done:  E(RB3LYP) =  -990.494363303     A.U. after   13 cycles
 SCF Done:  E(RB3LYP) =  -990.494658203     A.U. after   13 cycles
 SCF Done:  E(RB3LYP) =  -990.496363439     A.U. after   10 cycles
 SCF Done:  E(RB3LYP) =  -990.496365495     A.U. after    9 cycles
 SCF Done:  E(RB3LYP) =  -990.496366085     A.U. after    8 cycles
 SCF Done:  E(RB3LYP) =  -990.496366318     A.U. after    8 cycles
 SCF Done:  E(RB3LYP) =  -990.496366465     A.U. after    7 cycles
 SCF Done:  E(RB3LYP) =  -990.496366570     A.U. after    7 cycles
 SCF Done:  E(RB3LYP) =  -990.496366668     A.U. after    7 cycles
 SCF Done:  E(RB3LYP) =  -990.496366802     A.U. after    7 cycles
 SCF Done:  E(RB3LYP) =  -990.496366877     A.U. after    7 cycles
 SCF Done:  E(RB3LYP) =  -990.496366919     A.U. after    6 cycles
 Optimization completed.
    -- Stationary point found.

                         Standard orientation:
 ---------------------------------------------------------------------
 Center     Atomic      Atomic             Coordinates (Angstroms)
 Number     Number       Type             X           Y           Z
 ---------------------------------------------------------------------
      1          1           0       -4.439643   -3.604666    1.153114
      2          6           0       -3.434816   -3.277228    0.870716
      3          1           0       -2.992258   -4.069523    0.258120
      4          1           0       -2.830677   -3.149650    1.774080
      5          6           0       -3.547783   -2.014285    0.030469
      6          8           0       -4.264217   -1.952655   -0.964989
      7          7           0       -2.798043   -0.957694    0.454416
      8          1           0       -2.152626   -1.029475    1.232047
      9          6           0       -2.728304    0.278515   -0.297699
     10          1           0       -2.720725    0.025235   -1.365321
     11          6           0       -3.938496    1.193204   -0.021465
     12          1           0       -3.975063    1.466859    1.037965
     13          1           0       -3.891390    2.112325   -0.616767
     14          1           0       -4.851779    0.653868   -0.284435
     15          6           0       -1.410735    0.970523    0.096679
     16          8           0       -0.834050    0.693136    1.145442
     17          7           0       -1.001700    1.939675   -0.769979
     18          1           0       -1.542777    2.020633   -1.620730
     19          6           0        0.246102    2.725854   -0.757086
     20          1           0        0.489733    2.891264   -1.814762
     21          6           0        0.010459    4.088171   -0.089055
     22          1           0       -0.259006    3.947485    0.962091
     23          1           0        0.917605    4.692471   -0.134265
     24          1           0       -0.806948    4.616337   -0.591065
     25          6           0        1.519221    2.066135   -0.162053
     26          8           0        2.414797    2.786954    0.271166
     27          7           0        1.641919    0.723054   -0.256330
     28          1           0        0.858154    0.125564   -0.483231
     29          6           0        2.786899    0.019309    0.292065
     30          1           0        3.694784    0.541378   -0.031451
     31          6           0        2.757382   -0.028578    1.833722
     32          1           0        1.845422   -0.526380    2.176200
     33          1           0        3.626616   -0.567163    2.228569
     34          1           0        2.770498    0.992254    2.222266
     35          6           0        2.747135   -1.401056   -0.291902
     36          8           0        1.693498   -1.905322   -0.672791
     37          7           0        3.942895   -2.048997   -0.312904
     38          1           0        4.763681   -1.551470    0.002155
     39          6           0        4.089407   -3.424819   -0.757316
     40          1           0        3.105632   -3.770231   -1.076985
     41          1           0        4.785599   -3.492889   -1.600929
     42          1           0        4.450620   -4.067872    0.053822
 ---------------------------------------------------------------------

 The electronic state is 1-A.
 Alpha  occ. eigenvalues --  -19.13072 -19.12391 -19.10951 -19.09798 -14.38004
 Alpha  occ. eigenvalues --  -14.37509 -14.35180 -14.34937 -10.30192 -10.29562
 Alpha  occ. eigenvalues --  -10.28719 -10.27785 -10.24900 -10.23811 -10.23791
 Alpha  occ. eigenvalues --  -10.22716 -10.18522 -10.18340 -10.18101 -10.17878
 Alpha  occ. eigenvalues --   -1.05119  -1.04415  -1.02895  -1.01814  -0.94039
 Alpha  occ. eigenvalues --   -0.93236  -0.91911  -0.91426  -0.79315  -0.77289
 Alpha  occ. eigenvalues --   -0.75793  -0.71988  -0.71510  -0.67071  -0.65786
 Alpha  occ. eigenvalues --   -0.63437  -0.60734  -0.59158  -0.57817  -0.57531
 Alpha  occ. eigenvalues --   -0.54725  -0.52972  -0.49776  -0.48344  -0.48071
 Alpha  occ. eigenvalues --   -0.47077  -0.46378  -0.45897  -0.45258  -0.44913
 Alpha  occ. eigenvalues --   -0.43687  -0.43230  -0.42664  -0.41659  -0.41543
 Alpha  occ. eigenvalues --   -0.40919  -0.40071  -0.39987  -0.39302  -0.38724
 Alpha  occ. eigenvalues --   -0.38670  -0.38275  -0.37219  -0.37080  -0.36872
 Alpha  occ. eigenvalues --   -0.36584  -0.36252  -0.34859  -0.33822  -0.27704
 Alpha  occ. eigenvalues --   -0.27176  -0.26664  -0.26449  -0.24865  -0.24565
 Alpha  occ. eigenvalues --   -0.24033  -0.23748
 Alpha virt. eigenvalues --    0.00843   0.01490   0.02585   0.03915   0.06023
 Alpha virt. eigenvalues --    0.06443   0.09652   0.11326   0.11807   0.12578
 Alpha virt. eigenvalues --    0.13099   0.13414   0.13840   0.14705   0.15046

 Mulliken atomic charges:
              1
     1  H    0.181147
     2  C   -0.532776
     3  H    0.184617
     4  H    0.148218
     5  C    0.598711
     6  O   -0.524688
     7  N   -0.603113
     8  H    0.346684
     9  C   -0.032011
    10  H    0.168224
    11  C   -0.442602
    12  H    0.159718
    13  H    0.136128
    14  H    0.190513
    15  C    0.593162
    16  O   -0.528582
    17  N   -0.613518
    18  H    0.335699
    19  C   -0.059941
    20  H    0.170193
    21  C   -0.425116
    22  H    0.169680
    23  H    0.181663
    24  H    0.132459
    25  C    0.648856
    26  O   -0.541218
    27  N   -0.608430
    28  H    0.355952
    29  C   -0.037389
    30  H    0.162362
    31  C   -0.444738
    32  H    0.173561
    33  H    0.131934
    34  H    0.190927
    35  C    0.608152
    36  O   -0.530154
    37  N   -0.593196
    38  H    0.330846
    39  C   -0.313337
    40  H    0.207275
    41  H    0.162155
    42  H    0.161974
 Sum of Mulliken atomic charges =   0.00000

 Dipole moment (field-independent basis, Debye):
    X=              3.3497    Y=             -0.5261    Z=             -0.3656  Tot=              3.4104
 Quadrupole moment (field-independent basis, Debye-Ang):
   XX=           -113.8123   YY=           -117.0294   ZZ=           -118.0767
   XY=            -23.8482   XZ=             -6.8993   YZ=            -12.8628

 Normal termination of Gaussian 09 at Fri Dec 30 00:03:35 2016.
