 Gaussian 09, Revision A.02,
 Gaussian 09:  EM64L-G09RevA.02 11-Jun-2009

 ----------------------------------------------------------------------
 # b3lyp/6-31G* Opt=(ModRedundant, maxcycles=1000, calcfc) geom=nocrowd
 ----------------------------------------------------------------------

 ------------------
 Phi Psi fixed scan
 ------------------
 Symbolic Z-matrix:
 Charge =  0 Multiplicity = 1

 SCF Done:  E(RB3LYP) =  -990.338575170     A.U. after   19 cycles

  Exact polarizability:   0.000   0.000   0.000   0.000   0.000   0.000
 Approx polarizability: 261.619   0.335 241.339  10.033 -40.941 193.122

 SCF Done:  E(RB3LYP) =  -990.372540783     A.U. after   15 cycles
 SCF Done:  E(RB3LYP) =  -990.421222905     A.U. after   14 cycles
 SCF Done:  E(RB3LYP) =  -990.452827403     A.U. after   14 cycles
 SCF Done:  E(RB3LYP) =  -990.465957397     A.U. after   12 cycles
 SCF Done:  E(RB3LYP) =  -990.456385591     A.U. after   14 cycles
 SCF Done:  E(RB3LYP) =  -990.469864715     A.U. after   13 cycles
 SCF Done:  E(RB3LYP) =  -990.473789624     A.U. after   12 cycles
 SCF Done:  E(RB3LYP) =  -990.478153804     A.U. after   13 cycles
 SCF Done:  E(RB3LYP) =  -990.480319850     A.U. after   12 cycles
 SCF Done:  E(RB3LYP) =  -990.484870929     A.U. after   12 cycles
 SCF Done:  E(RB3LYP) =  -990.484876696     A.U. after   10 cycles
 SCF Done:  E(RB3LYP) =  -990.484887131     A.U. after    9 cycles
 SCF Done:  E(RB3LYP) =  -990.484905305     A.U. after   10 cycles
 SCF Done:  E(RB3LYP) =  -990.484907211     A.U. after    9 cycles
 SCF Done:  E(RB3LYP) =  -990.484908911     A.U. after    9 cycles
 SCF Done:  E(RB3LYP) =  -990.484909411     A.U. after    9 cycles
 SCF Done:  E(RB3LYP) =  -990.484909457     A.U. after    7 cycles
 SCF Done:  E(RB3LYP) =  -990.484909554     A.U. after    7 cycles
 SCF Done:  E(RB3LYP) =  -990.484909586     A.U. after    6 cycles
 Optimization completed.
    -- Stationary point found.

                         Standard orientation:
 ---------------------------------------------------------------------
 Center     Atomic      Atomic             Coordinates (Angstroms)
 Number     Number       Type             X           Y           Z
 ---------------------------------------------------------------------
      1          1           0       -5.266468   -2.122525    1.911687
      2          6           0       -5.576364   -2.311425    0.879446
      3          1           0       -6.666380   -2.241237    0.814357
      4          1           0       -5.298763   -3.334474    0.605719
      5          6           0       -4.960950   -1.350127   -0.127146
      6          8           0       -5.244111   -1.389014   -1.322178
      7          7           0       -4.084781   -0.443715    0.388526
      8          1           0       -3.752045   -0.500581    1.345250
      9          6           0       -3.323934    0.452310   -0.458687
     10          1           0       -2.988531   -0.106634   -1.343199
     11          6           0       -4.175881    1.647515   -0.932216
     12          1           0       -4.509224    2.242362   -0.075841
     13          1           0       -3.623514    2.303232   -1.615282
     14          1           0       -5.049265    1.260462   -1.462248
     15          6           0       -2.091370    0.894689    0.357726
     16          8           0       -1.996004    0.636528    1.546011
     17          7           0       -1.209679    1.708222   -0.338200
     18          1           0       -1.482126    1.777330   -1.312554
     19          6           0        0.262680    1.722007   -0.224157
     20          1           0        0.628917    2.024182   -1.210136
     21          6           0        0.692219    2.779202    0.816547
     22          1           0        0.302940    2.495693    1.798528
     23          1           0        1.782999    2.859324    0.877305
     24          1           0        0.280515    3.756533    0.547455
     25          6           0        0.936872    0.379157    0.150476
     26          8           0        0.429945   -0.507554    0.820602
     27          7           0        2.193612    0.268223   -0.375385
     28          1           0        2.661178    1.044593   -0.833774
     29          6           0        3.083286   -0.814624    0.003108
     30          1           0        2.910528   -1.051363    1.060989
     31          6           0        2.822499   -2.084456   -0.829592
     32          1           0        2.994106   -1.887821   -1.892870
     33          1           0        3.473346   -2.909905   -0.519509
     34          1           0        1.783725   -2.392240   -0.686669
     35          6           0        4.519596   -0.293150   -0.184165
     36          8           0        4.747748    0.744521   -0.803353
     37          7           0        5.490683   -1.069465    0.362795
     38          1           0        5.213778   -1.892805    0.878556
     39          6           0        6.907311   -0.759822    0.256884
     40          1           0        6.999156    0.158775   -0.323348
     41          1           0        7.350892   -0.604949    1.246961
     42          1           0        7.448981   -1.564302   -0.253538
 ---------------------------------------------------------------------

 The electronic state is 1-A.
 Alpha  occ. eigenvalues --  -19.13271 -19.12064 -19.11545 -19.09280 -14.38158
 Alpha  occ. eigenvalues --  -14.36370 -14.35899 -14.34181 -10.30378 -10.29108
 Alpha  occ. eigenvalues --  -10.29015 -10.27227 -10.24977 -10.24516 -10.23237
 Alpha  occ. eigenvalues --  -10.23049 -10.19247 -10.18619 -10.18058 -10.17908
 Alpha  occ. eigenvalues --   -1.05281  -1.04238  -1.03232  -1.01219  -0.93942
 Alpha  occ. eigenvalues --   -0.92926  -0.92474  -0.90754  -0.79714  -0.77450
 Alpha  occ. eigenvalues --   -0.75374  -0.72112  -0.71474  -0.67179  -0.65782
 Alpha  occ. eigenvalues --   -0.63430  -0.60779  -0.58700  -0.58020  -0.56561
 Alpha  occ. eigenvalues --   -0.54500  -0.52411  -0.49288  -0.49040  -0.47932
 Alpha  occ. eigenvalues --   -0.47045  -0.46672  -0.45890  -0.44822  -0.44462
 Alpha  occ. eigenvalues --   -0.44038  -0.43397  -0.42683  -0.42137  -0.41140
 Alpha  occ. eigenvalues --   -0.40915  -0.40693  -0.40309  -0.39336  -0.38903
 Alpha  occ. eigenvalues --   -0.38226  -0.38206  -0.37829  -0.37633  -0.37174
 Alpha  occ. eigenvalues --   -0.36346  -0.35759  -0.34982  -0.33178  -0.28191
 Alpha  occ. eigenvalues --   -0.27354  -0.27168  -0.26123  -0.25523  -0.24184
 Alpha  occ. eigenvalues --   -0.23339  -0.23030
 Alpha virt. eigenvalues --    0.00654   0.01173   0.02777   0.04239   0.05574
 Alpha virt. eigenvalues --    0.05773   0.09491   0.10666   0.11010   0.12756
 Alpha virt. eigenvalues --    0.13154   0.13396   0.13898   0.14519   0.14705

 Mulliken atomic charges:
              1
     1  H    0.149636
     2  C   -0.532756
     3  H    0.179904
     4  H    0.180240
     5  C    0.594350
     6  O   -0.526833
     7  N   -0.602782
     8  H    0.350359
     9  C   -0.039669
    10  H    0.169126
    11  C   -0.447524
    12  H    0.158784
    13  H    0.132082
    14  H    0.192993
    15  C    0.614792
    16  O   -0.491214
    17  N   -0.611096
    18  H    0.325422
    19  C   -0.060357
    20  H    0.147893
    21  C   -0.439876
    22  H    0.192218
    23  H    0.148336
    24  H    0.157923
    25  C    0.613118
    26  O   -0.504161
    27  N   -0.620099
    28  H    0.350496
    29  C   -0.037380
    30  H    0.173871
    31  C   -0.441968
    32  H    0.159243
    33  H    0.135168
    34  H    0.191116
    35  C    0.605370
    36  O   -0.531440
    37  N   -0.591365
    38  H    0.333251
    39  C   -0.313967
    40  H    0.207904
    41  H    0.164881
    42  H    0.164009
 Sum of Mulliken atomic charges =   0.00000

 Dipole moment (field-independent basis, Debye):
    X=              5.9184    Y=             -0.1409    Z=              0.3362  Tot=              5.9296
 Quadrupole moment (field-independent basis, Debye-Ang):
   XX=           -110.0141   YY=           -111.9519   ZZ=           -123.2707
   XY=            -17.8524   XZ=             -1.6260   YZ=             -7.9884

 Normal termination of Gaussian 09 at Fri Dec 30 01:12:33 2016.
