 Gaussian 09, Revision A.02,
 Gaussian 09:  EM64L-G09RevA.02 11-Jun-2009

 ----------------------------------------------------------------------
 # b3lyp/6-31G* Opt=(ModRedundant, maxcycles=1000, calcfc) geom=nocrowd
 ----------------------------------------------------------------------

 ------------------
 Phi Psi fixed scan
 ------------------
 Symbolic Z-matrix:
 Charge =  0 Multiplicity = 1

 SCF Done:  E(RB3LYP) =  -990.465885968     A.U. after   15 cycles

  Exact polarizability:   0.000   0.000   0.000   0.000   0.000   0.000
 Approx polarizability: 216.382  -6.154 202.041  14.041 -20.847 251.413

 SCF Done:  E(RB3LYP) =  -990.477019728     A.U. after   13 cycles
 SCF Done:  E(RB3LYP) =  -990.488655938     A.U. after   14 cycles
 SCF Done:  E(RB3LYP) =  -990.490225886     A.U. after   15 cycles
 SCF Done:  E(RB3LYP) =  -990.492687073     A.U. after   13 cycles
 SCF Done:  E(RB3LYP) =  -990.494447613     A.U. after   14 cycles
 SCF Done:  E(RB3LYP) =  -990.430853344     A.U. after   15 cycles
 SCF Done:  E(RB3LYP) =  -990.494611932     A.U. after   16 cycles
 SCF Done:  E(RB3LYP) =  -990.495271312     A.U. after   12 cycles
 SCF Done:  E(RB3LYP) =  -990.495576744     A.U. after   12 cycles
 SCF Done:  E(RB3LYP) =  -990.495736250     A.U. after   10 cycles
 SCF Done:  E(RB3LYP) =  -990.495739744     A.U. after    9 cycles
 SCF Done:  E(RB3LYP) =  -990.495742952     A.U. after    9 cycles
 SCF Done:  E(RB3LYP) =  -990.495745538     A.U. after    9 cycles
 SCF Done:  E(RB3LYP) =  -990.495747539     A.U. after   10 cycles
 SCF Done:  E(RB3LYP) =  -990.495748478     A.U. after   10 cycles
 SCF Done:  E(RB3LYP) =  -990.495748809     A.U. after    8 cycles
 SCF Done:  E(RB3LYP) =  -990.495748928     A.U. after    7 cycles
 SCF Done:  E(RB3LYP) =  -990.495748969     A.U. after    7 cycles
 SCF Done:  E(RB3LYP) =  -990.495748986     A.U. after    6 cycles
 Optimization completed.
    -- Stationary point found.

                         Standard orientation:
 ---------------------------------------------------------------------
 Center     Atomic      Atomic             Coordinates (Angstroms)
 Number     Number       Type             X           Y           Z
 ---------------------------------------------------------------------
      1          1           0       -5.825033   -3.008331    0.938450
      2          6           0       -4.794226   -3.004527    0.570999
      3          1           0       -4.689414   -3.852695   -0.112895
      4          1           0       -4.113644   -3.141752    1.416842
      5          6           0       -4.554052   -1.717105   -0.203720
      6          8           0       -5.240799   -1.400003   -1.171451
      7          7           0       -3.529656   -0.941786    0.248951
      8          1           0       -2.924874   -1.228640    1.009810
      9          6           0       -3.140530    0.284179   -0.417288
     10          1           0       -3.198646    0.118141   -1.500524
     11          6           0       -4.069271    1.459711   -0.052145
     12          1           0       -4.029833    1.658031    1.023923
     13          1           0       -3.787351    2.375366   -0.585021
     14          1           0       -5.092903    1.198067   -0.331145
     15          6           0       -1.686153    0.577130   -0.003323
     16          8           0       -1.189753    0.050628    0.986095
     17          7           0       -1.027869    1.435056   -0.836156
     18          1           0       -1.578094    1.816674   -1.595780
     19          6           0        0.214238    2.181680   -0.566471
     20          1           0        0.730564    2.260529   -1.531074
     21          6           0       -0.088954    3.585073   -0.033689
     22          1           0       -0.529238    3.513942    0.963551
     23          1           0        0.831753    4.172594    0.043253
     24          1           0       -0.779053    4.111541   -0.702928
     25          6           0        1.162123    1.447527    0.416798
     26          8           0        1.201159    1.718663    1.609154
     27          7           0        2.052126    0.614505   -0.184791
     28          1           0        1.976066    0.361014   -1.163886
     29          6           0        2.970386   -0.205009    0.584979
     30          1           0        3.445084    0.439299    1.334067
     31          6           0        2.253152   -1.365529    1.304848
     32          1           0        1.819122   -2.054541    0.572909
     33          1           0        2.948955   -1.925370    1.940371
     34          1           0        1.451001   -0.960495    1.925752
     35          6           0        4.013493   -0.742720   -0.405133
     36          8           0        3.756530   -0.853953   -1.601944
     37          7           0        5.197693   -1.115504    0.148906
     38          1           0        5.331665   -0.967362    1.139200
     39          6           0        6.273922   -1.721736   -0.616932
     40          1           0        5.938505   -1.791170   -1.652290
     41          1           0        7.181512   -1.108872   -0.573959
     42          1           0        6.505935   -2.726572   -0.245364
 ---------------------------------------------------------------------

 The electronic state is 1-A.
 Alpha  occ. eigenvalues --  -19.12633 -19.12515 -19.10740 -19.09757 -14.37614
 Alpha  occ. eigenvalues --  -14.37544 -14.35569 -14.34874 -10.29780 -10.29686
 Alpha  occ. eigenvalues --  -10.28560 -10.27768 -10.24687 -10.23846 -10.23622
 Alpha  occ. eigenvalues --  -10.22794 -10.18500 -10.18457 -10.18404 -10.18156
 Alpha  occ. eigenvalues --   -1.04756  -1.04493  -1.02715  -1.01753  -0.93712
 Alpha  occ. eigenvalues --   -0.93343  -0.92049  -0.91367  -0.79397  -0.77368
 Alpha  occ. eigenvalues --   -0.75745  -0.72003  -0.71590  -0.67352  -0.65814
 Alpha  occ. eigenvalues --   -0.63226  -0.60762  -0.59238  -0.57831  -0.57413
 Alpha  occ. eigenvalues --   -0.54354  -0.52592  -0.49197  -0.48723  -0.47729
 Alpha  occ. eigenvalues --   -0.47539  -0.46386  -0.45828  -0.45330  -0.44684
 Alpha  occ. eigenvalues --   -0.44054  -0.43118  -0.42654  -0.41745  -0.41461
 Alpha  occ. eigenvalues --   -0.41119  -0.40308  -0.40138  -0.39560  -0.38725
 Alpha  occ. eigenvalues --   -0.38375  -0.37836  -0.37315  -0.37165  -0.36940
 Alpha  occ. eigenvalues --   -0.36585  -0.36417  -0.35282  -0.33826  -0.27206
 Alpha  occ. eigenvalues --   -0.26662  -0.26581  -0.26118  -0.24837  -0.24598
 Alpha  occ. eigenvalues --   -0.24349  -0.23743
 Alpha virt. eigenvalues --    0.01319   0.01523   0.02405   0.03929   0.06042
 Alpha virt. eigenvalues --    0.06414   0.09831   0.09873   0.11401   0.12586
 Alpha virt. eigenvalues --    0.13402   0.13610   0.13984   0.14359   0.15072

 Mulliken atomic charges:
              1
     1  H    0.182167
     2  C   -0.533006
     3  H    0.181758
     4  H    0.148114
     5  C    0.597388
     6  O   -0.525479
     7  N   -0.604930
     8  H    0.346660
     9  C   -0.036483
    10  H    0.169877
    11  C   -0.445506
    12  H    0.161213
    13  H    0.132501
    14  H    0.191534
    15  C    0.613530
    16  O   -0.516722
    17  N   -0.612757
    18  H    0.330377
    19  C   -0.054275
    20  H    0.151247
    21  C   -0.436825
    22  H    0.189933
    23  H    0.159816
    24  H    0.131309
    25  C    0.659345
    26  O   -0.526553
    27  N   -0.617007
    28  H    0.346985
    29  C   -0.035900
    30  H    0.165698
    31  C   -0.448459
    32  H    0.158330
    33  H    0.132432
    34  H    0.210273
    35  C    0.608979
    36  O   -0.533489
    37  N   -0.592505
    38  H    0.331585
    39  C   -0.313502
    40  H    0.207254
    41  H    0.162677
    42  H    0.162417
 Sum of Mulliken atomic charges =   0.00000

 Dipole moment (field-independent basis, Debye):
    X=              4.5071    Y=              0.2406    Z=              0.3266  Tot=              4.5253
 Quadrupole moment (field-independent basis, Debye-Ang):
   XX=           -110.7193   YY=           -110.2562   ZZ=           -125.6655
   XY=            -11.2907   XZ=             -1.0249   YZ=            -14.1632

 Normal termination of Gaussian 09 at Thu Dec 29 21:33:14 2016.
