 Gaussian 09, Revision A.02,
 Gaussian 09:  EM64L-G09RevA.02 11-Jun-2009

 ----------------------------------------------------------------------
 # b3lyp/6-31G* Opt=(ModRedundant, maxcycles=1000, calcfc) geom=nocrowd
 ----------------------------------------------------------------------

 ------------------
 Phi Psi fixed scan
 ------------------
 Symbolic Z-matrix:
 Charge =  0 Multiplicity = 1

 SCF Done:  E(RB3LYP) =  -990.290296478     A.U. after   16 cycles

  Exact polarizability:   0.000   0.000   0.000   0.000   0.000   0.000
 Approx polarizability: 279.922  -6.790 248.773 -16.953  20.840 177.661

 SCF Done:  E(RB3LYP) =  -990.335956421     A.U. after   14 cycles
 SCF Done:  E(RB3LYP) =  -990.401290312     A.U. after   14 cycles
 SCF Done:  E(RB3LYP) =  -990.449869407     A.U. after   15 cycles
 SCF Done:  E(RB3LYP) =  -990.469891473     A.U. after   12 cycles
 SCF Done:  E(RB3LYP) =  -990.480064874     A.U. after   15 cycles
 SCF Done:  E(RB3LYP) =  -990.478046938     A.U. after   15 cycles
 SCF Done:  E(RB3LYP) =  -990.483967491     A.U. after   13 cycles
 SCF Done:  E(RB3LYP) =  -990.486529449     A.U. after   13 cycles
 SCF Done:  E(RB3LYP) =  -990.472440252     A.U. after   14 cycles
 SCF Done:  E(RB3LYP) =  -990.495983085     A.U. after    9 cycles
 SCF Done:  E(RB3LYP) =  -990.495984530     A.U. after    9 cycles
 SCF Done:  E(RB3LYP) =  -990.495985033     A.U. after    9 cycles
 SCF Done:  E(RB3LYP) =  -990.495985235     A.U. after    7 cycles
 SCF Done:  E(RB3LYP) =  -990.495985381     A.U. after    7 cycles
 SCF Done:  E(RB3LYP) =  -990.495985549     A.U. after    8 cycles
 SCF Done:  E(RB3LYP) =  -990.495985615     A.U. after    7 cycles
 SCF Done:  E(RB3LYP) =  -990.495985650     A.U. after    6 cycles
 SCF Done:  E(RB3LYP) =  -990.495985679     A.U. after    6 cycles
 SCF Done:  E(RB3LYP) =  -990.495985708     A.U. after    6 cycles
 Optimization completed.
    -- Stationary point found.

                         Standard orientation:
 ---------------------------------------------------------------------
 Center     Atomic      Atomic             Coordinates (Angstroms)
 Number     Number       Type             X           Y           Z
 ---------------------------------------------------------------------
      1          1           0        4.945164    3.394545    0.814504
      2          6           0        3.994149    3.179349    0.317215
      3          1           0        3.917490    3.850626   -0.543665
      4          1           0        3.173469    3.391077    1.009057
      5          6           0        4.015789    1.743455   -0.183464
      6          8           0        4.859475    1.340385   -0.979837
      7          7           0        3.039754    0.932076    0.313958
      8          1           0        2.310562    1.274299    0.928431
      9          6           0        2.901973   -0.445076   -0.116590
     10          1           0        3.139019   -0.486252   -1.186589
     11          6           0        3.863726   -1.387052    0.635100
     12          1           0        3.651940   -1.369759    1.709033
     13          1           0        3.772625   -2.419296    0.277808
     14          1           0        4.889010   -1.048683    0.465890
     15          6           0        1.438033   -0.849055    0.128311
     16          8           0        0.777745   -0.278520    1.000185
     17          7           0        1.005999   -1.882755   -0.632916
     18          1           0        1.674302   -2.199259   -1.323921
     19          6           0       -0.284520   -2.605107   -0.724282
     20          1           0       -0.379724   -2.869670   -1.782851
     21          6           0       -0.197316   -3.908802    0.092852
     22          1           0       -0.073947   -3.679920    1.156769
     23          1           0       -1.112632   -4.487523   -0.043115
     24          1           0        0.660490   -4.508082   -0.230946
     25          6           0       -1.649253   -1.926798   -0.425502
     26          8           0       -2.641004   -2.629312   -0.628738
     27          7           0       -1.723529   -0.630191   -0.063881
     28          1           0       -0.902288   -0.149774    0.306769
     29          6           0       -3.019403   -0.010053    0.167846
     30          1           0       -3.710377   -0.415640   -0.578282
     31          6           0       -3.568714   -0.320644    1.574099
     32          1           0       -2.884344    0.059889    2.339028
     33          1           0       -4.550775    0.142387    1.724628
     34          1           0       -3.672083   -1.402847    1.688997
     35          6           0       -2.848826    1.504699   -0.012315
     36          8           0       -1.811075    2.076428    0.303673
     37          7           0       -3.948887    2.149080   -0.495899
     38          1           0       -4.748656    1.596690   -0.770157
     39          6           0       -4.006923    3.590751   -0.664100
     40          1           0       -3.054954    3.996193   -0.318975
     41          1           0       -4.150674    3.861727   -1.716660
     42          1           0       -4.820387    4.025957   -0.071877
 ---------------------------------------------------------------------

 The electronic state is 1-A.
 Alpha  occ. eigenvalues --  -19.13667 -19.11557 -19.10739 -19.09976 -14.38565
 Alpha  occ. eigenvalues --  -14.36935 -14.35169 -14.34741 -10.30859 -10.28875
 Alpha  occ. eigenvalues --  -10.28764 -10.27974 -10.25291 -10.24122 -10.23341
 Alpha  occ. eigenvalues --  -10.22282 -10.18762 -10.18654 -10.18447 -10.18212
 Alpha  occ. eigenvalues --   -1.05619  -1.03713  -1.02742  -1.02011  -0.94502
 Alpha  occ. eigenvalues --   -0.92597  -0.91769  -0.91445  -0.79613  -0.77171
 Alpha  occ. eigenvalues --   -0.76109  -0.72168  -0.71189  -0.67245  -0.65742
 Alpha  occ. eigenvalues --   -0.63784  -0.60858  -0.58763  -0.58003  -0.57314
 Alpha  occ. eigenvalues --   -0.54806  -0.53033  -0.50147  -0.48317  -0.47870
 Alpha  occ. eigenvalues --   -0.46995  -0.46180  -0.45756  -0.45236  -0.45091
 Alpha  occ. eigenvalues --   -0.43651  -0.43057  -0.42453  -0.42073  -0.41931
 Alpha  occ. eigenvalues --   -0.40974  -0.40583  -0.39545  -0.39464  -0.39005
 Alpha  occ. eigenvalues --   -0.38894  -0.38428  -0.37553  -0.37174  -0.36980
 Alpha  occ. eigenvalues --   -0.36307  -0.36244  -0.34532  -0.34066  -0.27838
 Alpha  occ. eigenvalues --   -0.27731  -0.26173  -0.25842  -0.24621  -0.24613
 Alpha  occ. eigenvalues --   -0.24288  -0.23979
 Alpha virt. eigenvalues --    0.00456   0.01745   0.03072   0.03725   0.05413
 Alpha virt. eigenvalues --    0.06803   0.09747   0.11827   0.12037   0.12273
 Alpha virt. eigenvalues --    0.12860   0.13697   0.14175   0.14736   0.15062

 Mulliken atomic charges:
              1
     1  H    0.181642
     2  C   -0.533510
     3  H    0.183322
     4  H    0.152865
     5  C    0.597282
     6  O   -0.525208
     7  N   -0.604608
     8  H    0.352614
     9  C   -0.031428
    10  H    0.168401
    11  C   -0.442418
    12  H    0.161399
    13  H    0.137204
    14  H    0.190240
    15  C    0.617456
    16  O   -0.547731
    17  N   -0.613777
    18  H    0.339048
    19  C   -0.047445
    20  H    0.177908
    21  C   -0.437726
    22  H    0.163611
    23  H    0.189227
    24  H    0.137768
    25  C    0.624489
    26  O   -0.545118
    27  N   -0.643246
    28  H    0.403601
    29  C   -0.043511
    30  H    0.161439
    31  C   -0.445900
    32  H    0.168296
    33  H    0.139886
    34  H    0.180282
    35  C    0.608566
    36  O   -0.523451
    37  N   -0.593288
    38  H    0.328632
    39  C   -0.312043
    40  H    0.205654
    41  H    0.160318
    42  H    0.159258
 Sum of Mulliken atomic charges =   0.00000

 Dipole moment (field-independent basis, Debye):
    X=             -2.7979    Y=              0.0994    Z=             -0.3716  Tot=              2.8242
 Quadrupole moment (field-independent basis, Debye-Ang):
   XX=           -120.3074   YY=           -112.0381   ZZ=           -118.4835
   XY=            -20.4269   XZ=              8.1697   YZ=              1.7171

 Normal termination of Gaussian 09 at Thu Dec 29 22:11:10 2016.
