 Gaussian 09, Revision A.02,
 Gaussian 09:  EM64L-G09RevA.02 11-Jun-2009

 ----------------------------------------------------------------------
 # b3lyp/6-31G* Opt=(ModRedundant, maxcycles=1000, calcfc) geom=nocrowd
 ----------------------------------------------------------------------

 ------------------
 Phi Psi fixed scan
 ------------------
 Symbolic Z-matrix:
 Charge =  0 Multiplicity = 1

 SCF Done:  E(RB3LYP) =  -990.415533137     A.U. after   16 cycles

  Exact polarizability:   0.000   0.000   0.000   0.000   0.000   0.000
 Approx polarizability: 236.971  -0.639 215.260   4.479 -42.320 226.313

 SCF Done:  E(RB3LYP) =  -990.440510620     A.U. after   14 cycles
 SCF Done:  E(RB3LYP) =  -990.461237453     A.U. after   14 cycles
 SCF Done:  E(RB3LYP) =  -990.457935695     A.U. after   15 cycles
 SCF Done:  E(RB3LYP) =  -990.478130040     A.U. after   14 cycles
 SCF Done:  E(RB3LYP) =  -990.481952964     A.U. after   12 cycles
 SCF Done:  E(RB3LYP) =  -990.486339788     A.U. after   13 cycles
 SCF Done:  E(RB3LYP) =  -990.487346340     A.U. after   14 cycles
 SCF Done:  E(RB3LYP) =  -990.487204149     A.U. after   16 cycles
 SCF Done:  E(RB3LYP) =  -990.487803553     A.U. after   16 cycles
 SCF Done:  E(RB3LYP) =  -990.488638287     A.U. after    9 cycles
 SCF Done:  E(RB3LYP) =  -990.488645448     A.U. after    9 cycles
 SCF Done:  E(RB3LYP) =  -990.488649055     A.U. after    9 cycles
 SCF Done:  E(RB3LYP) =  -990.488652294     A.U. after    9 cycles
 SCF Done:  E(RB3LYP) =  -990.488656044     A.U. after    9 cycles
 SCF Done:  E(RB3LYP) =  -990.488661348     A.U. after   10 cycles
 SCF Done:  E(RB3LYP) =  -990.488665291     A.U. after   10 cycles
 SCF Done:  E(RB3LYP) =  -990.488668235     A.U. after   10 cycles
 SCF Done:  E(RB3LYP) =  -990.488669603     A.U. after    9 cycles
 SCF Done:  E(RB3LYP) =  -990.488669843     A.U. after    8 cycles
 Optimization completed.
    -- Stationary point found.

                         Standard orientation:
 ---------------------------------------------------------------------
 Center     Atomic      Atomic             Coordinates (Angstroms)
 Number     Number       Type             X           Y           Z
 ---------------------------------------------------------------------
      1          1           0        6.789975   -2.327548   -0.557430
      2          6           0        5.798660   -2.484920   -0.121155
      3          1           0        5.920028   -3.170295    0.723560
      4          1           0        5.149855   -2.950696   -0.869135
      5          6           0        5.273814   -1.154228    0.398311
      6          8           0        5.883597   -0.495937    1.237629
      7          7           0        4.089100   -0.743830   -0.132292
      8          1           0        3.551068   -1.315551   -0.773846
      9          6           0        3.426590    0.467994    0.303702
     10          1           0        3.539969    0.546927    1.392659
     11          6           0        4.041614    1.724287   -0.344402
     12          1           0        3.936247    1.683090   -1.433505
     13          1           0        3.560562    2.640964    0.016686
     14          1           0        5.103239    1.767470   -0.088586
     15          6           0        1.935185    0.318177   -0.067305
     16          8           0        1.572818   -0.513616   -0.885814
     17          7           0        1.114444    1.162164    0.635115
     18          1           0        1.608684    1.782469    1.265419
     19          6           0       -0.243514    1.655203    0.345947
     20          1           0       -0.710005    1.814671    1.325365
     21          6           0       -0.184189    2.995958   -0.405200
     22          1           0        0.229334    2.835004   -1.404138
     23          1           0       -1.187782    3.423294   -0.508332
     24          1           0        0.440323    3.716717    0.135170
     25          6           0       -1.143235    0.701226   -0.473183
     26          8           0       -0.954102    0.469510   -1.659003
     27          7           0       -2.282345    0.331443    0.174000
     28          1           0       -2.430125    0.489770    1.164538
     29          6           0       -3.298758   -0.480786   -0.468041
     30          1           0       -3.496702   -0.053913   -1.458930
     31          6           0       -2.853084   -1.946973   -0.641156
     32          1           0       -2.672848   -2.407265    0.335867
     33          1           0       -3.615944   -2.533371   -1.165839
     34          1           0       -1.929450   -1.971210   -1.224244
     35          6           0       -4.552917   -0.387313    0.415529
     36          8           0       -4.475887   -0.064970    1.599299
     37          7           0       -5.717815   -0.719575   -0.200156
     38          1           0       -5.692176   -0.949309   -1.183652
     39          6           0       -6.996364   -0.758418    0.490466
     40          1           0       -6.813793   -0.491405    1.531870
     41          1           0       -7.701384   -0.041352    0.054625
     42          1           0       -7.436986   -1.761017    0.447255
 ---------------------------------------------------------------------

 The electronic state is 1-A.
 Alpha  occ. eigenvalues --  -19.12933 -19.11905 -19.10915 -19.09411 -14.37947
 Alpha  occ. eigenvalues --  -14.37060 -14.36013 -14.34455 -10.30088 -10.29228
 Alpha  occ. eigenvalues --  -10.28788 -10.27421 -10.24969 -10.24276 -10.23161
 Alpha  occ. eigenvalues --  -10.23065 -10.19080 -10.18692 -10.18134 -10.18105
 Alpha  occ. eigenvalues --   -1.04966  -1.04093  -1.02905  -1.01375  -0.93702
 Alpha  occ. eigenvalues --   -0.93338  -0.92374  -0.90958  -0.79595  -0.77454
 Alpha  occ. eigenvalues --   -0.75698  -0.71914  -0.71681  -0.67483  -0.65908
 Alpha  occ. eigenvalues --   -0.63304  -0.60812  -0.59239  -0.58184  -0.57003
 Alpha  occ. eigenvalues --   -0.54204  -0.52370  -0.49092  -0.48888  -0.47924
 Alpha  occ. eigenvalues --   -0.47200  -0.46639  -0.45748  -0.45154  -0.44546
 Alpha  occ. eigenvalues --   -0.44307  -0.42877  -0.42802  -0.41967  -0.41523
 Alpha  occ. eigenvalues --   -0.41009  -0.40454  -0.40115  -0.40010  -0.38554
 Alpha  occ. eigenvalues --   -0.38337  -0.37935  -0.37546  -0.37456  -0.37162
 Alpha  occ. eigenvalues --   -0.36517  -0.36122  -0.35284  -0.33466  -0.27341
 Alpha  occ. eigenvalues --   -0.27001  -0.26485  -0.25927  -0.25014  -0.24323
 Alpha  occ. eigenvalues --   -0.23915  -0.23313
 Alpha virt. eigenvalues --    0.01075   0.01944   0.02356   0.04218   0.05629
 Alpha virt. eigenvalues --    0.06027   0.09206   0.10269   0.11172   0.12290
 Alpha virt. eigenvalues --    0.13497   0.13545   0.14101   0.14373   0.14950

 Mulliken atomic charges:
              1
     1  H    0.180907
     2  C   -0.532645
     3  H    0.180559
     4  H    0.148524
     5  C    0.596445
     6  O   -0.527258
     7  N   -0.604178
     8  H    0.347190
     9  C   -0.040749
    10  H    0.167620
    11  C   -0.445071
    12  H    0.160658
    13  H    0.130266
    14  H    0.190249
    15  C    0.609037
    16  O   -0.501194
    17  N   -0.612204
    18  H    0.328253
    19  C   -0.042465
    20  H    0.144575
    21  C   -0.444900
    22  H    0.191192
    23  H    0.157604
    24  H    0.138599
    25  C    0.646771
    26  O   -0.515069
    27  N   -0.623807
    28  H    0.348902
    29  C   -0.032088
    30  H    0.167118
    31  C   -0.449035
    32  H    0.159351
    33  H    0.135431
    34  H    0.205284
    35  C    0.607216
    36  O   -0.532154
    37  N   -0.592438
    38  H    0.332414
    39  C   -0.313832
    40  H    0.207668
    41  H    0.163802
    42  H    0.163453
 Sum of Mulliken atomic charges =   0.00000

 Dipole moment (field-independent basis, Debye):
    X=             -5.9119    Y=              0.4901    Z=             -0.6533  Tot=              5.9680
 Quadrupole moment (field-independent basis, Debye-Ang):
   XX=           -111.0609   YY=           -107.2316   ZZ=           -127.0668
   XY=              5.2590   XZ=              0.5626   YZ=              4.6954

 Normal termination of Gaussian 09 at Thu Dec 29 22:58:22 2016.
