 Gaussian 09, Revision A.02,
 Gaussian 09:  EM64L-G09RevA.02 11-Jun-2009

 ----------------------------------------------------------------------
 # b3lyp/6-31G* Opt=(ModRedundant, maxcycles=1000, calcfc) geom=nocrowd
 ----------------------------------------------------------------------

 ------------------
 Phi Psi fixed scan
 ------------------
 Symbolic Z-matrix:
 Charge =  0 Multiplicity = 1

 SCF Done:  E(RB3LYP) =  -990.479242282     A.U. after   15 cycles

  Exact polarizability:   0.000   0.000   0.000   0.000   0.000   0.000
 Approx polarizability: 212.654  -1.744 213.768  32.746  -3.849 243.192

 SCF Done:  E(RB3LYP) =  -990.487077244     A.U. after   12 cycles
 SCF Done:  E(RB3LYP) =  -990.495824871     A.U. after   13 cycles
 SCF Done:  E(RB3LYP) =  -990.497839088     A.U. after   12 cycles
 SCF Done:  E(RB3LYP) =  -990.498859288     A.U. after   13 cycles
 SCF Done:  E(RB3LYP) =  -990.499220047     A.U. after   14 cycles
 SCF Done:  E(RB3LYP) =  -990.499474918     A.U. after   14 cycles
 SCF Done:  E(RB3LYP) =  -990.442379142     A.U. after   15 cycles
 SCF Done:  E(RB3LYP) =  -990.499577796     A.U. after   15 cycles
 SCF Done:  E(RB3LYP) =  -990.499716175     A.U. after   12 cycles
 SCF Done:  E(RB3LYP) =  -990.499786397     A.U. after   10 cycles
 SCF Done:  E(RB3LYP) =  -990.499796700     A.U. after   10 cycles
 SCF Done:  E(RB3LYP) =  -990.499800011     A.U. after   10 cycles
 SCF Done:  E(RB3LYP) =  -990.499801680     A.U. after    9 cycles
 SCF Done:  E(RB3LYP) =  -990.499802285     A.U. after    7 cycles
 SCF Done:  E(RB3LYP) =  -990.499802819     A.U. after    9 cycles
 SCF Done:  E(RB3LYP) =  -990.499803119     A.U. after    9 cycles
 SCF Done:  E(RB3LYP) =  -990.499803276     A.U. after    9 cycles
 SCF Done:  E(RB3LYP) =  -990.499803334     A.U. after    7 cycles
 SCF Done:  E(RB3LYP) =  -990.499803363     A.U. after    6 cycles
 Optimization completed.
    -- Stationary point found.

                         Standard orientation:
 ---------------------------------------------------------------------
 Center     Atomic      Atomic             Coordinates (Angstroms)
 Number     Number       Type             X           Y           Z
 ---------------------------------------------------------------------
      1          1           0       -3.318298   -4.145979    0.575341
      2          6           0       -3.729093   -3.247826    1.047399
      3          1           0       -3.170316   -3.039830    1.965000
      4          1           0       -4.770721   -3.462803    1.304661
      5          6           0       -3.697509   -2.107344    0.040818
      6          8           0       -4.300585   -2.162676   -1.027518
      7          7           0       -2.958083   -1.022190    0.405070
      8          1           0       -2.403818   -1.002569    1.253124
      9          6           0       -2.772840    0.110458   -0.478976
     10          1           0       -2.628794   -0.270585   -1.498182
     11          6           0       -3.995720    1.049797   -0.477941
     12          1           0       -4.161411    1.461184    0.523077
     13          1           0       -3.864947    1.882675   -1.178452
     14          1           0       -4.875691    0.477456   -0.781002
     15          6           0       -1.503423    0.842793   -0.007549
     16          8           0       -1.018528    0.636541    1.101682
     17          7           0       -1.002468    1.743938   -0.896464
     18          1           0       -1.479724    1.833408   -1.783432
     19          6           0        0.175063    2.604735   -0.698922
     20          1           0        0.640459    2.702138   -1.688064
     21          6           0       -0.223530    3.989433   -0.183485
     22          1           0       -0.659675    3.906662    0.815078
     23          1           0        0.653899    4.637506   -0.114308
     24          1           0       -0.953687    4.449396   -0.858312
     25          6           0        1.243162    1.969344    0.229550
     26          8           0        1.679366    2.560813    1.208436
     27          7           0        1.745089    0.789060   -0.216413
     28          1           0        1.318512    0.284900   -0.986047
     29          6           0        2.714046    0.022871    0.543645
     30          1           0        3.519689    0.701762    0.848414
     31          6           0        2.101597   -0.620416    1.804671
     32          1           0        1.310898   -1.323341    1.525834
     33          1           0        2.864310   -1.156483    2.381398
     34          1           0        1.667115    0.162226    2.429745
     35          6           0        3.257005   -1.055944   -0.406160
     36          8           0        2.606312   -1.437193   -1.376673
     37          7           0        4.469988   -1.567287   -0.065610
     38          1           0        4.945213   -1.179335    0.736990
     39          6           0        5.108908   -2.646779   -0.799317
     40          1           0        4.439967   -2.928936   -1.613081
     41          1           0        6.068441   -2.324112   -1.219514
     42          1           0        5.278363   -3.516588   -0.154170
 ---------------------------------------------------------------------

 The electronic state is 1-A.
 Alpha  occ. eigenvalues --  -19.13056 -19.12419 -19.10839 -19.09910 -14.37932
 Alpha  occ. eigenvalues --  -14.37502 -14.35046 -14.35045 -10.30108 -10.29568
 Alpha  occ. eigenvalues --  -10.28464 -10.27913 -10.24613 -10.23883 -10.23706
 Alpha  occ. eigenvalues --  -10.22715 -10.18628 -10.18518 -10.17974 -10.17928
 Alpha  occ. eigenvalues --   -1.05107  -1.04420  -1.02693  -1.01921  -0.94019
 Alpha  occ. eigenvalues --   -0.93240  -0.91775  -0.91530  -0.79379  -0.77287
 Alpha  occ. eigenvalues --   -0.75730  -0.72126  -0.71465  -0.67220  -0.65809
 Alpha  occ. eigenvalues --   -0.63256  -0.60874  -0.59224  -0.57606  -0.57498
 Alpha  occ. eigenvalues --   -0.54703  -0.52782  -0.49499  -0.48494  -0.48034
 Alpha  occ. eigenvalues --   -0.47331  -0.46327  -0.45843  -0.45377  -0.44903
 Alpha  occ. eigenvalues --   -0.43869  -0.43242  -0.42688  -0.41700  -0.41477
 Alpha  occ. eigenvalues --   -0.40890  -0.40103  -0.40043  -0.39253  -0.38857
 Alpha  occ. eigenvalues --   -0.38518  -0.37954  -0.37334  -0.37036  -0.36997
 Alpha  occ. eigenvalues --   -0.36617  -0.36310  -0.35050  -0.33949  -0.27431
 Alpha  occ. eigenvalues --   -0.26800  -0.26619  -0.26485  -0.24775  -0.24554
 Alpha  occ. eigenvalues --   -0.24308  -0.23893
 Alpha virt. eigenvalues --    0.01023   0.01644   0.02574   0.03774   0.06152
 Alpha virt. eigenvalues --    0.06599   0.09515   0.10935   0.11359   0.12575
 Alpha virt. eigenvalues --    0.13114   0.13521   0.13804   0.14477   0.15166

 Mulliken atomic charges:
              1
     1  H    0.182890
     2  C   -0.533400
     3  H    0.147795
     4  H    0.182571
     5  C    0.597828
     6  O   -0.524042
     7  N   -0.605658
     8  H    0.346587
     9  C   -0.033949
    10  H    0.171348
    11  C   -0.444568
    12  H    0.159676
    13  H    0.133434
    14  H    0.192812
    15  C    0.615214
    16  O   -0.524518
    17  N   -0.618931
    18  H    0.334016
    19  C   -0.057388
    20  H    0.160691
    21  C   -0.422582
    22  H    0.180243
    23  H    0.166827
    24  H    0.129520
    25  C    0.647859
    26  O   -0.530817
    27  N   -0.608713
    28  H    0.343947
    29  C   -0.034442
    30  H    0.162317
    31  C   -0.438954
    32  H    0.160360
    33  H    0.128558
    34  H    0.202318
    35  C    0.607817
    36  O   -0.533261
    37  N   -0.592783
    38  H    0.331176
    39  C   -0.313284
    40  H    0.207211
    41  H    0.162366
    42  H    0.161908
 Sum of Mulliken atomic charges =   0.00000

 Dipole moment (field-independent basis, Debye):
    X=              3.5552    Y=             -0.0337    Z=             -0.1791  Tot=              3.5599
 Quadrupole moment (field-independent basis, Debye-Ang):
   XX=           -107.6403   YY=           -118.3657   ZZ=           -121.4732
   XY=            -18.6293   XZ=             -3.9154   YZ=            -18.9097

 Normal termination of Gaussian 09 at Thu Dec 29 21:19:17 2016.
