 Gaussian 09, Revision A.02,
 Gaussian 09:  EM64L-G09RevA.02 11-Jun-2009

 -------------------
 #SP MP2/aug-cc-pVDZ
 -------------------

 -------------------------------
 Single Point calculation at MP2
 -------------------------------
 Symbolic Z-matrix:
 Charge =  0 Multiplicity = 1

                         Standard orientation:
 ---------------------------------------------------------------------
 Center     Atomic      Atomic             Coordinates (Angstroms)
 Number     Number       Type             X           Y           Z
 ---------------------------------------------------------------------
      1          1           0       -3.753523   -0.643845    0.987592
      2          6           0       -3.344222   -0.575150   -0.025208
      3          1           0       -3.793110    0.285956   -0.529708
      4          1           0       -3.631134   -1.488646   -0.554008
      5          6           0       -1.823921   -0.529770    0.073592
      6          8           0       -1.215933   -1.474178    0.578992
      7          7           0       -1.255106    0.597923   -0.434708
      8          1           0       -1.918798    1.260031   -0.813808
      9          6           0        0.115801    1.162205   -0.440408
     10          1           0        0.312405    1.432102   -1.488108
     11          6           0        0.112218    2.450705    0.395392
     12          1           0       -0.099585    2.223708    1.445192
     13          1           0        1.089224    2.930892    0.335492
     14          1           0       -0.653373    3.145615    0.029792
     15          6           0        1.359090    0.302989   -0.070008
     16          8           0        2.377198    0.905575    0.259292
     17          7           0        1.334172   -1.028211   -0.327408
     18          1           0        0.430767   -1.480999   -0.182408
     19          6           0        2.525662   -1.817227   -0.043908
     20          1           0        3.389868   -1.362438   -0.533008
     21          1           0        2.739461   -1.877829    1.031292
     22          1           0        2.376449   -2.826225   -0.436508
 ---------------------------------------------------------------------

 SCF Done:  E(RHF) =  -492.911086962     A.U. after   14 cycles
 E2 =    -0.1604239083D+01 EUMP2 =    -0.49451532604511D+03

 The electronic state is 1-A.
 Alpha  occ. eigenvalues --  -20.54537 -20.52569 -15.61831 -15.57110 -11.38452
 Alpha  occ. eigenvalues --  -11.35663 -11.30661 -11.26013 -11.25268 -11.23388
 Alpha  occ. eigenvalues --   -1.40057  -1.37878  -1.25564  -1.21562  -1.06232
 Alpha  occ. eigenvalues --   -1.00006  -0.94751  -0.87837  -0.82096  -0.76305
 Alpha  occ. eigenvalues --   -0.71062  -0.70840  -0.66068  -0.63703  -0.62678
 Alpha  occ. eigenvalues --   -0.60837  -0.60467  -0.59162  -0.58099  -0.56004
 Alpha  occ. eigenvalues --   -0.54011  -0.53465  -0.52427  -0.51715  -0.50305
 Alpha  occ. eigenvalues --   -0.44069  -0.42015  -0.40994  -0.38083
 Alpha virt. eigenvalues --    0.02316   0.03967   0.04254   0.04612   0.05634
 Alpha virt. eigenvalues --    0.06147   0.06412   0.06747   0.07398   0.08034
 Alpha virt. eigenvalues --    0.09033   0.09627   0.11466   0.11883   0.12737

 Mulliken atomic charges:
              1
     1  H    0.047597
     2  C    0.436936
     3  H   -0.168038
     4  H    0.040580
     5  C    0.575796
     6  O   -0.900805
     7  N   -0.352194
     8  H   -0.080255
     9  C   -0.087036
    10  H   -0.037001
    11  C    0.681883
    12  H   -0.063471
    13  H   -0.011295
    14  H   -0.067927
    15  C    0.821120
    16  O   -0.829920
    17  N   -0.408475
    18  H    0.011716
    19  C    0.752273
    20  H   -0.116346
    21  H   -0.050444
    22  H   -0.194693
 Sum of Mulliken atomic charges =   0.00000

 Dipole moment (field-independent basis, Debye):
    X=             -4.6711    Y=              1.1064    Z=             -2.0127  Tot=              5.2052
 Quadrupole moment (field-independent basis, Debye-Ang):
   XX=            -59.7652   YY=            -61.0946   ZZ=            -61.7810
   XY=             -9.0948   XZ=              0.9018   YZ=             -0.3514

 Normal termination of Gaussian 09 at Sun Feb 12 20:34:28 2017.
