 Gaussian 09, Revision A.02,
 Gaussian 09:  EM64L-G09RevA.02 11-Jun-2009

 -------------------
 #SP MP2/aug-cc-pVDZ
 -------------------

 -------------------------------
 Single Point calculation at MP2
 -------------------------------
 Symbolic Z-matrix:
 Charge =  0 Multiplicity = 1

                         Standard orientation:
 ---------------------------------------------------------------------
 Center     Atomic      Atomic             Coordinates (Angstroms)
 Number     Number       Type             X           Y           Z
 ---------------------------------------------------------------------
      1          1           0        3.458297   -1.174382    1.226306
      2          6           0        3.330295   -0.590083    0.308706
      3          1           0        3.813096   -1.142482   -0.501394
      4          1           0        3.831893    0.374219    0.436306
      5          6           0        1.840995   -0.485186    0.004806
      6          8           0        1.215797   -1.479388   -0.363294
      7          7           0        1.313792    0.763112    0.151006
      8          1           0        1.973690    1.465114    0.457306
      9          6           0       -0.082310    1.256609    0.204506
     10          1           0       -0.133011    1.891609    1.092606
     11          6           0       -0.382512    2.113808   -1.039394
     12          1           0       -0.343510    1.503708   -1.946394
     13          1           0       -1.380813    2.556006   -0.957794
     14          1           0        0.347286    2.926510   -1.133694
     15          6           0       -1.257407    0.267906    0.431606
     16          8           0       -2.072408    0.551304    1.305006
     17          7           0       -1.440605   -0.729195   -0.473994
     18          1           0       -0.574304   -1.125792   -0.838294
     19          6           0       -2.562502   -1.641297   -0.298394
     20          1           0       -3.479804   -1.064500   -0.164394
     21          1           0       -2.652501   -2.262798   -1.192994
     22          1           0       -2.439101   -2.290497    0.578606
 ---------------------------------------------------------------------

 SCF Done:  E(RHF) =  -492.912541458     A.U. after   14 cycles
 E2 =    -0.1603683319D+01 EUMP2 =    -0.49451622477689D+03

 The electronic state is 1-A.
 Alpha  occ. eigenvalues --  -20.54494 -20.52788 -15.61622 -15.57078 -11.38274
 Alpha  occ. eigenvalues --  -11.35430 -11.30254 -11.25899 -11.25257 -11.24165
 Alpha  occ. eigenvalues --   -1.39939  -1.37807  -1.25328  -1.21579  -1.06316
 Alpha  occ. eigenvalues --   -1.00161  -0.94252  -0.88458  -0.81905  -0.76066
 Alpha  occ. eigenvalues --   -0.71466  -0.70595  -0.64866  -0.63593  -0.62873
 Alpha  occ. eigenvalues --   -0.61713  -0.60348  -0.58404  -0.57443  -0.57055
 Alpha  occ. eigenvalues --   -0.54511  -0.53437  -0.52621  -0.51651  -0.50534
 Alpha  occ. eigenvalues --   -0.44178  -0.42922  -0.40213  -0.37905
 Alpha virt. eigenvalues --    0.02406   0.03993   0.04228   0.04610   0.05618
 Alpha virt. eigenvalues --    0.06225   0.06410   0.06618   0.07448   0.08042
 Alpha virt. eigenvalues --    0.08654   0.10071   0.11021   0.11831   0.12456

 Mulliken atomic charges:
              1
     1  H    0.057516
     2  C    0.488090
     3  H    0.022491
     4  H   -0.148607
     5  C    0.564105
     6  O   -0.888806
     7  N   -0.331921
     8  H   -0.101805
     9  C    0.122260
    10  H   -0.171131
    11  C    0.654168
    12  H   -0.028350
    13  H   -0.039697
    14  H   -0.102162
    15  C    0.787027
    16  O   -0.872040
    17  N   -0.490516
    18  H    0.042534
    19  C    0.801656
    20  H   -0.119674
    21  H   -0.188246
    22  H   -0.056895
 Sum of Mulliken atomic charges =   0.00000

 Dipole moment (field-independent basis, Debye):
    X=              4.2579    Y=              1.8715    Z=             -1.2000  Tot=              4.8034
 Quadrupole moment (field-independent basis, Debye-Ang):
   XX=            -57.0818   YY=            -59.9324   ZZ=            -65.0774
   XY=              7.3805   XZ=              8.4403   YZ=             -1.4296

 Normal termination of Gaussian 09 at Sun Feb 12 20:17:49 2017.
