 Gaussian 09, Revision A.02,
 Gaussian 09:  EM64L-G09RevA.02 11-Jun-2009

 -------------------
 #SP MP2/aug-cc-pVDZ
 -------------------

 -------------------------------
 Single Point calculation at MP2
 -------------------------------
 Symbolic Z-matrix:
 Charge =  0 Multiplicity = 1

                         Standard orientation:
 ---------------------------------------------------------------------
 Center     Atomic      Atomic             Coordinates (Angstroms)
 Number     Number       Type             X           Y           Z
 ---------------------------------------------------------------------
      1          1           0        4.187418   -0.881591    0.091492
      2          6           0        3.230218   -1.005695   -0.419008
      3          1           0        2.956222   -2.066496   -0.370708
      4          1           0        3.335017   -0.725194   -1.471808
      5          6           0        2.175415   -0.184699    0.305392
      6          8           0        2.213814    0.013001    1.512892
      7          7           0        1.189113    0.334797   -0.507608
      8          1           0        1.052115   -0.134403   -1.397508
      9          6           0       -0.050789    0.823792    0.071592
     10          1           0        0.125910    0.900093    1.149292
     11          6           0       -0.423395    2.204891   -0.496108
     12          1           0       -0.581695    2.147990   -1.578908
     13          1           0       -1.341796    2.591287   -0.040708
     14          1           0        0.387302    2.913394   -0.303008
     15          6           0       -1.167585   -0.203912   -0.207708
     16          8           0       -1.050982   -1.049312   -1.090308
     17          7           0       -2.297286   -0.044917    0.536192
     18          1           0       -2.274188    0.612483    1.303292
     19          6           0       -3.455482   -0.913522    0.405392
     20          1           0       -3.312280   -1.516521   -0.492008
     21          1           0       -3.557580   -1.582122    1.268992
     22          1           0       -4.372185   -0.322725    0.303492
 ---------------------------------------------------------------------

 SCF Done:  E(RHF) =  -492.926936428     A.U. after   14 cycles
 E2 =    -0.1599745832D+01 EUMP2 =    -0.49452668225972D+03

 The electronic state is 1-A.
 Alpha  occ. eigenvalues --  -20.54010 -20.53074 -15.60362 -15.58715 -11.36626
 Alpha  occ. eigenvalues --  -11.36012 -11.29030 -11.27420 -11.24262 -11.24198
 Alpha  occ. eigenvalues --   -1.39490  -1.38160  -1.24120  -1.23386  -1.05513
 Alpha  occ. eigenvalues --   -0.99061  -0.96159  -0.87836  -0.80086  -0.78246
 Alpha  occ. eigenvalues --   -0.73197  -0.67438  -0.66006  -0.63519  -0.63106
 Alpha  occ. eigenvalues --   -0.61906  -0.59998  -0.58557  -0.57332  -0.56487
 Alpha  occ. eigenvalues --   -0.55345  -0.53995  -0.52979  -0.51809  -0.49809
 Alpha  occ. eigenvalues --   -0.43529  -0.42458  -0.40365  -0.39348
 Alpha virt. eigenvalues --    0.02893   0.03938   0.04316   0.04653   0.05611
 Alpha virt. eigenvalues --    0.06133   0.06194   0.07146   0.07273   0.07835
 Alpha virt. eigenvalues --    0.09163   0.09697   0.10548   0.11807   0.12661

 Mulliken atomic charges:
              1
     1  H   -0.013972
     2  C    0.349210
     3  H    0.066076
     4  H   -0.072406
     5  C    0.612589
     6  O   -0.843932
     7  N   -0.525846
     8  H   -0.004822
     9  C   -0.168137
    10  H   -0.096121
    11  C    0.826376
    12  H   -0.031282
    13  H   -0.063637
    14  H   -0.067573
    15  C    1.150319
    16  O   -0.861369
    17  N   -0.500049
    18  H   -0.111816
    19  C    0.701224
    20  H   -0.140738
    21  H   -0.078525
    22  H   -0.125565
 Sum of Mulliken atomic charges =   0.00000

 Dipole moment (field-independent basis, Debye):
    X=             -2.3456    Y=              1.3483    Z=             -0.6299  Tot=              2.7778
 Quadrupole moment (field-independent basis, Debye-Ang):
   XX=            -53.7765   YY=            -60.7836   ZZ=            -66.3824
   XY=             -4.4706   XZ=            -12.9568   YZ=             -1.1375

 Normal termination of Gaussian 09 at Mon Feb 13 09:36:00 2017.
