 Gaussian 09, Revision A.02,
 Gaussian 09:  EM64L-G09RevA.02 11-Jun-2009

 -------------------
 #SP MP2/aug-cc-pVDZ
 -------------------

 -------------------------------
 Single Point calculation at MP2
 -------------------------------
 Symbolic Z-matrix:
 Charge =  0 Multiplicity = 1

                         Standard orientation:
 ---------------------------------------------------------------------
 Center     Atomic      Atomic             Coordinates (Angstroms)
 Number     Number       Type             X           Y           Z
 ---------------------------------------------------------------------
      1          1           0        3.433024   -1.816082   -0.339095
      2          6           0        3.183013   -0.791584   -0.627095
      3          1           0        2.999012   -0.754586   -1.705695
      4          1           0        4.053706   -0.166975   -0.399295
      5          6           0        2.006107   -0.317597    0.213705
      6          8           0        1.958409   -0.491398    1.423505
      7          7           0        1.005500    0.320692   -0.482595
      8          1           0        1.145598    0.504093   -1.467295
      9          6           0       -0.107207    1.002080    0.175105
     10          1           0        0.159893    1.034583    1.237505
     11          6           0       -0.279123    2.427378   -0.356895
     12          1           0       -0.456123    2.426376   -1.440295
     13          1           0       -1.145328    2.889668    0.119405
     14          1           0        0.614271    3.024487   -0.150095
     15          6           0       -1.449899    0.236265    0.113405
     16          8           0       -2.498505    0.804553    0.399605
     17          7           0       -1.370084   -1.073134   -0.243595
     18          1           0       -0.449980   -1.456724   -0.401795
     19          6           0       -2.520875   -1.956847   -0.231095
     20          1           0       -3.402481   -1.342556   -0.042395
     21          1           0       -2.633969   -2.466148   -1.195095
     22          1           0       -2.436866   -2.712446    0.559805
 ---------------------------------------------------------------------

 SCF Done:  E(RHF) =  -492.925010593     A.U. after   14 cycles
 E2 =    -0.1601726726D+01 EUMP2 =    -0.49452673731878D+03

 The electronic state is 1-A.
 Alpha  occ. eigenvalues --  -20.54238 -20.52609 -15.61049 -15.59333 -11.37627
 Alpha  occ. eigenvalues --  -11.35699 -11.29319 -11.26645 -11.25967 -11.23655
 Alpha  occ. eigenvalues --   -1.39740  -1.38047  -1.25484  -1.22613  -1.05890
 Alpha  occ. eigenvalues --   -1.00002  -0.96114  -0.87691  -0.81081  -0.78636
 Alpha  occ. eigenvalues --   -0.73162  -0.68552  -0.67075  -0.63693  -0.62259
 Alpha  occ. eigenvalues --   -0.62083  -0.60036  -0.59349  -0.58264  -0.55635
 Alpha  occ. eigenvalues --   -0.54706  -0.54282  -0.52979  -0.52105  -0.50016
 Alpha  occ. eigenvalues --   -0.44536  -0.43557  -0.39670  -0.38707
 Alpha virt. eigenvalues --    0.02242   0.03717   0.04201   0.04555   0.05623
 Alpha virt. eigenvalues --    0.06183   0.06256   0.06518   0.07180   0.08063
 Alpha virt. eigenvalues --    0.08618   0.09460   0.11552   0.12066   0.12433

 Mulliken atomic charges:
              1
     1  H    0.029787
     2  C    0.354019
     3  H   -0.159967
     4  H    0.051176
     5  C    0.572374
     6  O   -0.852387
     7  N   -0.282377
     8  H   -0.077565
     9  C   -0.325033
    10  H    0.005685
    11  C    0.799430
    12  H   -0.053830
    13  H   -0.032270
    14  H   -0.037696
    15  C    1.076726
    16  O   -0.855964
    17  N   -0.514423
    18  H   -0.072582
    19  C    0.711330
    20  H   -0.154690
    21  H   -0.101970
    22  H   -0.079772
 Sum of Mulliken atomic charges =   0.00000

 Dipole moment (field-independent basis, Debye):
    X=              2.8667    Y=             -1.3001    Z=             -4.5531  Tot=              5.5352
 Quadrupole moment (field-independent basis, Debye-Ang):
   XX=            -66.6552   YY=            -56.9171   ZZ=            -64.3570
   XY=              6.7808   XZ=             -5.7533   YZ=              1.5312

 Normal termination of Gaussian 09 at Mon Feb 13 09:31:56 2017.
