 Gaussian 09, Revision A.02,
 Gaussian 09:  EM64L-G09RevA.02 11-Jun-2009

 -------------------
 #SP MP2/aug-cc-pVDZ
 -------------------

 -------------------------------
 Single Point calculation at MP2
 -------------------------------
 Symbolic Z-matrix:
 Charge =  0 Multiplicity = 1

                         Standard orientation:
 ---------------------------------------------------------------------
 Center     Atomic      Atomic             Coordinates (Angstroms)
 Number     Number       Type             X           Y           Z
 ---------------------------------------------------------------------
      1          1           0       -3.231896   -1.752185    1.068510
      2          6           0       -3.159191   -0.686885    0.831810
      3          1           0       -3.134588   -0.112886    1.763410
      4          1           0       -4.060689   -0.414181    0.273310
      5          6           0       -1.947889   -0.462092   -0.057890
      6          8           0       -1.770993   -1.106492   -1.089990
      7          7           0       -1.066885    0.492604    0.363810
      8          1           0       -1.225782    0.981105    1.234010
      9          6           0        0.062917    0.917698   -0.463590
     10          1           0       -0.131885    0.507799   -1.457090
     11          6           0        0.166125    2.440498   -0.516690
     12          1           0        0.404227    2.842897    0.472810
     13          1           0        0.972127    2.742294   -1.193190
     14          1           0       -0.772173    2.875603   -0.874690
     15          6           0        1.349814    0.297592    0.120310
     16          8           0        2.018817    0.862989    0.977710
     17          7           0        1.645508   -0.926410   -0.403990
     18          1           0        0.937306   -1.360406   -0.984390
     19          6           0        2.725304   -1.751215    0.109610
     20          1           0        3.395607   -1.102918    0.675810
     21          1           0        2.355400   -2.542313    0.775010
     22          1           0        3.276902   -2.213718   -0.715390
 ---------------------------------------------------------------------

 SCF Done:  E(RHF) =  -492.927987605     A.U. after   14 cycles
 E2 =    -0.1601128846D+01 EUMP2 =    -0.49452911645101D+03

 The electronic state is 1-A.
 Alpha  occ. eigenvalues --  -20.53794 -20.53127 -15.60729 -15.59170 -11.37313
 Alpha  occ. eigenvalues --  -11.35668 -11.29141 -11.26486 -11.25502 -11.23483
 Alpha  occ. eigenvalues --   -1.39303  -1.38216  -1.24859  -1.22775  -1.05835
 Alpha  occ. eigenvalues --   -0.99756  -0.95998  -0.87367  -0.80842  -0.78435
 Alpha  occ. eigenvalues --   -0.72685  -0.68258  -0.66682  -0.64520  -0.62121
 Alpha  occ. eigenvalues --   -0.61531  -0.60246  -0.59063  -0.57762  -0.55846
 Alpha  occ. eigenvalues --   -0.54355  -0.53563  -0.52037  -0.51888  -0.51562
 Alpha  occ. eigenvalues --   -0.44042  -0.43357  -0.39341  -0.39004
 Alpha virt. eigenvalues --    0.02863   0.03950   0.04163   0.04878   0.05751
 Alpha virt. eigenvalues --    0.05844   0.06280   0.07012   0.07406   0.07969
 Alpha virt. eigenvalues --    0.09097   0.09554   0.11232   0.11839   0.12188

 Mulliken atomic charges:
              1
     1  H    0.043708
     2  C    0.398785
     3  H   -0.143745
     4  H    0.058356
     5  C    0.617400
     6  O   -0.887364
     7  N   -0.311860
     8  H   -0.098899
     9  C   -0.348816
    10  H   -0.232789
    11  C    0.726156
    12  H   -0.007191
    13  H   -0.011313
    14  H   -0.003709
    15  C    1.253055
    16  O   -0.837081
    17  N   -0.515212
    18  H   -0.078532
    19  C    0.736044
    20  H   -0.140024
    21  H   -0.091974
    22  H   -0.124995
 Sum of Mulliken atomic charges =   0.00000

 Dipole moment (field-independent basis, Debye):
    X=             -1.9831    Y=             -0.0312    Z=              0.7210  Tot=              2.1103
 Quadrupole moment (field-independent basis, Debye-Ang):
   XX=            -60.6889   YY=            -59.9173   ZZ=            -63.7369
   XY=             -8.9768   XZ=            -11.2667   YZ=             -4.4780

 Normal termination of Gaussian 09 at Mon Feb 13 11:15:15 2017.
