 Gaussian 09, Revision A.02,
 Gaussian 09:  EM64L-G09RevA.02 11-Jun-2009

 -------------------
 #SP MP2/aug-cc-pVDZ
 -------------------

 -------------------------------
 Single Point calculation at MP2
 -------------------------------
 Symbolic Z-matrix:
 Charge =  0 Multiplicity = 1

                         Standard orientation:
 ---------------------------------------------------------------------
 Center     Atomic      Atomic             Coordinates (Angstroms)
 Number     Number       Type             X           Y           Z
 ---------------------------------------------------------------------
      1          1           0        3.485794   -1.855614   -0.099597
      2          6           0        3.206396   -0.895514   -0.541297
      3          1           0        2.987296   -1.038813   -1.604397
      4          1           0        4.070998   -0.229116   -0.447697
      5          6           0        2.045598   -0.312111    0.251703
      6          8           0        2.037398   -0.288011    1.472403
      7          7           0        1.001699    0.177792   -0.507897
      8          1           0        1.167100    0.293992   -1.499897
      9          6           0       -0.069199    0.981895    0.082503
     10          1           0        0.258302    1.233094    1.095403
     11          6           0       -0.306895    2.268396   -0.717297
     12          1           0       -0.591296    2.043596   -1.753597
     13          1           0       -1.122594    2.832298   -0.258997
     14          1           0        0.594606    2.889693   -0.728097
     15          6           0       -1.404801    0.230199    0.261903
     16          8           0       -2.306699    0.739701    0.916403
     17          7           0       -1.523804   -0.942901   -0.420497
     18          1           0       -0.668505   -1.337503   -0.787297
     19          6           0       -2.696906   -1.789498   -0.295397
     20          1           0       -3.500804   -1.177996    0.117103
     21          1           0       -2.997607   -2.173997   -1.275897
     22          1           0       -2.519308   -2.637598    0.378603
 ---------------------------------------------------------------------

 SCF Done:  E(RHF) =  -492.924427798     A.U. after   14 cycles
 E2 =    -0.1601484379D+01 EUMP2 =    -0.49452591217692D+03

 The electronic state is 1-A.
 Alpha  occ. eigenvalues --  -20.54264 -20.52600 -15.60983 -15.59379 -11.37519
 Alpha  occ. eigenvalues --  -11.35567 -11.29176 -11.26684 -11.25901 -11.24333
 Alpha  occ. eigenvalues --   -1.39757  -1.38016  -1.25418  -1.22585  -1.05979
 Alpha  occ. eigenvalues --   -1.00094  -0.95979  -0.87971  -0.80931  -0.78397
 Alpha  occ. eigenvalues --   -0.72769  -0.68510  -0.67328  -0.63154  -0.62639
 Alpha  occ. eigenvalues --   -0.62198  -0.59680  -0.59358  -0.58279  -0.56323
 Alpha  occ. eigenvalues --   -0.54794  -0.54523  -0.53339  -0.52004  -0.49692
 Alpha  occ. eigenvalues --   -0.44453  -0.43491  -0.39571  -0.39126
 Alpha virt. eigenvalues --    0.02123   0.03637   0.04027   0.04578   0.05543
 Alpha virt. eigenvalues --    0.05963   0.06382   0.06510   0.07323   0.07953
 Alpha virt. eigenvalues --    0.08427   0.09350   0.11415   0.11856   0.12076

 Mulliken atomic charges:
              1
     1  H    0.033921
     2  C    0.339125
     3  H   -0.161486
     4  H    0.048936
     5  C    0.625099
     6  O   -0.852707
     7  N   -0.304905
     8  H   -0.043299
     9  C   -0.419428
    10  H    0.011772
    11  C    0.807016
    12  H   -0.056992
    13  H   -0.035898
    14  H   -0.063676
    15  C    1.197862
    16  O   -0.898259
    17  N   -0.562549
    18  H   -0.070059
    19  C    0.742886
    20  H   -0.136310
    21  H   -0.126201
    22  H   -0.074846
 Sum of Mulliken atomic charges =   0.00000

 Dipole moment (field-independent basis, Debye):
    X=              2.4323    Y=             -1.5482    Z=             -5.7747  Tot=              6.4544
 Quadrupole moment (field-independent basis, Debye-Ang):
   XX=            -64.4367   YY=            -56.4183   ZZ=            -66.3663
   XY=              5.1833   XZ=             -3.4366   YZ=              0.0423

 Normal termination of Gaussian 09 at Mon Feb 13 10:02:09 2017.
