 Gaussian 09, Revision A.02,
 Gaussian 09:  EM64L-G09RevA.02 11-Jun-2009

 -------------------
 #SP MP2/aug-cc-pVDZ
 -------------------

 -------------------------------
 Single Point calculation at MP2
 -------------------------------
 Symbolic Z-matrix:
 Charge =  0 Multiplicity = 1

                         Standard orientation:
 ---------------------------------------------------------------------
 Center     Atomic      Atomic             Coordinates (Angstroms)
 Number     Number       Type             X           Y           Z
 ---------------------------------------------------------------------
      1          1           0       -4.123102   -0.775106    0.729001
      2          6           0       -3.073602   -0.974106    0.955601
      3          1           0       -2.891702   -2.043306    0.795501
      4          1           0       -2.878102   -0.743906    2.008301
      5          6           0       -2.204203   -0.176705   -0.004599
      6          8           0       -2.532403    0.037795   -1.161299
      7          7           0       -1.027403    0.296395    0.536901
      8          1           0       -0.768203   -0.039505    1.455601
      9          6           0        0.044697    0.817995   -0.307299
     10          1           0       -0.381403    0.845795   -1.313399
     11          6           0        0.445497    2.235895    0.116501
     12          1           0        0.768297    2.279995    1.165301
     13          1           0        1.252097    2.627095   -0.514699
     14          1           0       -0.416103    2.902095    0.017001
     15          6           0        1.176997   -0.234305   -0.370099
     16          8           0        1.021798   -1.280005   -0.985799
     17          7           0        2.298697    0.036295    0.366701
     18          1           0        2.409497    0.957795    0.762301
     19          6           0        3.446498   -0.855505    0.378701
     20          1           0        3.120798   -1.812705   -0.030099
     21          1           0        4.268398   -0.469805   -0.237999
     22          1           0        3.809998   -0.999205    1.401901
 ---------------------------------------------------------------------

 SCF Done:  E(RHF) =  -492.917328546     A.U. after   14 cycles
 E2 =    -0.1601637867D+01 EUMP2 =    -0.49451896641350D+03

 The electronic state is 1-A.
 Alpha  occ. eigenvalues --  -20.53143 -20.52841 -15.60297 -15.59784 -11.36237
 Alpha  occ. eigenvalues --  -11.36152 -11.29140 -11.27288 -11.24855 -11.24523
 Alpha  occ. eigenvalues --   -1.38911  -1.38058  -1.24269  -1.23295  -1.05761
 Alpha  occ. eigenvalues --   -0.99286  -0.95886  -0.88874  -0.79603  -0.79403
 Alpha  occ. eigenvalues --   -0.72938  -0.67330  -0.65532  -0.65061  -0.62576
 Alpha  occ. eigenvalues --   -0.61606  -0.59136  -0.58816  -0.57543  -0.56562
 Alpha  occ. eigenvalues --   -0.55302  -0.54753  -0.52966  -0.51714  -0.50208
 Alpha  occ. eigenvalues --   -0.43842  -0.42174  -0.39754  -0.38945
 Alpha virt. eigenvalues --    0.02351   0.03596   0.03998   0.04583   0.05576
 Alpha virt. eigenvalues --    0.05950   0.06103   0.06688   0.07556   0.07948
 Alpha virt. eigenvalues --    0.08531   0.09107   0.11439   0.11536   0.12724

 Mulliken atomic charges:
              1
     1  H   -0.004374
     2  C    0.346302
     3  H    0.068892
     4  H   -0.103991
     5  C    0.672087
     6  O   -0.827701
     7  N   -0.453959
     8  H   -0.099688
     9  C   -0.159881
    10  H   -0.085962
    11  C    0.783782
    12  H    0.025874
    13  H   -0.019303
    14  H   -0.155395
    15  C    1.101201
    16  O   -0.867159
    17  N   -0.520859
    18  H   -0.129528
    19  C    0.783556
    20  H   -0.142761
    21  H   -0.080833
    22  H   -0.130301
 Sum of Mulliken atomic charges =   0.00000

 Dipole moment (field-independent basis, Debye):
    X=              2.9793    Y=              2.3196    Z=              5.3185  Tot=              6.5226
 Quadrupole moment (field-independent basis, Debye-Ang):
   XX=            -56.9138   YY=            -61.2621   ZZ=            -64.0922
   XY=              5.4019   XZ=             -5.5747   YZ=             -4.1199

 Normal termination of Gaussian 09 at Mon Feb 13 11:22:13 2017.
