 Gaussian 09, Revision A.02,
 Gaussian 09:  EM64L-G09RevA.02 11-Jun-2009

 -------------------
 #SP MP2/aug-cc-pVDZ
 -------------------

 -------------------------------
 Single Point calculation at MP2
 -------------------------------
 Symbolic Z-matrix:
 Charge =  0 Multiplicity = 1

                         Standard orientation:
 ---------------------------------------------------------------------
 Center     Atomic      Atomic             Coordinates (Angstroms)
 Number     Number       Type             X           Y           Z
 ---------------------------------------------------------------------
      1          1           0        4.191890   -0.889416   -0.142896
      2          6           0        3.207389   -0.970213   -0.606596
      3          1           0        2.882886   -2.016512   -0.552396
      4          1           0        3.272990   -0.687614   -1.662696
      5          6           0        2.223792   -0.105410    0.163504
      6          8           0        2.397393    0.214389    1.330504
      7          7           0        1.124993    0.306593   -0.566296
      8          1           0        0.941592   -0.228807   -1.406596
      9          6           0       -0.060705    0.789996    0.128204
     10          1           0        0.241895    0.876095    1.179204
     11          6           0       -0.475601    2.177698   -0.384196
     12          1           0       -0.838401    2.139799   -1.417796
     13          1           0       -1.253700    2.633000    0.241404
     14          1           0        0.391301    2.843095   -0.352196
     15          6           0       -1.147909   -0.310100    0.061304
     16          8           0       -0.836512   -1.493601   -0.014696
     17          7           0       -2.443707    0.116803    0.059604
     18          1           0       -2.632904    1.101504    0.165404
     19          6           0       -3.566110   -0.806293    0.087504
     20          1           0       -3.178613   -1.801094   -0.134796
     21          1           0       -4.050110   -0.826292    1.072104
     22          1           0       -4.310009   -0.527891   -0.666696
 ---------------------------------------------------------------------

 SCF Done:  E(RHF) =  -492.921239886     A.U. after   14 cycles
 E2 =    -0.1600886260D+01 EUMP2 =    -0.49452212614594D+03

 The electronic state is 1-A.
 Alpha  occ. eigenvalues --  -20.53501 -20.52936 -15.60281 -15.58844 -11.36528
 Alpha  occ. eigenvalues --  -11.35805 -11.29141 -11.27317 -11.24678 -11.24051
 Alpha  occ. eigenvalues --   -1.39207  -1.38026  -1.23957  -1.23316  -1.05533
 Alpha  occ. eigenvalues --   -0.99013  -0.95869  -0.88545  -0.79660  -0.78557
 Alpha  occ. eigenvalues --   -0.73135  -0.67227  -0.65645  -0.64455  -0.62510
 Alpha  occ. eigenvalues --   -0.61637  -0.59532  -0.58729  -0.57075  -0.56359
 Alpha  occ. eigenvalues --   -0.55198  -0.54436  -0.53461  -0.51754  -0.49564
 Alpha  occ. eigenvalues --   -0.43056  -0.42195  -0.39970  -0.39677
 Alpha virt. eigenvalues --    0.02680   0.03783   0.04249   0.04571   0.05767
 Alpha virt. eigenvalues --    0.05923   0.06182   0.06937   0.07360   0.08059
 Alpha virt. eigenvalues --    0.08905   0.09241   0.11342   0.12487   0.12740

 Mulliken atomic charges:
              1
     1  H   -0.043463
     2  C    0.339005
     3  H    0.082374
     4  H   -0.046752
     5  C    0.658658
     6  O   -0.836780
     7  N   -0.517036
     8  H   -0.036194
     9  C   -0.037314
    10  H   -0.046100
    11  C    0.790062
    12  H   -0.028216
    13  H    0.018784
    14  H   -0.129223
    15  C    0.959384
    16  O   -0.862386
    17  N   -0.521706
    18  H   -0.128482
    19  C    0.743827
    20  H   -0.148766
    21  H   -0.079515
    22  H   -0.130158
 Sum of Mulliken atomic charges =   0.00000

 Dipole moment (field-independent basis, Debye):
    X=             -3.1766    Y=              2.1198    Z=             -2.9857  Tot=              4.8475
 Quadrupole moment (field-independent basis, Debye-Ang):
   XX=            -53.4646   YY=            -62.7843   ZZ=            -63.8888
   XY=             -6.5877   XZ=             -8.9951   YZ=              0.9166

 Normal termination of Gaussian 09 at Mon Feb 13 10:33:33 2017.
