 Gaussian 09, Revision A.02,
 Gaussian 09:  EM64L-G09RevA.02 11-Jun-2009

 -------------------
 #SP MP2/aug-cc-pVDZ
 -------------------

 -------------------------------
 Single Point calculation at MP2
 -------------------------------
 Symbolic Z-matrix:
 Charge =  0 Multiplicity = 1

                         Standard orientation:
 ---------------------------------------------------------------------
 Center     Atomic      Atomic             Coordinates (Angstroms)
 Number     Number       Type             X           Y           Z
 ---------------------------------------------------------------------
      1          1           0        4.117484   -0.459408   -0.628901
      2          6           0        3.185783   -1.032805   -0.666001
      3          1           0        3.385780   -2.007705   -0.211801
      4          1           0        2.900782   -1.181904   -1.712601
      5          6           0        2.133685   -0.314901    0.168399
      6          8           0        2.278486   -0.121002    1.365099
      7          7           0        1.010486    0.084002   -0.523501
      8          1           0        1.049986    0.043102   -1.533301
      9          6           0       -0.024611    0.918205    0.087299
     10          1           0        0.377090    1.236204    1.051399
     11          6           0       -0.342408    2.137406   -0.786301
     12          1           0       -0.703908    1.844107   -1.780201
     13          1           0       -1.123006    2.745109   -0.318101
     14          1           0        0.550994    2.757903   -0.912101
     15          6           0       -1.300914    0.122909    0.444199
     16          8           0       -1.762214    0.134911    1.575899
     17          7           0       -1.929816   -0.485889   -0.611701
     18          1           0       -1.394516   -0.622391   -1.458101
     19          6           0       -3.094518   -1.334585   -0.415701
     20          1           0       -3.610117   -0.987684    0.480599
     21          1           0       -3.765018   -1.253783   -1.277001
     22          1           0       -2.822521   -2.388986   -0.272801
 ---------------------------------------------------------------------

 SCF Done:  E(RHF) =  -492.917659929     A.U. after   14 cycles
 E2 =    -0.1600664409D+01 EUMP2 =    -0.49451832433794D+03

 The electronic state is 1-A.
 Alpha  occ. eigenvalues --  -20.53518 -20.53220 -15.60728 -15.59601 -11.36968
 Alpha  occ. eigenvalues --  -11.35728 -11.29153 -11.26899 -11.25420 -11.24978
 Alpha  occ. eigenvalues --   -1.39151  -1.38366  -1.25012  -1.22759  -1.06056
 Alpha  occ. eigenvalues --   -0.99855  -0.95708  -0.88586  -0.80749  -0.78723
 Alpha  occ. eigenvalues --   -0.72455  -0.68016  -0.66871  -0.63803  -0.62507
 Alpha  occ. eigenvalues --   -0.62052  -0.59333  -0.59135  -0.58231  -0.56783
 Alpha  occ. eigenvalues --   -0.55075  -0.54687  -0.52776  -0.51744  -0.50780
 Alpha  occ. eigenvalues --   -0.44318  -0.42856  -0.39453  -0.39188
 Alpha virt. eigenvalues --    0.01922   0.03607   0.03820   0.04533   0.05525
 Alpha virt. eigenvalues --    0.05683   0.06299   0.06751   0.07279   0.07631
 Alpha virt. eigenvalues --    0.08707   0.09258   0.10634   0.11803   0.12243

 Mulliken atomic charges:
              1
     1  H    0.045668
     2  C    0.382936
     3  H    0.049194
     4  H   -0.183732
     5  C    0.592637
     6  O   -0.835607
     7  N   -0.228094
     8  H   -0.076928
     9  C   -0.176143
    10  H   -0.155639
    11  C    0.909340
    12  H   -0.067395
    13  H   -0.053903
    14  H   -0.076568
    15  C    0.958705
    16  O   -0.811104
    17  N   -0.579173
    18  H   -0.084736
    19  C    0.740770
    20  H   -0.118351
    21  H   -0.152125
    22  H   -0.079753
 Sum of Mulliken atomic charges =   0.00000

 Dipole moment (field-independent basis, Debye):
    X=              0.2992    Y=             -0.5719    Z=             -7.3717  Tot=              7.3999
 Quadrupole moment (field-independent basis, Debye-Ang):
   XX=            -60.8483   YY=            -56.8368   ZZ=            -67.8688
   XY=              0.9032   XZ=             -2.1693   YZ=              1.2062

 Normal termination of Gaussian 09 at Mon Feb 13 11:51:28 2017.
