 Gaussian 09, Revision A.02,
 Gaussian 09:  EM64L-G09RevA.02 11-Jun-2009

 -------------------
 #SP MP2/aug-cc-pVDZ
 -------------------

 -------------------------------
 Single Point calculation at MP2
 -------------------------------
 Symbolic Z-matrix:
 Charge =  0 Multiplicity = 1

                         Standard orientation:
 ---------------------------------------------------------------------
 Center     Atomic      Atomic             Coordinates (Angstroms)
 Number     Number       Type             X           Y           Z
 ---------------------------------------------------------------------
      1          1           0        3.393386   -1.655588   -0.862101
      2          6           0        3.200783   -0.586289   -0.741501
      3          1           0        3.156081   -0.113889   -1.727701
      4          1           0        4.045281   -0.162186   -0.187301
      5          6           0        1.936182   -0.402693    0.080099
      6          8           0        1.743384   -1.021194    1.126599
      7          7           0        1.011379    0.465703   -0.422801
      8          1           0        1.226277    0.969704   -1.272901
      9          6           0       -0.101323    0.974800    0.386699
     10          1           0        0.129378    0.685000    1.417199
     11          6           0       -0.215728    2.491699    0.268599
     12          1           0       -0.431229    2.790099   -0.762801
     13          1           0       -1.042729    2.854796    0.883699
     14          1           0        0.711371    2.971302    0.598799
     15          6           0       -1.421620    0.278095   -0.022601
     16          8           0       -2.386422    0.893792   -0.461001
     17          7           0       -1.379116   -1.072705    0.146299
     18          1           0       -0.539214   -1.467802    0.555799
     19          6           0       -2.493013   -1.943508   -0.177501
     20          1           0       -3.292315   -1.319611   -0.580501
     21          1           0       -2.207510   -2.690707   -0.927901
     22          1           0       -2.862011   -2.465510    0.713699
 ---------------------------------------------------------------------

 SCF Done:  E(RHF) =  -492.926996924     A.U. after   14 cycles
 E2 =    -0.1601992938D+01 EUMP2 =    -0.49452898986203D+03

 The electronic state is 1-A.
 Alpha  occ. eigenvalues --  -20.54284 -20.52890 -15.61005 -15.58475 -11.37665
 Alpha  occ. eigenvalues --  -11.35450 -11.29322 -11.26190 -11.25874 -11.23525
 Alpha  occ. eigenvalues --   -1.39689  -1.37986  -1.25226  -1.22257  -1.05929
 Alpha  occ. eigenvalues --   -1.00002  -0.95875  -0.87296  -0.81060  -0.78096
 Alpha  occ. eigenvalues --   -0.72476  -0.68727  -0.67073  -0.64307  -0.62131
 Alpha  occ. eigenvalues --   -0.61374  -0.60176  -0.59250  -0.58092  -0.55043
 Alpha  occ. eigenvalues --   -0.54244  -0.53334  -0.52944  -0.52196  -0.51115
 Alpha  occ. eigenvalues --   -0.44365  -0.43776  -0.39637  -0.38216
 Alpha virt. eigenvalues --    0.02589   0.03997   0.04286   0.04576   0.05832
 Alpha virt. eigenvalues --    0.05880   0.06442   0.06850   0.07130   0.08063
 Alpha virt. eigenvalues --    0.09338   0.09805   0.11100   0.11939   0.12371

 Mulliken atomic charges:
              1
     1  H    0.038702
     2  C    0.389466
     3  H   -0.134313
     4  H    0.064762
     5  C    0.568091
     6  O   -0.894280
     7  N   -0.339478
     8  H   -0.086279
     9  C   -0.230212
    10  H   -0.144364
    11  C    0.817920
    12  H   -0.023160
    13  H   -0.040924
    14  H   -0.022392
    15  C    1.101069
    16  O   -0.808245
    17  N   -0.533612
    18  H   -0.104629
    19  C    0.740030
    20  H   -0.162876
    21  H   -0.100524
    22  H   -0.094749
 Sum of Mulliken atomic charges =   0.00000

 Dipole moment (field-independent basis, Debye):
    X=              3.1054    Y=             -0.0092    Z=             -1.7525  Tot=              3.5658
 Quadrupole moment (field-independent basis, Debye-Ang):
   XX=            -64.0169   YY=            -59.2714   ZZ=            -62.4195
   XY=              9.3391   XZ=             -9.2624   YZ=              3.5122

 Normal termination of Gaussian 09 at Mon Feb 13 10:32:54 2017.
