 Gaussian 09, Revision A.02,
 Gaussian 09:  EM64L-G09RevA.02 11-Jun-2009

 -------------------
 #SP MP2/aug-cc-pVDZ
 -------------------

 -------------------------------
 Single Point calculation at MP2
 -------------------------------
 Symbolic Z-matrix:
 Charge =  0 Multiplicity = 1

                         Standard orientation:
 ---------------------------------------------------------------------
 Center     Atomic      Atomic             Coordinates (Angstroms)
 Number     Number       Type             X           Y           Z
 ---------------------------------------------------------------------
      1          1           0        3.464204   -1.736257   -0.510991
      2          6           0        3.196894   -0.690859   -0.684491
      3          1           0        3.038892   -0.530261   -1.755791
      4          1           0        4.045588   -0.077551   -0.361891
      5          6           0        1.987890   -0.342671    0.171009
      6          8           0        1.895394   -0.692772    1.342309
      7          7           0        1.010484    0.385420   -0.456591
      8          1           0        1.152481    0.659021   -1.419491
      9          6           0       -0.113722    0.995909    0.250809
     10          1           0        0.130979    0.898711    1.315509
     11          6           0       -0.260036    2.473208   -0.116191
     12          1           0       -0.423637    2.598106   -1.193791
     13          1           0       -1.126740    2.895700    0.394709
     14          1           0        0.639558    3.027216    0.169009
     15          6           0       -1.451715    0.242796    0.050009
     16          8           0       -2.524821    0.833786    0.098009
     17          7           0       -1.336002   -1.098702   -0.154591
     18          1           0       -0.419398   -1.509394   -0.047391
     19          6           0       -2.492194   -1.975913   -0.201791
     20          1           0       -3.374900   -1.350422   -0.341891
     21          1           0       -2.407887   -2.679113   -1.037491
     22          1           0       -2.607789   -2.545714    0.729109
 ---------------------------------------------------------------------

 SCF Done:  E(RHF) =  -492.925171692     A.U. after   14 cycles
 E2 =    -0.1601579970D+01 EUMP2 =    -0.49452675166180D+03

 The electronic state is 1-A.
 Alpha  occ. eigenvalues --  -20.54254 -20.52872 -15.60991 -15.59104 -11.37632
 Alpha  occ. eigenvalues --  -11.35725 -11.29415 -11.26507 -11.25926 -11.23490
 Alpha  occ. eigenvalues --   -1.39713  -1.38184  -1.25420  -1.22510  -1.05902
 Alpha  occ. eigenvalues --   -0.99961  -0.95997  -0.87564  -0.81101  -0.78522
 Alpha  occ. eigenvalues --   -0.73061  -0.68587  -0.66926  -0.64070  -0.62226
 Alpha  occ. eigenvalues --   -0.61941  -0.60000  -0.59249  -0.58222  -0.55198
 Alpha  occ. eigenvalues --   -0.54590  -0.54000  -0.53026  -0.52185  -0.50375
 Alpha  occ. eigenvalues --   -0.44561  -0.43640  -0.39970  -0.38383
 Alpha virt. eigenvalues --    0.02403   0.03796   0.04357   0.04507   0.05718
 Alpha virt. eigenvalues --    0.06049   0.06327   0.06603   0.07161   0.08057
 Alpha virt. eigenvalues --    0.08982   0.09572   0.11352   0.12150   0.12429

 Mulliken atomic charges:
              1
     1  H    0.031066
     2  C    0.353131
     3  H   -0.144874
     4  H    0.063042
     5  C    0.548711
     6  O   -0.860099
     7  N   -0.230215
     8  H   -0.096736
     9  C   -0.251960
    10  H   -0.042029
    11  C    0.796591
    12  H   -0.064940
    13  H   -0.025556
    14  H   -0.034649
    15  C    1.040599
    16  O   -0.834470
    17  N   -0.528611
    18  H   -0.090456
    19  C    0.721905
    20  H   -0.152563
    21  H   -0.122923
    22  H   -0.074966
 Sum of Mulliken atomic charges =   0.00000

 Dipole moment (field-independent basis, Debye):
    X=              2.9756    Y=             -0.8356    Z=             -3.5441  Tot=              4.7025
 Quadrupole moment (field-independent basis, Debye-Ang):
   XX=            -66.5099   YY=            -57.6474   ZZ=            -63.4440
   XY=              7.8695   XZ=             -7.2134   YZ=              2.2417

 Normal termination of Gaussian 09 at Mon Feb 13 10:21:59 2017.
