 Gaussian 09, Revision A.02,
 Gaussian 09:  EM64L-G09RevA.02 11-Jun-2009

 ----------------------------------------------------------------------
 #MP2/cc-pvTZ density=MP2, maxdisk=16GB, pop=(minimal, MK), 5d, punch=m
 o
 ----------------------------------------------------------------------

 -----------------
 Generated by mdgx
 -----------------
 Symbolic Z-matrix:
 Charge =  0 Multiplicity = 1

                         Standard orientation:
 ---------------------------------------------------------------------
 Center     Atomic      Atomic             Coordinates (Angstroms)
 Number     Number       Type             X           Y           Z
 ---------------------------------------------------------------------
      1          1           0        3.585201   -1.480052   -0.689404
      2          6           0        3.341439   -0.573292   -0.135809
      3          1           0        3.840625    0.336381   -0.469584
      4          1           0        3.559351   -0.743493    0.918538
      5          6           0        1.894781   -0.370897   -0.229259
      6          8           0        1.302136   -0.879520   -1.139632
      7          7           0        1.359328    0.466020    0.655936
      8          1           0        1.989786    0.808305    1.366896
      9          6           0       -0.051239    0.964983    0.676436
     10          1           0       -0.311324    1.381201    1.649687
     11          6           0       -0.188811    2.096336   -0.414815
     12          1           0        0.607847    2.833153   -0.312171
     13          1           0       -0.047793    1.702771   -1.421453
     14          1           0       -1.188860    2.526143   -0.357641
     15          6           0       -1.113891   -0.184729    0.501864
     16          8           0       -0.955806   -1.275515    1.086854
     17          7           0       -2.128152    0.145056   -0.283657
     18          1           0       -2.114140    1.058959   -0.713406
     19          6           0       -3.316621   -0.716031   -0.494504
     20          1           0       -4.186693   -0.112966   -0.234913
     21          1           0       -3.212308   -1.070665   -1.519908
     22          1           0       -3.304513   -1.575211    0.176141
 ---------------------------------------------------------------------

 SCF Done:  E(RHF) =  -493.003805306     A.U. after   13 cycles
 E2 =    -0.1886163549D+01 EUMP2 =    -0.49488996885577D+03

 The electronic state is 1-A.
 Alpha  occ. eigenvalues --  -20.49668 -20.49636 -15.58547 -15.58268 -11.34383
 Alpha  occ. eigenvalues --  -11.32567 -11.30146 -11.26356 -11.23977 -11.22223
 Alpha  occ. eigenvalues --   -1.38198  -1.34945  -1.23272  -1.22851  -1.05430
 Alpha  occ. eigenvalues --   -0.99444  -0.95525  -0.89031  -0.79733  -0.77304
 Alpha  occ. eigenvalues --   -0.70622  -0.68615  -0.64494  -0.63480  -0.62979
 Alpha  occ. eigenvalues --   -0.62318  -0.59301  -0.57351  -0.56477  -0.55886
 Alpha  occ. eigenvalues --   -0.54799  -0.54176  -0.52549  -0.51498  -0.49496
 Alpha  occ. eigenvalues --   -0.41065  -0.40663  -0.38900  -0.38489
 Alpha virt. eigenvalues --    0.11644   0.13744   0.15910   0.16123   0.18335
 Alpha virt. eigenvalues --    0.19268   0.20110   0.20895   0.21087   0.22521
 Alpha virt. eigenvalues --    0.23151   0.23513   0.24733   0.24845   0.28473

 Mulliken atomic charges:
              1
     1  H    0.146854
     2  C   -0.384060
     3  H    0.130919
     4  H    0.103926
     5  C    0.200088
     6  O   -0.322443
     7  N   -0.159359
     8  H    0.179722
     9  C   -0.073480
    10  H    0.158131
    11  C   -0.394588
    12  H    0.133906
    13  H    0.153190
    14  H    0.102727
    15  C    0.162032
    16  O   -0.342074
    17  N   -0.133928
    18  H    0.195503
    19  C   -0.271466
    20  H    0.121625
    21  H    0.137653
    22  H    0.155122
 Sum of Mulliken atomic charges =   0.00000

 Dipole moment (field-independent basis, Debye):
    X=             -0.7100    Y=              4.6515    Z=              0.5570  Tot=              4.7382
 Quadrupole moment (field-independent basis, Debye-Ang):
   XX=            -47.1967   YY=            -62.5106   ZZ=            -63.5261
   XY=             -0.0776   XZ=              6.7433   YZ=              1.8801

 Normal termination of Gaussian 09 at Sun Mar 19 17:54:52 2017.
