 Gaussian 09, Revision A.02,
 Gaussian 09:  EM64L-G09RevA.02 11-Jun-2009

 ----------------------------------------------------------------------
 # b3lyp/6-31G* Opt=(ModRedundant, maxcycles=1000, calcfc) geom=nocrowd
 ----------------------------------------------------------------------

 ------------------
 Phi Psi fixed scan
 ------------------
 Symbolic Z-matrix:
 Charge =  0 Multiplicity = 1

 SCF Done:  E(RB3LYP) =  -990.482244413     A.U. after   14 cycles

  Exact polarizability:   0.000   0.000   0.000   0.000   0.000   0.000
 Approx polarizability: 236.589 -24.598 222.920  -0.013 -17.034 209.918

 SCF Done:  E(RB3LYP) =  -990.489447166     A.U. after   11 cycles
 SCF Done:  E(RB3LYP) =  -990.497411672     A.U. after   12 cycles
 SCF Done:  E(RB3LYP) =  -990.499428507     A.U. after   12 cycles
 SCF Done:  E(RB3LYP) =  -990.500952539     A.U. after   13 cycles
 SCF Done:  E(RB3LYP) =  -990.501703637     A.U. after   13 cycles
 SCF Done:  E(RB3LYP) =  -990.502060702     A.U. after   12 cycles
 SCF Done:  E(RB3LYP) =  -990.384582182     A.U. after   16 cycles
 SCF Done:  E(RB3LYP) =  -990.502098146     A.U. after   15 cycles
 SCF Done:  E(RB3LYP) =  -990.502184756     A.U. after   11 cycles
 SCF Done:  E(RB3LYP) =  -990.502251784     A.U. after   10 cycles
 SCF Done:  E(RB3LYP) =  -990.502253988     A.U. after    9 cycles
 SCF Done:  E(RB3LYP) =  -990.502256568     A.U. after    9 cycles
 SCF Done:  E(RB3LYP) =  -990.502258969     A.U. after    9 cycles
 SCF Done:  E(RB3LYP) =  -990.502263709     A.U. after    9 cycles
 SCF Done:  E(RB3LYP) =  -990.502267164     A.U. after   10 cycles
 SCF Done:  E(RB3LYP) =  -990.502267967     A.U. after    8 cycles
 SCF Done:  E(RB3LYP) =  -990.502268217     A.U. after    7 cycles
 SCF Done:  E(RB3LYP) =  -990.502268314     A.U. after    7 cycles
 SCF Done:  E(RB3LYP) =  -990.502268347     A.U. after    6 cycles
 Optimization completed.
    -- Stationary point found.

                         Standard orientation:
 ---------------------------------------------------------------------
 Center     Atomic      Atomic             Coordinates (Angstroms)
 Number     Number       Type             X           Y           Z
 ---------------------------------------------------------------------
      1          1           0       -5.759111   -3.195736    0.387943
      2          6           0       -5.080610   -2.861185   -0.403002
      3          1           0       -5.582720   -3.038956   -1.359096
      4          1           0       -4.165095   -3.459360   -0.363492
      5          6           0       -4.841356   -1.366513   -0.245464
      6          8           0       -5.760570   -0.552436   -0.271711
      7          7           0       -3.542567   -0.995445   -0.070214
      8          1           0       -2.778588   -1.659908   -0.105713
      9          6           0       -3.147232    0.394597    0.039249
     10          1           0       -3.746545    0.977094   -0.671635
     11          6           0       -3.382954    0.954652    1.456672
     12          1           0       -2.780189    0.407982    2.188562
     13          1           0       -3.116350    2.015939    1.517428
     14          1           0       -4.441669    0.845966    1.704730
     15          6           0       -1.660189    0.469449   -0.335535
     16          8           0       -0.939484   -0.525143   -0.310863
     17          7           0       -1.216329    1.704268   -0.700187
     18          1           0       -1.871904    2.468443   -0.596006
     19          6           0        0.198643    2.088419   -0.755021
     20          1           0        0.578881    1.868776   -1.762093
     21          6           0        0.326803    3.587924   -0.480270
     22          1           0        0.033101    3.799088    0.552234
     23          1           0        1.363560    3.910098   -0.616488
     24          1           0       -0.299605    4.167614   -1.168424
     25          6           0        1.037496    1.305751    0.282173
     26          8           0        0.841224    1.446854    1.485770
     27          7           0        2.032427    0.548085   -0.234733
     28          1           0        2.096185    0.356612   -1.228069
     29          6           0        2.880475   -0.282714    0.599525
     30          1           0        3.211564    0.322582    1.451591
     31          6           0        2.137937   -1.527045    1.127866
     32          1           0        1.818838   -2.160711    0.294906
     33          1           0        2.781298   -2.114931    1.792726
     34          1           0        1.253015   -1.205861    1.680698
     35          6           0        4.080893   -0.693769   -0.266320
     36          8           0        4.002797   -0.719767   -1.492173
     37          7           0        5.194247   -1.055674    0.425780
     38          1           0        5.176531   -0.986154    1.433453
     39          6           0        6.399445   -1.551745   -0.217304
     40          1           0        6.219373   -1.549900   -1.292885
     41          1           0        7.257726   -0.907124    0.004109
     42          1           0        6.629420   -2.573189    0.107405
 ---------------------------------------------------------------------

 The electronic state is 1-A.
 Alpha  occ. eigenvalues --  -19.12671 -19.12436 -19.10871 -19.09630 -14.37550
 Alpha  occ. eigenvalues --  -14.37210 -14.35532 -14.34772 -10.29613 -10.29546
 Alpha  occ. eigenvalues --  -10.28421 -10.27651 -10.24495 -10.23847 -10.23413
 Alpha  occ. eigenvalues --  -10.22748 -10.19654 -10.18325 -10.18049 -10.18027
 Alpha  occ. eigenvalues --   -1.04788  -1.04428  -1.02665  -1.01632  -0.93475
 Alpha  occ. eigenvalues --   -0.93282  -0.92165  -0.91249  -0.79538  -0.77331
 Alpha  occ. eigenvalues --   -0.75873  -0.71858  -0.71541  -0.67403  -0.65666
 Alpha  occ. eigenvalues --   -0.63245  -0.60464  -0.59323  -0.57875  -0.57232
 Alpha  occ. eigenvalues --   -0.54253  -0.52321  -0.50466  -0.48669  -0.47950
 Alpha  occ. eigenvalues --   -0.47249  -0.46300  -0.45677  -0.45194  -0.44790
 Alpha  occ. eigenvalues --   -0.44014  -0.43192  -0.42231  -0.41714  -0.41232
 Alpha  occ. eigenvalues --   -0.40708  -0.40369  -0.40116  -0.39790  -0.38621
 Alpha  occ. eigenvalues --   -0.38463  -0.37886  -0.37741  -0.37348  -0.36822
 Alpha  occ. eigenvalues --   -0.36636  -0.36132  -0.34927  -0.33605  -0.27579
 Alpha  occ. eigenvalues --   -0.26826  -0.26546  -0.26456  -0.24933  -0.24327
 Alpha  occ. eigenvalues --   -0.24130  -0.23630
 Alpha virt. eigenvalues --    0.01057   0.01693   0.03021   0.04111   0.06323
 Alpha virt. eigenvalues --    0.06753   0.09349   0.10027   0.11466   0.12126
 Alpha virt. eigenvalues --    0.13429   0.13746   0.14164   0.14673   0.15126

 Mulliken atomic charges:
              1
     1  H    0.181796
     2  C   -0.532903
     3  H    0.181768
     4  H    0.147122
     5  C    0.597849
     6  O   -0.525189
     7  N   -0.604913
     8  H    0.345188
     9  C   -0.040381
    10  H    0.170474
    11  C   -0.442630
    12  H    0.166159
    13  H    0.137327
    14  H    0.187366
    15  C    0.626632
    16  O   -0.536167
    17  N   -0.614651
    18  H    0.333768
    19  C    0.001892
    20  H    0.149450
    21  C   -0.490118
    22  H    0.185507
    23  H    0.169525
    24  H    0.150637
    25  C    0.646850
    26  O   -0.548680
    27  N   -0.607916
    28  H    0.350668
    29  C   -0.040021
    30  H    0.163070
    31  C   -0.439075
    32  H    0.167732
    33  H    0.129957
    34  H    0.197509
    35  C    0.609335
    36  O   -0.531191
    37  N   -0.593127
    38  H    0.330887
    39  C   -0.313282
    40  H    0.207468
    41  H    0.162148
    42  H    0.162159
 Sum of Mulliken atomic charges =   0.00000

 Dipole moment (field-independent basis, Debye):
    X=              5.0502    Y=              0.1218    Z=              0.7173  Tot=              5.1023
 Quadrupole moment (field-independent basis, Debye-Ang):
   XX=           -120.4114   YY=           -104.8250   ZZ=           -122.4385
   XY=             -3.9934   XZ=              9.4382   YZ=             -7.7531

 Normal termination of Gaussian 09 at Fri Dec 30 01:22:43 2016.
