 Gaussian 09, Revision A.02,
 Gaussian 09:  EM64L-G09RevA.02 11-Jun-2009

 ----------------------------------------------------------------------
 # b3lyp/6-31G* Opt=(ModRedundant, maxcycles=1000, calcfc) geom=nocrowd
 ----------------------------------------------------------------------

 ------------------
 Phi Psi fixed scan
 ------------------
 Symbolic Z-matrix:
 Charge =  0 Multiplicity = 1

 SCF Done:  E(RB3LYP) =  -990.477771209     A.U. after   15 cycles

  Exact polarizability:   0.000   0.000   0.000   0.000   0.000   0.000
 Approx polarizability: 211.231  -2.992 215.878  31.781 -11.029 242.463

 SCF Done:  E(RB3LYP) =  -990.485883000     A.U. after   11 cycles
 SCF Done:  E(RB3LYP) =  -990.495069082     A.U. after   13 cycles
 SCF Done:  E(RB3LYP) =  -990.497755097     A.U. after   14 cycles
 SCF Done:  E(RB3LYP) =  -990.499819143     A.U. after   13 cycles
 SCF Done:  E(RB3LYP) =  -990.500204297     A.U. after   14 cycles
 SCF Done:  E(RB3LYP) =  -990.500617549     A.U. after   13 cycles
 SCF Done:  E(RB3LYP) =  -990.499814756     A.U. after   14 cycles
 SCF Done:  E(RB3LYP) =  -990.500811783     A.U. after   12 cycles
 SCF Done:  E(RB3LYP) =  -990.408397089     A.U. after   16 cycles
 SCF Done:  E(RB3LYP) =  -990.501105967     A.U. after    8 cycles
 SCF Done:  E(RB3LYP) =  -990.501106192     A.U. after    8 cycles
 SCF Done:  E(RB3LYP) =  -990.501106347     A.U. after    7 cycles
 SCF Done:  E(RB3LYP) =  -990.501106492     A.U. after    7 cycles
 SCF Done:  E(RB3LYP) =  -990.501106712     A.U. after    7 cycles
 SCF Done:  E(RB3LYP) =  -990.501106951     A.U. after    7 cycles
 SCF Done:  E(RB3LYP) =  -990.501107078     A.U. after    7 cycles
 SCF Done:  E(RB3LYP) =  -990.501107097     A.U. after    7 cycles
 SCF Done:  E(RB3LYP) =  -990.501107096     A.U. after    7 cycles
 SCF Done:  E(RB3LYP) =  -990.501107091     A.U. after    6 cycles
 Optimization completed.
    -- Stationary point found.

                         Standard orientation:
 ---------------------------------------------------------------------
 Center     Atomic      Atomic             Coordinates (Angstroms)
 Number     Number       Type             X           Y           Z
 ---------------------------------------------------------------------
      1          1           0        5.779737    1.020344   -1.847375
      2          6           0        4.937406    1.545418   -1.386422
      3          1           0        4.214599    1.812919   -2.163285
      4          1           0        5.332165    2.461855   -0.936545
      5          6           0        4.355996    0.668739   -0.286610
      6          8           0        5.035686    0.264647    0.653067
      7          7           0        3.032587    0.371172   -0.412046
      8          1           0        2.493633    0.635780   -1.228244
      9          6           0        2.352674   -0.510345    0.515781
     10          1           0        3.038111   -1.327478    0.774712
     11          6           0        1.940153    0.215928    1.812995
     12          1           0        1.199022    0.994097    1.604945
     13          1           0        1.508709   -0.482853    2.539451
     14          1           0        2.830428    0.666030    2.259116
     15          6           0        1.121239   -1.064707   -0.218236
     16          8           0        0.690659   -0.539471   -1.241498
     17          7           0        0.537297   -2.146115    0.368587
     18          1           0        0.967438   -2.515856    1.206400
     19          6           0       -0.728873   -2.758766   -0.053166
     20          1           0       -0.532648   -3.472354   -0.861675
     21          6           0       -1.364216   -3.497266    1.129129
     22          1           0       -1.603341   -2.811789    1.948657
     23          1           0       -2.289465   -3.984004    0.807614
     24          1           0       -0.690158   -4.275364    1.508052
     25          6           0       -1.706735   -1.743848   -0.685695
     26          8           0       -2.208560   -1.948806   -1.781338
     27          7           0       -2.075791   -0.713569    0.132093
     28          1           0       -1.484235   -0.474995    0.924041
     29          6           0       -2.768824    0.439472   -0.416574
     30          1           0       -2.523663    0.505933   -1.484464
     31          6           0       -4.295170    0.308073   -0.268477
     32          1           0       -4.576363    0.241495    0.787639
     33          1           0       -4.822008    1.159309   -0.714997
     34          1           0       -4.620006   -0.602539   -0.778810
     35          6           0       -2.215905    1.681071    0.308047
     36          8           0       -1.491959    1.579142    1.298434
     37          7           0       -2.602026    2.873703   -0.213521
     38          1           0       -3.155913    2.869905   -1.058299
     39          6           0       -2.180331    4.152632    0.333821
     40          1           0       -1.625196    3.950125    1.250137
     41          1           0       -1.529703    4.689190   -0.366745
     42          1           0       -3.046718    4.781406    0.566995
 ---------------------------------------------------------------------

 The electronic state is 1-A.
 Alpha  occ. eigenvalues --  -19.12946 -19.12828 -19.10933 -19.09683 -14.37759
 Alpha  occ. eigenvalues --  -14.37666 -14.34892 -14.34783 -10.29955 -10.29813
 Alpha  occ. eigenvalues --  -10.28328 -10.27687 -10.24296 -10.23761 -10.23515
 Alpha  occ. eigenvalues --  -10.22917 -10.20188 -10.18883 -10.18372 -10.17922
 Alpha  occ. eigenvalues --   -1.05009  -1.04729  -1.02708  -1.01685  -0.93906
 Alpha  occ. eigenvalues --   -0.93540  -0.91732  -0.91278  -0.79730  -0.77359
 Alpha  occ. eigenvalues --   -0.75998  -0.71893  -0.71765  -0.67373  -0.65713
 Alpha  occ. eigenvalues --   -0.63748  -0.60722  -0.59708  -0.57301  -0.57260
 Alpha  occ. eigenvalues --   -0.54339  -0.53168  -0.49617  -0.48515  -0.47985
 Alpha  occ. eigenvalues --   -0.47498  -0.46478  -0.45755  -0.45493  -0.44801
 Alpha  occ. eigenvalues --   -0.43794  -0.43424  -0.42799  -0.41483  -0.41394
 Alpha  occ. eigenvalues --   -0.40988  -0.40509  -0.40411  -0.39844  -0.39310
 Alpha  occ. eigenvalues --   -0.38806  -0.38493  -0.37847  -0.37635  -0.37053
 Alpha  occ. eigenvalues --   -0.36576  -0.36143  -0.34896  -0.33647  -0.27452
 Alpha  occ. eigenvalues --   -0.26971  -0.26776  -0.26548  -0.25143  -0.24540
 Alpha  occ. eigenvalues --   -0.24145  -0.23683
 Alpha virt. eigenvalues --    0.01260   0.01409   0.02691   0.03980   0.06043
 Alpha virt. eigenvalues --    0.06185   0.09734   0.10656   0.11216   0.11849
 Alpha virt. eigenvalues --    0.13431   0.13681   0.13865   0.14056   0.14811

 Mulliken atomic charges:
              1
     1  H    0.182099
     2  C   -0.532980
     3  H    0.147132
     4  H    0.181120
     5  C    0.596794
     6  O   -0.524882
     7  N   -0.604047
     8  H    0.346102
     9  C   -0.034986
    10  H    0.169510
    11  C   -0.457506
    12  H    0.183446
    13  H    0.129119
    14  H    0.186801
    15  C    0.616279
    16  O   -0.525924
    17  N   -0.633491
    18  H    0.331866
    19  C   -0.005656
    20  H    0.179072
    21  C   -0.485302
    22  H    0.164244
    23  H    0.181406
    24  H    0.153967
    25  C    0.615771
    26  O   -0.521886
    27  N   -0.602331
    28  H    0.348484
    29  C   -0.044419
    30  H    0.183664
    31  C   -0.438629
    32  H    0.157737
    33  H    0.132277
    34  H    0.184452
    35  C    0.611317
    36  O   -0.535737
    37  N   -0.589006
    38  H    0.333454
    39  C   -0.313042
    40  H    0.206507
    41  H    0.165033
    42  H    0.162172
 Sum of Mulliken atomic charges =   0.00000

 Dipole moment (field-independent basis, Debye):
    X=             -3.5057    Y=              1.9243    Z=              0.7049  Tot=              4.0607
 Quadrupole moment (field-independent basis, Debye-Ang):
   XX=           -130.1585   YY=            -98.2380   ZZ=           -124.7536
   XY=            -10.0833   XZ=             -9.3399   YZ=            -15.6857

 Normal termination of Gaussian 09 at Fri Dec 30 03:56:43 2016.
