 Gaussian 09, Revision A.02,
 Gaussian 09:  EM64L-G09RevA.02 11-Jun-2009

 ----------------------------------------------------------------------
 # b3lyp/6-31G* Opt=(ModRedundant, maxcycles=1000, calcfc) geom=nocrowd
 ----------------------------------------------------------------------

 ------------------
 Phi Psi fixed scan
 ------------------
 Symbolic Z-matrix:
 Charge =  0 Multiplicity = 1

 SCF Done:  E(RB3LYP) =  -990.466436389     A.U. after   15 cycles

  Exact polarizability:   0.000   0.000   0.000   0.000   0.000   0.000
 Approx polarizability: 244.870 -15.499 234.401 -10.215 -25.612 190.699

 SCF Done:  E(RB3LYP) =  -990.476816681     A.U. after   12 cycles
 SCF Done:  E(RB3LYP) =  -990.488463990     A.U. after   15 cycles
 SCF Done:  E(RB3LYP) =  -990.492760556     A.U. after   13 cycles
 SCF Done:  E(RB3LYP) =  -990.489755050     A.U. after   15 cycles
 SCF Done:  E(RB3LYP) =  -990.492879567     A.U. after   13 cycles
 SCF Done:  E(RB3LYP) =  -990.495253919     A.U. after   11 cycles
 SCF Done:  E(RB3LYP) =  -990.497931733     A.U. after   12 cycles
 SCF Done:  E(RB3LYP) =  -990.498957350     A.U. after   12 cycles
 SCF Done:  E(RB3LYP) =  -990.497929203     A.U. after   13 cycles
 SCF Done:  E(RB3LYP) =  -990.500692021     A.U. after   10 cycles
 SCF Done:  E(RB3LYP) =  -990.500702048     A.U. after   10 cycles
 SCF Done:  E(RB3LYP) =  -990.500717601     A.U. after   10 cycles
 SCF Done:  E(RB3LYP) =  -990.500733411     A.U. after   10 cycles
 SCF Done:  E(RB3LYP) =  -990.500737034     A.U. after    9 cycles
 SCF Done:  E(RB3LYP) =  -990.500738338     A.U. after   10 cycles
 SCF Done:  E(RB3LYP) =  -990.500738931     A.U. after    9 cycles
 SCF Done:  E(RB3LYP) =  -990.500738979     A.U. after    6 cycles
 SCF Done:  E(RB3LYP) =  -990.500738995     A.U. after    6 cycles
 SCF Done:  E(RB3LYP) =  -990.500738998     A.U. after    6 cycles
 Optimization completed.
    -- Stationary point found.

                         Standard orientation:
 ---------------------------------------------------------------------
 Center     Atomic      Atomic             Coordinates (Angstroms)
 Number     Number       Type             X           Y           Z
 ---------------------------------------------------------------------
      1          1           0       -6.422552   -2.141763   -1.451029
      2          6           0       -5.750951   -2.285337   -0.598763
      3          1           0       -4.959589   -2.986178   -0.881925
      4          1           0       -6.342249   -2.723955    0.211062
      5          6           0       -5.232678   -0.926906   -0.148312
      6          8           0       -5.989027   -0.026703    0.207201
      7          7           0       -3.879054   -0.781403   -0.163582
      8          1           0       -3.260542   -1.500995   -0.518958
      9          6           0       -3.233585    0.470017    0.179867
     10          1           0       -3.832373    1.290098   -0.236623
     11          6           0       -3.120672    0.666066    1.705794
     12          1           0       -2.487832   -0.110703    2.144095
     13          1           0       -2.680893    1.639239    1.951866
     14          1           0       -4.122064    0.616978    2.140593
     15          6           0       -1.843029    0.451560   -0.465316
     16          8           0       -1.325547   -0.587272   -0.859641
     17          7           0       -1.243933    1.678555   -0.604537
     18          1           0       -1.722062    2.436234   -0.130813
     19          6           0        0.211887    1.821894   -0.642016
     20          1           0        0.545750    1.742420   -1.685196
     21          6           0        0.600426    3.200796   -0.095090
     22          1           0        0.330924    3.276481    0.964238
     23          1           0        1.678829    3.357816   -0.186603
     24          1           0        0.091400    3.995278   -0.652418
     25          6           0        0.918607    0.723524    0.185379
     26          8           0        0.467316    0.324563    1.254191
     27          7           0        2.147312    0.383661   -0.276459
     28          1           0        2.485301    0.674551   -1.187479
     29          6           0        2.986310   -0.586449    0.402267
     30          1           0        2.983662   -0.346843    1.472360
     31          6           0        2.474265   -2.028802    0.213122
     32          1           0        2.500520   -2.305075   -0.845875
     33          1           0        3.086683   -2.742997    0.775449
     34          1           0        1.443426   -2.090198    0.569517
     35          6           0        4.399294   -0.425594   -0.179737
     36          8           0        4.577727    0.077803   -1.286680
     37          7           0        5.402878   -0.909787    0.598474
     38          1           0        5.167631   -1.286729    1.505799
     39          6           0        6.796061   -0.911121    0.183593
     40          1           0        6.841133   -0.463459   -0.809735
     41          1           0        7.411718   -0.320790    0.871731
     42          1           0        7.193387   -1.931590    0.137381
 ---------------------------------------------------------------------

 The electronic state is 1-A.
 Alpha  occ. eigenvalues --  -19.12879 -19.12234 -19.11195 -19.09275 -14.37929
 Alpha  occ. eigenvalues --  -14.36522 -14.35971 -14.34376 -10.30045 -10.29025
 Alpha  occ. eigenvalues --  -10.28685 -10.27297 -10.24478 -10.24306 -10.23044
 Alpha  occ. eigenvalues --  -10.22939 -10.20154 -10.18613 -10.18035 -10.17459
 Alpha  occ. eigenvalues --   -1.04957  -1.04439  -1.02830  -1.01263  -0.93672
 Alpha  occ. eigenvalues --   -0.93060  -0.92548  -0.90857  -0.79648  -0.77393
 Alpha  occ. eigenvalues --   -0.75671  -0.71897  -0.71502  -0.67513  -0.65622
 Alpha  occ. eigenvalues --   -0.63302  -0.60445  -0.59082  -0.58306  -0.56755
 Alpha  occ. eigenvalues --   -0.54465  -0.51963  -0.50522  -0.48640  -0.48175
 Alpha  occ. eigenvalues --   -0.46878  -0.46582  -0.45538  -0.45125  -0.44691
 Alpha  occ. eigenvalues --   -0.44123  -0.43166  -0.42520  -0.42071  -0.40953
 Alpha  occ. eigenvalues --   -0.40499  -0.40406  -0.40288  -0.40139  -0.38670
 Alpha  occ. eigenvalues --   -0.38486  -0.38179  -0.37815  -0.37318  -0.37209
 Alpha  occ. eigenvalues --   -0.36305  -0.35991  -0.34579  -0.33151  -0.27711
 Alpha  occ. eigenvalues --   -0.27008  -0.26781  -0.26012  -0.25174  -0.24724
 Alpha  occ. eigenvalues --   -0.23876  -0.23290
 Alpha virt. eigenvalues --    0.01028   0.01536   0.03046   0.04354   0.05983
 Alpha virt. eigenvalues --    0.06864   0.09026   0.10377   0.11209   0.12178
 Alpha virt. eigenvalues --    0.13469   0.13810   0.13869   0.14595   0.14819

 Mulliken atomic charges:
              1
     1  H    0.180581
     2  C   -0.532760
     3  H    0.146895
     4  H    0.180768
     5  C    0.597854
     6  O   -0.526414
     7  N   -0.604689
     8  H    0.345240
     9  C   -0.044720
    10  H    0.170284
    11  C   -0.440543
    12  H    0.174261
    13  H    0.132531
    14  H    0.182642
    15  C    0.631914
    16  O   -0.528843
    17  N   -0.611853
    18  H    0.330693
    19  C   -0.009782
    20  H    0.156031
    21  C   -0.487517
    22  H    0.172389
    23  H    0.171852
    24  H    0.162912
    25  C    0.650567
    26  O   -0.546944
    27  N   -0.623604
    28  H    0.348972
    29  C   -0.034229
    30  H    0.165189
    31  C   -0.445226
    32  H    0.162903
    33  H    0.134174
    34  H    0.202073
    35  C    0.607970
    36  O   -0.531514
    37  N   -0.592858
    38  H    0.331886
    39  C   -0.313812
    40  H    0.207915
    41  H    0.163277
    42  H    0.163535
 Sum of Mulliken atomic charges =   0.00000

 Dipole moment (field-independent basis, Debye):
    X=              6.1015    Y=             -0.1002    Z=              1.1480  Tot=              6.2093
 Quadrupole moment (field-independent basis, Debye-Ang):
   XX=           -122.2460   YY=           -104.5149   ZZ=           -121.5474
   XY=             -2.3420   XZ=             15.3668   YZ=             -2.3189

 Normal termination of Gaussian 09 at Fri Dec 30 03:52:40 2016.
