 Gaussian 09, Revision A.02,
 Gaussian 09:  EM64L-G09RevA.02 11-Jun-2009

 -------------------------------------------
 # HF/6-31G* Opt=(ModRedundant) geom=nocrowd
 -------------------------------------------

 ------------------
 Phi Psi fixed scan
 ------------------
 Symbolic Z-matrix:
 Charge =  0 Multiplicity = 1

 SCF Done:  E(RHF) =  -492.824594194     A.U. after   15 cycles
 SCF Done:  E(RHF) =  -492.840280030     A.U. after   15 cycles
 SCF Done:  E(RHF) =  -492.844619336     A.U. after   13 cycles
 SCF Done:  E(RHF) =  -492.846043023     A.U. after   13 cycles
 SCF Done:  E(RHF) =  -492.847444850     A.U. after   14 cycles
 SCF Done:  E(RHF) =  -492.848222789     A.U. after   13 cycles
 SCF Done:  E(RHF) =  -492.848496450     A.U. after   12 cycles
 SCF Done:  E(RHF) =  -492.848553928     A.U. after   13 cycles
 SCF Done:  E(RHF) =  -492.848901638     A.U. after   11 cycles
 SCF Done:  E(RHF) =  -492.849243077     A.U. after   12 cycles
 SCF Done:  E(RHF) =  -492.849560260     A.U. after   12 cycles
 SCF Done:  E(RHF) =  -492.849600482     A.U. after   10 cycles
 SCF Done:  E(RHF) =  -492.849626678     A.U. after   11 cycles
 SCF Done:  E(RHF) =  -492.849639765     A.U. after   11 cycles
 SCF Done:  E(RHF) =  -492.849644401     A.U. after   11 cycles
 SCF Done:  E(RHF) =  -492.849645160     A.U. after    9 cycles
 SCF Done:  E(RHF) =  -492.849646201     A.U. after   10 cycles
 SCF Done:  E(RHF) =  -492.849646964     A.U. after   10 cycles
 SCF Done:  E(RHF) =  -492.849647141     A.U. after    9 cycles
 SCF Done:  E(RHF) =  -492.849647162     A.U. after    8 cycles
 Optimization completed.
    -- Stationary point found.

                         Standard orientation:
 ---------------------------------------------------------------------
 Center     Atomic      Atomic             Coordinates (Angstroms)
 Number     Number       Type             X           Y           Z
 ---------------------------------------------------------------------
      1          1           0       -3.425189   -1.832672    0.306677
      2          6           0       -3.066027   -0.838678    0.529097
      3          1           0       -2.992287   -0.730434    1.606933
      4          1           0       -3.772883   -0.104057    0.160351
      5          6           0       -1.690180   -0.669111   -0.079222
      6          8           0       -0.995312   -1.614132   -0.340058
      7          7           0       -1.327092    0.615753   -0.318542
      8          1           0       -1.955104    1.303273    0.033269
      9          6           0        0.024730    1.128064   -0.564769
     10          1           0        0.209456    1.069533   -1.633177
     11          6           0        0.077817    2.589852   -0.140798
     12          1           0       -0.052593    2.680112    0.929563
     13          1           0        1.037285    3.020374   -0.397355
     14          1           0       -0.694338    3.157041   -0.652070
     15          6           0        1.155378    0.336713    0.127041
     16          8           0        1.569409    0.682173    1.200099
     17          7           0        1.685186   -0.684520   -0.579810
     18          1           0        1.054868   -1.123159   -1.213468
     19          6           0        2.636624   -1.567869    0.063380
     20          1           0        3.444967   -0.986754    0.481274
     21          1           0        2.178976   -2.146919    0.858905
     22          1           0        3.037363   -2.243125   -0.681138
 ---------------------------------------------------------------------

 The electronic state is 1-A.
 Alpha  occ. eigenvalues --  -20.53447 -20.52221 -15.59716 -15.56707 -11.36012
 Alpha  occ. eigenvalues --  -11.33926 -11.28596 -11.24181 -11.23980 -11.22878
 Alpha  occ. eigenvalues --   -1.40351  -1.38744  -1.24791  -1.22020  -1.06067
 Alpha  occ. eigenvalues --   -0.99802  -0.95219  -0.87373  -0.81006  -0.76579
 Alpha  occ. eigenvalues --   -0.71151  -0.69526  -0.67482  -0.63542  -0.62351
 Alpha  occ. eigenvalues --   -0.61647  -0.59958  -0.58810  -0.57792  -0.54722
 Alpha  occ. eigenvalues --   -0.54438  -0.53695  -0.53251  -0.51259  -0.51195
 Alpha  occ. eigenvalues --   -0.43579  -0.43069  -0.39456  -0.37405
 Alpha virt. eigenvalues --    0.18721   0.19771   0.21907   0.24945   0.26391
 Alpha virt. eigenvalues --    0.28010   0.28218   0.29934   0.30592   0.31768
 Alpha virt. eigenvalues --    0.32652   0.32787   0.34482   0.35290   0.38683

 Mulliken atomic charges:
              1
     1  H    0.217185
     2  C   -0.593059
     3  H    0.205046
     4  H    0.179523
     5  C    0.758201
     6  O   -0.620324
     7  N   -0.813265
     8  H    0.388180
     9  C    0.000220
    10  H    0.195306
    11  C   -0.513937
    12  H    0.202369
    13  H    0.193481
    14  H    0.163367
    15  C    0.746625
    16  O   -0.609815
    17  N   -0.761716
    18  H    0.406236
    19  C   -0.285315
    20  H    0.195725
    21  H    0.178249
    22  H    0.167718
 Sum of Mulliken atomic charges =   0.00000

 Dipole moment (field-independent basis, Debye):
    X=             -2.9388    Y=              1.4159    Z=             -1.4716  Tot=              3.5787
 Quadrupole moment (field-independent basis, Debye-Ang):
   XX=            -53.8938   YY=            -60.1165   ZZ=            -63.3009
   XY=             -6.1718   XZ=             -6.0452   YZ=             -2.4715

 Normal termination of Gaussian 09 at Fri Feb 10 21:23:55 2017.
