 Gaussian 09, Revision A.02,
 Gaussian 09:  EM64L-G09RevA.02 11-Jun-2009

 -------------------------------------------
 # HF/6-31G* Opt=(ModRedundant) geom=nocrowd
 -------------------------------------------

 ------------------
 Phi Psi fixed scan
 ------------------
 Symbolic Z-matrix:
 Charge =  0 Multiplicity = 1

 SCF Done:  E(RHF) =  -492.661139345     A.U. after   18 cycles
 SCF Done:  E(RHF) =  -492.729489559     A.U. after   15 cycles
 SCF Done:  E(RHF) =  -492.791554917     A.U. after   14 cycles
 SCF Done:  E(RHF) =  -492.814376072     A.U. after   14 cycles
 SCF Done:  E(RHF) =  -492.819202442     A.U. after   13 cycles
 SCF Done:  E(RHF) =  -492.821019701     A.U. after   13 cycles
 SCF Done:  E(RHF) =  -492.821954974     A.U. after   13 cycles
 SCF Done:  E(RHF) =  -492.822828556     A.U. after   13 cycles
 SCF Done:  E(RHF) =  -492.823850402     A.U. after   14 cycles
 SCF Done:  E(RHF) =  -492.824772281     A.U. after   13 cycles
 SCF Done:  E(RHF) =  -492.825499380     A.U. after   16 cycles
 SCF Done:  E(RHF) =  -492.827014865     A.U. after   15 cycles
 SCF Done:  E(RHF) =  -492.827076137     A.U. after   12 cycles
 SCF Done:  E(RHF) =  -492.827093170     A.U. after   12 cycles
 SCF Done:  E(RHF) =  -492.827099439     A.U. after   10 cycles
 SCF Done:  E(RHF) =  -492.827104424     A.U. after   11 cycles
 SCF Done:  E(RHF) =  -492.827106090     A.U. after   10 cycles
 SCF Done:  E(RHF) =  -492.827106709     A.U. after   10 cycles
 SCF Done:  E(RHF) =  -492.827107025     A.U. after   10 cycles
 SCF Done:  E(RHF) =  -492.827107066     A.U. after    8 cycles
 Optimization completed.
    -- Stationary point found.

                         Standard orientation:
 ---------------------------------------------------------------------
 Center     Atomic      Atomic             Coordinates (Angstroms)
 Number     Number       Type             X           Y           Z
 ---------------------------------------------------------------------
      1          1           0       -3.521349   -1.330000    0.939212
      2          6           0       -2.814509   -0.533365    1.116980
      3          1           0       -2.136497   -0.828039    1.912304
      4          1           0       -3.346149    0.357493    1.438288
      5          6           0       -2.023963   -0.282232   -0.148412
      6          8           0       -2.106137   -0.984572   -1.102520
      7          7           0       -1.281687    0.906130   -0.142325
      8          1           0       -1.434785    1.384795    0.721449
      9          6           0        0.137639    1.018432   -0.482973
     10          1           0        0.203922    1.114398   -1.564349
     11          6           0        0.650854    2.323287    0.129421
     12          1           0        0.747522    2.248927    1.208141
     13          1           0        1.610277    2.617530   -0.278724
     14          1           0       -0.047170    3.118608   -0.102341
     15          6           0        0.978555   -0.234789   -0.169191
     16          8           0        0.511777   -1.335361   -0.130157
     17          7           0        2.281743   -0.012578    0.139289
     18          1           0        2.682931    0.874855   -0.047329
     19          6           0        3.190829   -1.128238    0.313167
     20          1           0        2.784011   -1.819918    1.035582
     21          1           0        3.360357   -1.664269   -0.614360
     22          1           0        4.134990   -0.748353    0.680843
 ---------------------------------------------------------------------

 The electronic state is 1-A.
 Alpha  occ. eigenvalues --  -20.52652 -20.51551 -15.58981 -15.57443 -11.34913
 Alpha  occ. eigenvalues --  -11.33719 -11.29001 -11.25973 -11.24719 -11.22377
 Alpha  occ. eigenvalues --   -1.40077  -1.37998  -1.23741  -1.22786  -1.05786
 Alpha  occ. eigenvalues --   -0.98804  -0.95936  -0.89072  -0.79596  -0.77875
 Alpha  occ. eigenvalues --   -0.71194  -0.67001  -0.66401  -0.64422  -0.62576
 Alpha  occ. eigenvalues --   -0.61438  -0.59628  -0.58031  -0.57442  -0.56520
 Alpha  occ. eigenvalues --   -0.55679  -0.55328  -0.54001  -0.51242  -0.48859
 Alpha  occ. eigenvalues --   -0.44135  -0.40810  -0.39439  -0.37472
 Alpha virt. eigenvalues --    0.18507   0.20018   0.21640   0.23348   0.25950
 Alpha virt. eigenvalues --    0.27477   0.28144   0.29248   0.29613   0.31433
 Alpha virt. eigenvalues --    0.31885   0.32681   0.34084   0.34386   0.37955

 Mulliken atomic charges:
              1
     1  H    0.215043
     2  C   -0.603267
     3  H    0.194048
     4  H    0.173481
     5  C    0.767889
     6  O   -0.548121
     7  N   -0.794098
     8  H    0.359906
     9  C   -0.022709
    10  H    0.217401
    11  C   -0.536290
    12  H    0.180913
    13  H    0.168876
    14  H    0.203114
    15  C    0.751741
    16  O   -0.590050
    17  N   -0.800872
    18  H    0.385090
    19  C   -0.273954
    20  H    0.204911
    21  H    0.180688
    22  H    0.166260
 Sum of Mulliken atomic charges =   0.00000

 Dipole moment (field-independent basis, Debye):
    X=              3.5496    Y=              4.6356    Z=              3.0325  Tot=              6.5791
 Quadrupole moment (field-independent basis, Debye-Ang):
   XX=            -52.2601   YY=            -62.4808   ZZ=            -61.8964
   XY=             -1.4219   XZ=             -8.2294   YZ=             -2.7600

 Normal termination of Gaussian 09 at Fri Feb 10 21:47:34 2017.
