 Gaussian 09, Revision A.02,
 Gaussian 09:  EM64L-G09RevA.02 11-Jun-2009

 -------------------------------------------
 # HF/6-31G* Opt=(ModRedundant) geom=nocrowd
 -------------------------------------------

 ------------------
 Phi Psi fixed scan
 ------------------
 Symbolic Z-matrix:
 Charge =  0 Multiplicity = 1

 SCF Done:  E(RHF) =  -492.621283843     A.U. after   17 cycles
 SCF Done:  E(RHF) =  -492.722024263     A.U. after   14 cycles
 SCF Done:  E(RHF) =  -492.801612459     A.U. after   14 cycles
 SCF Done:  E(RHF) =  -492.834175840     A.U. after   14 cycles
 SCF Done:  E(RHF) =  -492.843227634     A.U. after   14 cycles
 SCF Done:  E(RHF) =  -492.844574772     A.U. after   13 cycles
 SCF Done:  E(RHF) =  -492.844997228     A.U. after   13 cycles
 SCF Done:  E(RHF) =  -492.845269442     A.U. after   11 cycles
 SCF Done:  E(RHF) =  -492.845484221     A.U. after   11 cycles
 SCF Done:  E(RHF) =  -492.845658673     A.U. after   12 cycles
 SCF Done:  E(RHF) =  -492.846690242     A.U. after   10 cycles
 SCF Done:  E(RHF) =  -492.846692895     A.U. after   10 cycles
 SCF Done:  E(RHF) =  -492.846696864     A.U. after   10 cycles
 SCF Done:  E(RHF) =  -492.846699944     A.U. after   11 cycles
 SCF Done:  E(RHF) =  -492.846700587     A.U. after    9 cycles
 SCF Done:  E(RHF) =  -492.846700774     A.U. after    8 cycles
 SCF Done:  E(RHF) =  -492.846700834     A.U. after    8 cycles
 SCF Done:  E(RHF) =  -492.846700930     A.U. after    9 cycles
 SCF Done:  E(RHF) =  -492.846701048     A.U. after    9 cycles
 SCF Done:  E(RHF) =  -492.846701138     A.U. after    8 cycles
 Optimization completed.
    -- Stationary point found.

                         Standard orientation:
 ---------------------------------------------------------------------
 Center     Atomic      Atomic             Coordinates (Angstroms)
 Number     Number       Type             X           Y           Z
 ---------------------------------------------------------------------
      1          1           0       -3.872166   -1.156516   -0.205365
      2          6           0       -3.295815   -0.435288    0.356018
      3          1           0       -3.292128   -0.742649    1.397015
      4          1           0       -3.765312    0.538593    0.285981
      5          6           0       -1.870643   -0.453641   -0.159484
      6          8           0       -1.387696   -1.477814   -0.574802
      7          7           0       -1.236338    0.735265   -0.105087
      8          1           0       -1.776024    1.464197    0.301911
      9          6           0        0.147418    1.155511   -0.375258
     10          1           0        0.215596    1.406259   -1.428649
     11          6           0        0.390418    2.435950    0.430235
     12          1           0        0.340971    2.232405    1.495464
     13          1           0        1.364245    2.835538    0.196600
     14          1           0       -0.358480    3.183917    0.185789
     15          6           0        1.357221    0.221819   -0.164916
     16          8           0        2.434021    0.712807   -0.392283
     17          7           0        1.209737   -1.032120    0.278874
     18          1           0        0.325633   -1.469554    0.138309
     19          6           0        2.374859   -1.885647    0.391183
     20          1           0        3.114894   -1.422572    1.028002
     21          1           0        2.066906   -2.824306    0.832222
     22          1           0        2.830732   -2.079490   -0.573775
 ---------------------------------------------------------------------

 The electronic state is 1-A.
 Alpha  occ. eigenvalues --  -20.53874 -20.51299 -15.60504 -15.56536 -11.36877
 Alpha  occ. eigenvalues --  -11.34112 -11.29093 -11.24521 -11.24357 -11.23163
 Alpha  occ. eigenvalues --   -1.40780  -1.38419  -1.25481  -1.21885  -1.06473
 Alpha  occ. eigenvalues --   -1.00169  -0.95118  -0.88149  -0.81877  -0.77481
 Alpha  occ. eigenvalues --   -0.71337  -0.70064  -0.67523  -0.63293  -0.62521
 Alpha  occ. eigenvalues --   -0.62021  -0.59843  -0.59063  -0.58232  -0.55747
 Alpha  occ. eigenvalues --   -0.54826  -0.53969  -0.53698  -0.52301  -0.49759
 Alpha  occ. eigenvalues --   -0.43501  -0.42282  -0.39850  -0.37661
 Alpha virt. eigenvalues --    0.18332   0.19834   0.20847   0.25686   0.26906
 Alpha virt. eigenvalues --    0.28398   0.28753   0.29703   0.31049   0.31761
 Alpha virt. eigenvalues --    0.32776   0.33213   0.35305   0.35584   0.38125

 Mulliken atomic charges:
              1
     1  H    0.219325
     2  C   -0.586473
     3  H    0.205594
     4  H    0.175109
     5  C    0.770004
     6  O   -0.640535
     7  N   -0.842082
     8  H    0.391898
     9  C    0.023638
    10  H    0.218383
    11  C   -0.526617
    12  H    0.176437
    13  H    0.234021
    14  H    0.161241
    15  C    0.753356
    16  O   -0.630587
    17  N   -0.825764
    18  H    0.462670
    19  C   -0.275973
    20  H    0.191084
    21  H    0.167964
    22  H    0.177307
 Sum of Mulliken atomic charges =   0.00000

 Dipole moment (field-independent basis, Debye):
    X=             -4.1492    Y=              1.4286    Z=              1.9204  Tot=              4.7900
 Quadrupole moment (field-independent basis, Debye-Ang):
   XX=            -61.6585   YY=            -58.8080   ZZ=            -61.0709
   XY=             -9.0736   XZ=             -0.5812   YZ=             -1.4820

 Normal termination of Gaussian 09 at Fri Feb 10 20:56:34 2017.
