 Gaussian 09, Revision A.02,
 Gaussian 09:  EM64L-G09RevA.02 11-Jun-2009

 -------------------------------------------
 # HF/6-31G* Opt=(ModRedundant) geom=nocrowd
 -------------------------------------------

 ------------------
 Phi Psi fixed scan
 ------------------
 Symbolic Z-matrix:
 Charge =  0 Multiplicity = 1

 SCF Done:  E(RHF) =  -492.789379840     A.U. after   15 cycles
 SCF Done:  E(RHF) =  -492.829077854     A.U. after   15 cycles
 SCF Done:  E(RHF) =  -492.835840292     A.U. after   13 cycles
 SCF Done:  E(RHF) =  -492.839987937     A.U. after   15 cycles
 SCF Done:  E(RHF) =  -492.841285649     A.U. after   14 cycles
 SCF Done:  E(RHF) =  -492.843361556     A.U. after   13 cycles
 SCF Done:  E(RHF) =  -492.844205945     A.U. after   13 cycles
 SCF Done:  E(RHF) =  -492.844510794     A.U. after   13 cycles
 SCF Done:  E(RHF) =  -492.844731503     A.U. after   12 cycles
 SCF Done:  E(RHF) =  -492.844808405     A.U. after   12 cycles
 SCF Done:  E(RHF) =  -492.844855171     A.U. after   11 cycles
 SCF Done:  E(RHF) =  -492.844972660     A.U. after   12 cycles
 SCF Done:  E(RHF) =  -492.845134472     A.U. after   13 cycles
 SCF Done:  E(RHF) =  -492.845296295     A.U. after   12 cycles
 SCF Done:  E(RHF) =  -492.845344445     A.U. after   11 cycles
 SCF Done:  E(RHF) =  -492.845378793     A.U. after   11 cycles
 SCF Done:  E(RHF) =  -492.845398859     A.U. after   11 cycles
 SCF Done:  E(RHF) =  -492.845400534     A.U. after    9 cycles
 SCF Done:  E(RHF) =  -492.845400957     A.U. after    8 cycles
 Optimization completed.
    -- Stationary point found.

                         Standard orientation:
 ---------------------------------------------------------------------
 Center     Atomic      Atomic             Coordinates (Angstroms)
 Number     Number       Type             X           Y           Z
 ---------------------------------------------------------------------
      1          1           0       -3.600824   -1.510484    0.304508
      2          6           0       -3.066754   -0.623959    0.612972
      3          1           0       -2.711408   -0.761081    1.629522
      4          1           0       -3.735039    0.230745    0.594980
      5          6           0       -1.874562   -0.424602   -0.291821
      6          8           0       -1.453086   -1.281277   -1.009082
      7          7           0       -1.339477    0.849456   -0.287649
      8          1           0       -1.716894    1.416707    0.441112
      9          6           0        0.090056    1.057113   -0.446791
     10          1           0        0.307022    1.159965   -1.505786
     11          6           0        0.486164    2.356030    0.260228
     12          1           0        0.337689    2.265461    1.331666
     13          1           0        1.526896    2.593332    0.083305
     14          1           0       -0.119418    3.176806   -0.108680
     15          6           0        0.934289   -0.100829    0.102239
     16          8           0        0.541623   -0.817389    0.978324
     17          7           0        2.226890   -0.092770   -0.309899
     18          1           0        2.427022    0.346502   -1.180163
     19          6           0        3.137000   -1.136822    0.118953
     20          1           0        3.096692   -1.226252    1.193881
     21          1           0        2.889314   -2.099277   -0.315664
     22          1           0        4.141596   -0.861492   -0.174447
 ---------------------------------------------------------------------

 The electronic state is 1-A.
 Alpha  occ. eigenvalues --  -20.52453 -20.51711 -15.58558 -15.57733 -11.34434
 Alpha  occ. eigenvalues --  -11.33968 -11.28414 -11.25541 -11.23951 -11.22368
 Alpha  occ. eigenvalues --   -1.39881  -1.38078  -1.23553  -1.23020  -1.05650
 Alpha  occ. eigenvalues --   -0.98873  -0.95798  -0.87939  -0.79561  -0.77691
 Alpha  occ. eigenvalues --   -0.71218  -0.67769  -0.66635  -0.63579  -0.62752
 Alpha  occ. eigenvalues --   -0.61362  -0.59449  -0.57695  -0.57444  -0.55879
 Alpha  occ. eigenvalues --   -0.55147  -0.54517  -0.53690  -0.51826  -0.48732
 Alpha  occ. eigenvalues --   -0.43231  -0.41132  -0.39301  -0.38466
 Alpha virt. eigenvalues --    0.19123   0.20515   0.21826   0.23092   0.26600
 Alpha virt. eigenvalues --    0.27236   0.29536   0.30019   0.31060   0.31624
 Alpha virt. eigenvalues --    0.31733   0.32320   0.33759   0.34953   0.37686

 Mulliken atomic charges:
              1
     1  H    0.212595
     2  C   -0.601828
     3  H    0.208383
     4  H    0.174743
     5  C    0.768207
     6  O   -0.590832
     7  N   -0.782084
     8  H    0.370937
     9  C   -0.017039
    10  H    0.191190
    11  C   -0.516442
    12  H    0.184708
    13  H    0.189636
    14  H    0.186348
    15  C    0.770935
    16  O   -0.613711
    17  N   -0.789085
    18  H    0.377404
    19  C   -0.279531
    20  H    0.204783
    21  H    0.183309
    22  H    0.167373
 Sum of Mulliken atomic charges =   0.00000

 Dipole moment (field-independent basis, Debye):
    X=              1.5868    Y=              4.0050    Z=              0.1941  Tot=              4.3122
 Quadrupole moment (field-independent basis, Debye-Ang):
   XX=            -48.3653   YY=            -61.8630   ZZ=            -62.7610
   XY=             -3.1507   XZ=             -8.3456   YZ=             -0.7876

 Normal termination of Gaussian 09 at Fri Feb 10 21:37:18 2017.
