 Gaussian 09, Revision A.02,
 Gaussian 09:  EM64L-G09RevA.02 11-Jun-2009

 -------------------------------------------
 # HF/6-31G* Opt=(ModRedundant) geom=nocrowd
 -------------------------------------------

 ------------------
 Phi Psi fixed scan
 ------------------
 Symbolic Z-matrix:
 Charge =  0 Multiplicity = 1

 SCF Done:  E(RHF) =  -492.839027574     A.U. after   15 cycles
 SCF Done:  E(RHF) =  -492.847029697     A.U. after   14 cycles
 SCF Done:  E(RHF) =  -492.849136956     A.U. after   13 cycles
 SCF Done:  E(RHF) =  -492.849852613     A.U. after   13 cycles
 SCF Done:  E(RHF) =  -492.851016812     A.U. after   13 cycles
 SCF Done:  E(RHF) =  -492.851740311     A.U. after   13 cycles
 SCF Done:  E(RHF) =  -492.851887770     A.U. after   13 cycles
 SCF Done:  E(RHF) =  -492.852194355     A.U. after   12 cycles
 SCF Done:  E(RHF) =  -492.852446784     A.U. after   11 cycles
 SCF Done:  E(RHF) =  -492.852777894     A.U. after   12 cycles
 SCF Done:  E(RHF) =  -492.852918282     A.U. after   12 cycles
 SCF Done:  E(RHF) =  -492.852971429     A.U. after   11 cycles
 SCF Done:  E(RHF) =  -492.852994531     A.U. after   11 cycles
 SCF Done:  E(RHF) =  -492.853004542     A.U. after   10 cycles
 SCF Done:  E(RHF) =  -492.853007797     A.U. after   10 cycles
 SCF Done:  E(RHF) =  -492.853008452     A.U. after    8 cycles
 SCF Done:  E(RHF) =  -492.853009114     A.U. after    9 cycles
 SCF Done:  E(RHF) =  -492.853009389     A.U. after    9 cycles
 Optimization completed.
    -- Stationary point found.

                         Standard orientation:
 ---------------------------------------------------------------------
 Center     Atomic      Atomic             Coordinates (Angstroms)
 Number     Number       Type             X           Y           Z
 ---------------------------------------------------------------------
      1          1           0       -3.328655   -1.946476    0.134206
      2          6           0       -3.027038   -0.946610    0.410019
      3          1           0       -2.953534   -0.892815    1.491947
      4          1           0       -3.775482   -0.234249    0.081637
      5          6           0       -1.667804   -0.661281   -0.185658
      6          8           0       -0.906987   -1.533949   -0.501855
      7          7           0       -1.369250    0.655280   -0.361519
      8          1           0       -1.983429    1.300438    0.083905
      9          6           0       -0.000499    1.126289   -0.527170
     10          1           0        0.236980    1.116934   -1.586124
     11          6           0        0.115873    2.557020   -0.012006
     12          1           0       -0.070140    2.587193    1.054350
     13          1           0        1.112102    2.942366   -0.195157
     14          1           0       -0.592859    3.202403   -0.521695
     15          6           0        1.007108    0.234345    0.212776
     16          8           0        0.992336    0.167391    1.410667
     17          7           0        1.949757   -0.351070   -0.559425
     18          1           0        1.682833   -0.526379   -1.501998
     19          6           0        2.849723   -1.320410    0.033481
     20          1           0        3.331766   -0.882456    0.894483
     21          1           0        2.325113   -2.216244    0.347688
     22          1           0        3.604786   -1.583844   -0.695770
 ---------------------------------------------------------------------

 The electronic state is 1-A.
 Alpha  occ. eigenvalues --  -20.52854 -20.51761 -15.58888 -15.57419 -11.35167
 Alpha  occ. eigenvalues --  -11.33797 -11.28189 -11.24453 -11.23402 -11.23160
 Alpha  occ. eigenvalues --   -1.40009  -1.38319  -1.24157  -1.22366  -1.05780
 Alpha  occ. eigenvalues --   -0.99505  -0.95291  -0.87360  -0.80301  -0.77106
 Alpha  occ. eigenvalues --   -0.71025  -0.69043  -0.67101  -0.63313  -0.61950
 Alpha  occ. eigenvalues --   -0.61687  -0.59632  -0.58326  -0.57642  -0.55053
 Alpha  occ. eigenvalues --   -0.54379  -0.54061  -0.53130  -0.51821  -0.49838
 Alpha  occ. eigenvalues --   -0.42737  -0.42213  -0.39380  -0.38059
 Alpha virt. eigenvalues --    0.19051   0.20929   0.21748   0.24013   0.26349
 Alpha virt. eigenvalues --    0.27805   0.28956   0.30225   0.30708   0.31639
 Alpha virt. eigenvalues --    0.32607   0.33257   0.34324   0.35607   0.37983

 Mulliken atomic charges:
              1
     1  H    0.215022
     2  C   -0.594076
     3  H    0.208071
     4  H    0.178442
     5  C    0.757986
     6  O   -0.613793
     7  N   -0.795164
     8  H    0.383787
     9  C    0.001457
    10  H    0.186253
    11  C   -0.525014
    12  H    0.203047
    13  H    0.189870
    14  H    0.171823
    15  C    0.776936
    16  O   -0.624216
    17  N   -0.770448
    18  H    0.385385
    19  C   -0.287278
    20  H    0.198849
    21  H    0.187569
    22  H    0.165493
 Sum of Mulliken atomic charges =   0.00000

 Dipole moment (field-independent basis, Debye):
    X=             -1.5653    Y=              2.2351    Z=             -1.8947  Tot=              3.3220
 Quadrupole moment (field-independent basis, Debye-Ang):
   XX=            -49.9746   YY=            -59.8501   ZZ=            -63.6803
   XY=             -4.2449   XZ=             -6.1981   YZ=             -1.1127

 Normal termination of Gaussian 09 at Fri Feb 10 21:29:07 2017.
