 Gaussian 09, Revision A.02,
 Gaussian 09:  EM64L-G09RevA.02 11-Jun-2009

 -------------------------------------------
 # HF/6-31G* Opt=(ModRedundant) geom=nocrowd
 -------------------------------------------

 ------------------
 Phi Psi fixed scan
 ------------------
 Symbolic Z-matrix:
 Charge =  0 Multiplicity = 1

 SCF Done:  E(RHF) =  -492.836696405     A.U. after   15 cycles
 SCF Done:  E(RHF) =  -492.844564530     A.U. after   15 cycles
 SCF Done:  E(RHF) =  -492.847296612     A.U. after   13 cycles
 SCF Done:  E(RHF) =  -492.847863862     A.U. after   13 cycles
 SCF Done:  E(RHF) =  -492.849047387     A.U. after   13 cycles
 SCF Done:  E(RHF) =  -492.850057440     A.U. after   13 cycles
 SCF Done:  E(RHF) =  -492.850478805     A.U. after   13 cycles
 SCF Done:  E(RHF) =  -492.850882168     A.U. after   13 cycles
 SCF Done:  E(RHF) =  -492.851124285     A.U. after   12 cycles
 SCF Done:  E(RHF) =  -492.851510709     A.U. after   13 cycles
 SCF Done:  E(RHF) =  -492.851690596     A.U. after   12 cycles
 SCF Done:  E(RHF) =  -492.851775123     A.U. after   11 cycles
 SCF Done:  E(RHF) =  -492.851826813     A.U. after   11 cycles
 SCF Done:  E(RHF) =  -492.851838403     A.U. after   11 cycles
 SCF Done:  E(RHF) =  -492.851845508     A.U. after   11 cycles
 SCF Done:  E(RHF) =  -492.851846418     A.U. after   10 cycles
 SCF Done:  E(RHF) =  -492.851846891     A.U. after    9 cycles
 SCF Done:  E(RHF) =  -492.851847071     A.U. after    8 cycles
 SCF Done:  E(RHF) =  -492.851847359     A.U. after    9 cycles
 SCF Done:  E(RHF) =  -492.851847484     A.U. after    8 cycles
 Optimization completed.
    -- Stationary point found.

                         Standard orientation:
 ---------------------------------------------------------------------
 Center     Atomic      Atomic             Coordinates (Angstroms)
 Number     Number       Type             X           Y           Z
 ---------------------------------------------------------------------
      1          1           0       -3.332436   -1.950044    0.196653
      2          6           0       -3.028697   -0.945242    0.451381
      3          1           0       -2.978678   -0.863206    1.532854
      4          1           0       -3.765217   -0.237388    0.088437
      5          6           0       -1.653255   -0.688928   -0.123489
      6          8           0       -0.891802   -1.582128   -0.378156
      7          7           0       -1.351744    0.616460   -0.343196
      8          1           0       -1.997644    1.278315    0.025285
      9          6           0       -0.001907    1.134477   -0.552865
     10          1           0        0.212175    1.095332   -1.616430
     11          6           0        0.056825    2.586804   -0.095541
     12          1           0       -0.098846    2.650619    0.973536
     13          1           0        1.026878    3.012741   -0.322074
     14          1           0       -0.696591    3.175993   -0.609660
     15          6           0        1.075741    0.314194    0.178882
     16          8           0        1.257868    0.463286    1.355614
     17          7           0        1.828299   -0.496176   -0.598612
     18          1           0        1.371126   -0.829524   -1.417626
     19          6           0        2.731912   -1.436249    0.033837
     20          1           0        3.385596   -0.907168    0.710814
     21          1           0        2.195314   -2.196741    0.591173
     22          1           0        3.330198   -1.910518   -0.733193
 ---------------------------------------------------------------------

 The electronic state is 1-A.
 Alpha  occ. eigenvalues --  -20.53108 -20.52036 -15.59332 -15.57016 -11.35585
 Alpha  occ. eigenvalues --  -11.33833 -11.28376 -11.24205 -11.23708 -11.22998
 Alpha  occ. eigenvalues --   -1.40148  -1.38554  -1.24490  -1.22154  -1.05922
 Alpha  occ. eigenvalues --   -0.99663  -0.95189  -0.87336  -0.80696  -0.76759
 Alpha  occ. eigenvalues --   -0.71014  -0.69360  -0.67297  -0.63374  -0.62115
 Alpha  occ. eigenvalues --   -0.61692  -0.59811  -0.58496  -0.57717  -0.54764
 Alpha  occ. eigenvalues --   -0.54501  -0.53785  -0.53251  -0.51496  -0.50528
 Alpha  occ. eigenvalues --   -0.43076  -0.42692  -0.39439  -0.37668
 Alpha virt. eigenvalues --    0.18875   0.20457   0.21819   0.24481   0.26184
 Alpha virt. eigenvalues --    0.27951   0.28513   0.30022   0.30631   0.31833
 Alpha virt. eigenvalues --    0.32738   0.33018   0.34377   0.35605   0.38195

 Mulliken atomic charges:
              1
     1  H    0.215865
     2  C   -0.592679
     3  H    0.206911
     4  H    0.178292
     5  C    0.756813
     6  O   -0.617528
     7  N   -0.804407
     8  H    0.386554
     9  C    0.001276
    10  H    0.189812
    11  C   -0.521387
    12  H    0.205583
    13  H    0.190154
    14  H    0.166794
    15  C    0.761812
    16  O   -0.615446
    17  N   -0.758892
    18  H    0.390922
    19  C   -0.288169
    20  H    0.197034
    21  H    0.184715
    22  H    0.165972
 Sum of Mulliken atomic charges =   0.00000

 Dipole moment (field-independent basis, Debye):
    X=             -2.4009    Y=              1.7267    Z=             -1.9088  Tot=              3.5198
 Quadrupole moment (field-independent basis, Debye-Ang):
   XX=            -51.7531   YY=            -59.8172   ZZ=            -63.6401
   XY=             -4.9797   XZ=             -5.8778   YZ=             -1.7607

 Normal termination of Gaussian 09 at Fri Feb 10 21:26:36 2017.
