 Gaussian 09, Revision A.02,
 Gaussian 09:  EM64L-G09RevA.02 11-Jun-2009

 -------------------------------------------
 # HF/6-31G* Opt=(ModRedundant) geom=nocrowd
 -------------------------------------------

 ------------------
 Phi Psi fixed scan
 ------------------
 Symbolic Z-matrix:
 Charge =  0 Multiplicity = 1

 SCF Done:  E(RHF) =  -492.519703246     A.U. after   17 cycles
 SCF Done:  E(RHF) =  -492.626591793     A.U. after   15 cycles
 SCF Done:  E(RHF) =  -492.745075129     A.U. after   14 cycles
 SCF Done:  E(RHF) =  -492.787810926     A.U. after   16 cycles
 SCF Done:  E(RHF) =  -492.812241438     A.U. after   13 cycles
 SCF Done:  E(RHF) =  -492.823812007     A.U. after   13 cycles
 SCF Done:  E(RHF) =  -492.831857049     A.U. after   16 cycles
 SCF Done:  E(RHF) =  -492.838973130     A.U. after   13 cycles
 SCF Done:  E(RHF) =  -492.843407607     A.U. after   13 cycles
 SCF Done:  E(RHF) =  -492.844505982     A.U. after   13 cycles
 SCF Done:  E(RHF) =  -492.845857843     A.U. after   12 cycles
 SCF Done:  E(RHF) =  -492.845871305     A.U. after   11 cycles
 SCF Done:  E(RHF) =  -492.845888458     A.U. after   11 cycles
 SCF Done:  E(RHF) =  -492.845898908     A.U. after   10 cycles
 SCF Done:  E(RHF) =  -492.845926442     A.U. after   12 cycles
 SCF Done:  E(RHF) =  -492.845940858     A.U. after   11 cycles
 SCF Done:  E(RHF) =  -492.845944922     A.U. after   11 cycles
 SCF Done:  E(RHF) =  -492.845945848     A.U. after    9 cycles
 SCF Done:  E(RHF) =  -492.845946138     A.U. after    9 cycles
 SCF Done:  E(RHF) =  -492.845946172     A.U. after    8 cycles
 Optimization completed.
    -- Stationary point found.

                         Standard orientation:
 ---------------------------------------------------------------------
 Center     Atomic      Atomic             Coordinates (Angstroms)
 Number     Number       Type             X           Y           Z
 ---------------------------------------------------------------------
      1          1           0       -3.769677   -1.363592    0.238721
      2          6           0       -3.228093   -0.477186    0.533738
      3          1           0       -3.137532   -0.471757    1.615726
      4          1           0       -3.782318    0.404707    0.233807
      5          6           0       -1.842009   -0.530106   -0.077719
      6          8           0       -1.365077   -1.583873   -0.414553
      7          7           0       -1.252584    0.679287   -0.219741
      8          1           0       -1.798774    1.423754    0.149919
      9          6           0        0.133094    1.115706   -0.484989
     10          1           0        0.257670    1.143849   -1.565442
     11          6           0        0.257591    2.543597    0.038653
     12          1           0        0.168417    2.567985    1.119017
     13          1           0        1.218301    2.955754   -0.224600
     14          1           0       -0.519108    3.166368   -0.395915
     15          6           0        1.335314    0.268246   -0.003787
     16          8           0        2.299060    0.849284    0.429660
     17          7           0        1.319234   -1.052860   -0.187802
     18          1           0        0.468605   -1.498557   -0.455313
     19          6           0        2.460602   -1.857194    0.189094
     20          1           0        3.345835   -1.546966   -0.350836
     21          1           0        2.668354   -1.779561    1.249897
     22          1           0        2.242833   -2.888637   -0.052972
 ---------------------------------------------------------------------

 The electronic state is 1-A.
 Alpha  occ. eigenvalues --  -20.54205 -20.51267 -15.60415 -15.56266 -11.36917
 Alpha  occ. eigenvalues --  -11.33885 -11.29177 -11.24472 -11.24371 -11.22714
 Alpha  occ. eigenvalues --   -1.40914  -1.38237  -1.25387  -1.21741  -1.06362
 Alpha  occ. eigenvalues --   -1.00037  -0.95385  -0.87740  -0.81655  -0.77380
 Alpha  occ. eigenvalues --   -0.71449  -0.69839  -0.67782  -0.63321  -0.62677
 Alpha  occ. eigenvalues --   -0.61088  -0.60190  -0.59565  -0.58124  -0.55313
 Alpha  occ. eigenvalues --   -0.54352  -0.53645  -0.53120  -0.52501  -0.50415
 Alpha  occ. eigenvalues --   -0.43893  -0.42935  -0.39044  -0.37259
 Alpha virt. eigenvalues --    0.18520   0.19640   0.21775   0.25471   0.26882
 Alpha virt. eigenvalues --    0.28163   0.28581   0.29762   0.30705   0.31645
 Alpha virt. eigenvalues --    0.32458   0.32615   0.34707   0.35979   0.39346

 Mulliken atomic charges:
              1
     1  H    0.220248
     2  C   -0.592857
     3  H    0.203292
     4  H    0.180602
     5  C    0.775569
     6  O   -0.636130
     7  N   -0.837665
     8  H    0.392666
     9  C   -0.000133
    10  H    0.210007
    11  C   -0.509231
    12  H    0.180018
    13  H    0.222848
    14  H    0.157570
    15  C    0.754910
    16  O   -0.629165
    17  N   -0.829693
    18  H    0.472345
    19  C   -0.267185
    20  H    0.184669
    21  H    0.178099
    22  H    0.169214
 Sum of Mulliken atomic charges =   0.00000

 Dipole moment (field-independent basis, Debye):
    X=             -3.8519    Y=              1.2038    Z=              0.1814  Tot=              4.0397
 Quadrupole moment (field-independent basis, Debye-Ang):
   XX=            -60.6281   YY=            -60.2208   ZZ=            -60.5738
   XY=             -9.6533   XZ=             -5.1871   YZ=             -2.5801

 Normal termination of Gaussian 09 at Fri Feb 10 21:15:16 2017.
