 Gaussian 09, Revision A.02,
 Gaussian 09:  EM64L-G09RevA.02 11-Jun-2009

 -------------------------------------------
 # HF/6-31G* Opt=(ModRedundant) geom=nocrowd
 -------------------------------------------

 ------------------
 Phi Psi fixed scan
 ------------------
 Symbolic Z-matrix:
 Charge =  0 Multiplicity = 1

 SCF Done:  E(RHF) =  -492.784061116     A.U. after   16 cycles
 SCF Done:  E(RHF) =  -492.821514709     A.U. after   15 cycles
 SCF Done:  E(RHF) =  -492.828579537     A.U. after   16 cycles
 SCF Done:  E(RHF) =  -492.831137488     A.U. after   13 cycles
 SCF Done:  E(RHF) =  -492.831785131     A.U. after   13 cycles
 SCF Done:  E(RHF) =  -492.832278890     A.U. after   13 cycles
 SCF Done:  E(RHF) =  -492.832692188     A.U. after   13 cycles
 SCF Done:  E(RHF) =  -492.833188353     A.U. after   14 cycles
 SCF Done:  E(RHF) =  -492.833606544     A.U. after   12 cycles
 SCF Done:  E(RHF) =  -492.833878425     A.U. after   12 cycles
 SCF Done:  E(RHF) =  -492.834487817     A.U. after   12 cycles
 SCF Done:  E(RHF) =  -492.834622795     A.U. after   11 cycles
 SCF Done:  E(RHF) =  -492.834641608     A.U. after   12 cycles
 SCF Done:  E(RHF) =  -492.834657235     A.U. after   11 cycles
 SCF Done:  E(RHF) =  -492.834660555     A.U. after   10 cycles
 SCF Done:  E(RHF) =  -492.834662527     A.U. after    9 cycles
 SCF Done:  E(RHF) =  -492.834663756     A.U. after    9 cycles
 SCF Done:  E(RHF) =  -492.834664028     A.U. after    9 cycles
 SCF Done:  E(RHF) =  -492.834664082     A.U. after    8 cycles
 SCF Done:  E(RHF) =  -492.834664129     A.U. after    9 cycles
 Optimization completed.
    -- Stationary point found.

                         Standard orientation:
 ---------------------------------------------------------------------
 Center     Atomic      Atomic             Coordinates (Angstroms)
 Number     Number       Type             X           Y           Z
 ---------------------------------------------------------------------
      1          1           0        3.774001   -1.407967   -0.553117
      2          6           0        3.397920   -0.441716   -0.251806
      3          1           0        3.723806    0.312217   -0.960934
      4          1           0        3.810402   -0.190605    0.721004
      5          6           0        1.885824   -0.510978   -0.163476
      6          8           0        1.295627   -1.547317   -0.192363
      7          7           0        1.276162    0.716645   -0.110987
      8          1           0        1.914534    1.478758   -0.038880
      9          6           0       -0.022779    1.056775    0.472767
     10          1           0        0.106480    1.205624    1.539489
     11          6           0       -0.492144    2.375044   -0.140903
     12          1           0       -0.578925    2.308024   -1.219888
     13          1           0       -1.446591    2.677066    0.272358
     14          1           0        0.226594    3.159490    0.077140
     15          6           0       -1.061692   -0.081438    0.434038
     16          8           0       -1.089329   -0.889113    1.314391
     17          7           0       -2.056762    0.023691   -0.483868
     18          1           0       -1.863031    0.535876   -1.313671
     19          6           0       -3.035716   -1.040385   -0.596013
     20          1           0       -3.486344   -1.214787    0.369298
     21          1           0       -3.803488   -0.729990   -1.292944
     22          1           0       -2.592101   -1.968434   -0.939741
 ---------------------------------------------------------------------

 The electronic state is 1-A.
 Alpha  occ. eigenvalues --  -20.52356 -20.51417 -15.58809 -15.57896 -11.34832
 Alpha  occ. eigenvalues --  -11.34007 -11.28589 -11.24832 -11.23778 -11.23292
 Alpha  occ. eigenvalues --   -1.39500  -1.38302  -1.24080  -1.22353  -1.05976
 Alpha  occ. eigenvalues --   -0.99364  -0.94874  -0.88632  -0.80322  -0.77390
 Alpha  occ. eigenvalues --   -0.70167  -0.68779  -0.66502  -0.63515  -0.62228
 Alpha  occ. eigenvalues --   -0.61340  -0.59569  -0.57891  -0.57589  -0.56124
 Alpha  occ. eigenvalues --   -0.55088  -0.54504  -0.53779  -0.51766  -0.50110
 Alpha  occ. eigenvalues --   -0.42067  -0.40447  -0.39213  -0.38247
 Alpha virt. eigenvalues --    0.18823   0.19884   0.21457   0.23386   0.25950
 Alpha virt. eigenvalues --    0.27873   0.28700   0.29503   0.30497   0.31717
 Alpha virt. eigenvalues --    0.32518   0.33239   0.34756   0.35143   0.38040

 Mulliken atomic charges:
              1
     1  H    0.218022
     2  C   -0.595733
     3  H    0.178579
     4  H    0.192689
     5  C    0.747105
     6  O   -0.568277
     7  N   -0.808747
     8  H    0.371545
     9  C   -0.026854
    10  H    0.209976
    11  C   -0.499589
    12  H    0.167089
    13  H    0.194578
    14  H    0.166878
    15  C    0.780915
    16  O   -0.592404
    17  N   -0.787845
    18  H    0.379770
    19  C   -0.280592
    20  H    0.203707
    21  H    0.163220
    22  H    0.185966
 Sum of Mulliken atomic charges =   0.00000

 Dipole moment (field-independent basis, Debye):
    X=              1.1258    Y=              5.1119    Z=             -2.3739  Tot=              5.7476
 Quadrupole moment (field-independent basis, Debye-Ang):
   XX=            -48.6565   YY=            -63.2619   ZZ=            -61.8450
   XY=              3.5722   XZ=              5.3090   YZ=              3.1492

 Normal termination of Gaussian 09 at Fri Feb 10 21:56:36 2017.
