 Gaussian 09, Revision A.02,
 Gaussian 09:  EM64L-G09RevA.02 11-Jun-2009

 -------------------------------------------
 # HF/6-31G* Opt=(ModRedundant) geom=nocrowd
 -------------------------------------------

 ------------------
 Phi Psi fixed scan
 ------------------
 Symbolic Z-matrix:
 Charge =  0 Multiplicity = 1

 SCF Done:  E(RHF) =  -492.745910958     A.U. after   16 cycles
 SCF Done:  E(RHF) =  -492.811665288     A.U. after   15 cycles
 SCF Done:  E(RHF) =  -492.815865028     A.U. after   14 cycles
 SCF Done:  E(RHF) =  -492.825394122     A.U. after   13 cycles
 SCF Done:  E(RHF) =  -492.826188474     A.U. after   13 cycles
 SCF Done:  E(RHF) =  -492.826296523     A.U. after   13 cycles
 SCF Done:  E(RHF) =  -492.826732345     A.U. after   12 cycles
 SCF Done:  E(RHF) =  -492.827048683     A.U. after   16 cycles
 SCF Done:  E(RHF) =  -492.827246417     A.U. after   14 cycles
 SCF Done:  E(RHF) =  -492.827876239     A.U. after   13 cycles
 SCF Done:  E(RHF) =  -492.828359022     A.U. after   13 cycles
 SCF Done:  E(RHF) =  -492.828595570     A.U. after   13 cycles
 SCF Done:  E(RHF) =  -492.828791334     A.U. after   13 cycles
 SCF Done:  E(RHF) =  -492.828985323     A.U. after   13 cycles
 SCF Done:  E(RHF) =  -492.829075983     A.U. after   12 cycles
 SCF Done:  E(RHF) =  -492.829133707     A.U. after   12 cycles
 SCF Done:  E(RHF) =  -492.829152614     A.U. after   12 cycles
 SCF Done:  E(RHF) =  -492.829161922     A.U. after   11 cycles
 SCF Done:  E(RHF) =  -492.829164068     A.U. after   10 cycles
 SCF Done:  E(RHF) =  -492.829164493     A.U. after    8 cycles
 Optimization completed.
    -- Stationary point found.

                         Standard orientation:
 ---------------------------------------------------------------------
 Center     Atomic      Atomic             Coordinates (Angstroms)
 Number     Number       Type             X           Y           Z
 ---------------------------------------------------------------------
      1          1           0        3.921789   -1.250298   -0.449280
      2          6           0        3.463707   -0.322318   -0.141513
      3          1           0        3.801186    0.480012   -0.790036
      4          1           0        3.778146   -0.090563    0.871931
      5          6           0        1.955222   -0.481589   -0.191359
      6          8           0        1.439204   -1.540244   -0.366451
      7          7           0        1.276945    0.712944   -0.093574
      8          1           0        1.886588    1.484873    0.068357
      9          6           0       -0.046934    1.000238    0.464109
     10          1           0        0.049241    1.111909    1.540314
     11          6           0       -0.507936    2.339596   -0.110583
     12          1           0       -0.590700    2.300826   -1.191785
     13          1           0       -1.458246    2.641261    0.312612
     14          1           0        0.216503    3.112012    0.128710
     15          6           0       -1.067423   -0.150434    0.362828
     16          8           0       -0.949402   -1.116416    1.055571
     17          7           0       -2.204765    0.096603   -0.336830
     18          1           0       -2.170275    0.770824   -1.065446
     19          6           0       -3.205368   -0.945346   -0.460968
     20          1           0       -3.480793   -1.297214    0.521774
     21          1           0       -4.078909   -0.527624   -0.944560
     22          1           0       -2.845821   -1.790438   -1.037802
 ---------------------------------------------------------------------

 The electronic state is 1-A.
 Alpha  occ. eigenvalues --  -20.51996 -20.51495 -15.58488 -15.58142 -11.34469
 Alpha  occ. eigenvalues --  -11.34172 -11.28860 -11.25057 -11.23897 -11.22999
 Alpha  occ. eigenvalues --   -1.39313  -1.38263  -1.23831  -1.22542  -1.05978
 Alpha  occ. eigenvalues --   -0.99100  -0.95029  -0.88824  -0.80101  -0.77529
 Alpha  occ. eigenvalues --   -0.70065  -0.68581  -0.66242  -0.63783  -0.62096
 Alpha  occ. eigenvalues --   -0.61212  -0.59639  -0.57794  -0.57418  -0.56203
 Alpha  occ. eigenvalues --   -0.55270  -0.54415  -0.54052  -0.51864  -0.49783
 Alpha  occ. eigenvalues --   -0.42119  -0.40092  -0.38974  -0.38273
 Alpha virt. eigenvalues --    0.18444   0.20130   0.21687   0.23365   0.25999
 Alpha virt. eigenvalues --    0.27952   0.28586   0.29645   0.30584   0.31214
 Alpha virt. eigenvalues --    0.32552   0.33139   0.34749   0.34864   0.37652

 Mulliken atomic charges:
              1
     1  H    0.217500
     2  C   -0.597533
     3  H    0.178205
     4  H    0.189168
     5  C    0.747487
     6  O   -0.555770
     7  N   -0.808300
     8  H    0.369028
     9  C   -0.018264
    10  H    0.206433
    11  C   -0.511731
    12  H    0.173355
    13  H    0.191295
    14  H    0.170008
    15  C    0.772640
    16  O   -0.583217
    17  N   -0.797162
    18  H    0.382736
    19  C   -0.278415
    20  H    0.204433
    21  H    0.163598
    22  H    0.184504
 Sum of Mulliken atomic charges =   0.00000

 Dipole moment (field-independent basis, Debye):
    X=              0.2323    Y=              5.6768    Z=             -1.3461  Tot=              5.8388
 Quadrupole moment (field-independent basis, Debye-Ang):
   XX=            -47.4170   YY=            -64.3272   ZZ=            -61.1815
   XY=              3.4751   XZ=              5.4334   YZ=              2.1365

 Normal termination of Gaussian 09 at Fri Feb 10 21:53:43 2017.
