 Gaussian 09, Revision A.02,
 Gaussian 09:  EM64L-G09RevA.02 11-Jun-2009

 -------------------------------------------
 # HF/6-31G* Opt=(ModRedundant) geom=nocrowd
 -------------------------------------------

 ------------------
 Phi Psi fixed scan
 ------------------
 Symbolic Z-matrix:
 Charge =  0 Multiplicity = 1

 SCF Done:  E(RHF) =  -492.824784789     A.U. after   15 cycles
 SCF Done:  E(RHF) =  -492.839230412     A.U. after   14 cycles
 SCF Done:  E(RHF) =  -492.842332029     A.U. after   14 cycles
 SCF Done:  E(RHF) =  -492.843248804     A.U. after   13 cycles
 SCF Done:  E(RHF) =  -492.843837670     A.U. after   13 cycles
 SCF Done:  E(RHF) =  -492.844161803     A.U. after   13 cycles
 SCF Done:  E(RHF) =  -492.844473819     A.U. after   13 cycles
 SCF Done:  E(RHF) =  -492.844808912     A.U. after   11 cycles
 SCF Done:  E(RHF) =  -492.845063247     A.U. after   13 cycles
 SCF Done:  E(RHF) =  -492.845269390     A.U. after   13 cycles
 SCF Done:  E(RHF) =  -492.845666759     A.U. after   12 cycles
 SCF Done:  E(RHF) =  -492.845813927     A.U. after   12 cycles
 SCF Done:  E(RHF) =  -492.845818644     A.U. after   11 cycles
 SCF Done:  E(RHF) =  -492.845831381     A.U. after   11 cycles
 SCF Done:  E(RHF) =  -492.845834740     A.U. after   10 cycles
 SCF Done:  E(RHF) =  -492.845836171     A.U. after   10 cycles
 SCF Done:  E(RHF) =  -492.845836521     A.U. after    8 cycles
 SCF Done:  E(RHF) =  -492.845836797     A.U. after    8 cycles
 SCF Done:  E(RHF) =  -492.845837014     A.U. after    8 cycles
 SCF Done:  E(RHF) =  -492.845837175     A.U. after    8 cycles
 Optimization completed.
    -- Stationary point found.

                         Standard orientation:
 ---------------------------------------------------------------------
 Center     Atomic      Atomic             Coordinates (Angstroms)
 Number     Number       Type             X           Y           Z
 ---------------------------------------------------------------------
      1          1           0        3.459644   -1.679894   -0.531904
      2          6           0        3.238791   -0.647945   -0.302043
      3          1           0        3.533489   -0.017015   -1.133329
      4          1           0        3.818229   -0.355917    0.568601
      5          6           0        1.763800   -0.523409    0.018274
      6          8           0        1.103729   -1.464303    0.355252
      7          7           0        1.254592    0.730629   -0.120325
      8          1           0        1.905573    1.454582   -0.328434
      9          6           0       -0.032272    1.196708    0.388643
     10          1           0        0.086101    1.498295    1.422518
     11          6           0       -0.495984    2.403523   -0.425322
     12          1           0       -0.609791    2.161428   -1.474894
     13          1           0       -1.445875    2.765631   -0.050616
     14          1           0        0.224591    3.212126   -0.339715
     15          6           0       -1.104015    0.098568    0.464839
     16          8           0       -1.539868   -0.238002    1.525815
     17          7           0       -1.655881   -0.281993   -0.718331
     18          1           0       -1.066337   -0.192893   -1.516388
     19          6           0       -2.567397   -1.410400   -0.737202
     20          1           0       -3.370136   -1.231521   -0.038192
     21          1           0       -2.982838   -1.502583   -1.732592
     22          1           0       -2.072045   -2.336524   -0.466121
 ---------------------------------------------------------------------

 The electronic state is 1-A.
 Alpha  occ. eigenvalues --  -20.53037 -20.51520 -15.59574 -15.57196 -11.35640
 Alpha  occ. eigenvalues --  -11.33750 -11.28236 -11.24313 -11.23945 -11.23636
 Alpha  occ. eigenvalues --   -1.40128  -1.38302  -1.24748  -1.21883  -1.06162
 Alpha  occ. eigenvalues --   -0.99914  -0.94564  -0.88352  -0.81038  -0.76964
 Alpha  occ. eigenvalues --   -0.70475  -0.69248  -0.67111  -0.63031  -0.62376
 Alpha  occ. eigenvalues --   -0.61731  -0.59643  -0.58224  -0.57795  -0.56100
 Alpha  occ. eigenvalues --   -0.55034  -0.54198  -0.53693  -0.51239  -0.50927
 Alpha  occ. eigenvalues --   -0.42280  -0.41041  -0.39720  -0.38169
 Alpha virt. eigenvalues --    0.19134   0.20190   0.21133   0.23968   0.25829
 Alpha virt. eigenvalues --    0.28082   0.28540   0.29660   0.29832   0.31608
 Alpha virt. eigenvalues --    0.32548   0.33423   0.34694   0.34948   0.37477

 Mulliken atomic charges:
              1
     1  H    0.218114
     2  C   -0.589842
     3  H    0.175786
     4  H    0.201107
     5  C    0.748782
     6  O   -0.591635
     7  N   -0.823543
     8  H    0.379799
     9  C   -0.029756
    10  H    0.217517
    11  C   -0.492048
    12  H    0.172229
    13  H    0.196519
    14  H    0.162714
    15  C    0.781540
    16  O   -0.600704
    17  N   -0.765516
    18  H    0.374569
    19  C   -0.286619
    20  H    0.201414
    21  H    0.162065
    22  H    0.187508
 Sum of Mulliken atomic charges =   0.00000

 Dipole moment (field-independent basis, Debye):
    X=              3.0468    Y=              3.4034    Z=             -4.0083  Tot=              6.0772
 Quadrupole moment (field-independent basis, Debye-Ang):
   XX=            -53.0625   YY=            -59.6864   ZZ=            -63.7601
   XY=              4.1308   XZ=              4.2092   YZ=              3.8533

 Normal termination of Gaussian 09 at Fri Feb 10 22:01:50 2017.
