 Gaussian 09, Revision A.02,
 Gaussian 09:  EM64L-G09RevA.02 11-Jun-2009

 -------------------------------------------
 # HF/6-31G* Opt=(ModRedundant) geom=nocrowd
 -------------------------------------------

 ------------------
 Phi Psi fixed scan
 ------------------
 Symbolic Z-matrix:
 Charge =  0 Multiplicity = 1

 SCF Done:  E(RHF) =  -492.818161396     A.U. after   15 cycles
 SCF Done:  E(RHF) =  -492.838015554     A.U. after   15 cycles
 SCF Done:  E(RHF) =  -492.843593521     A.U. after   14 cycles
 SCF Done:  E(RHF) =  -492.845593001     A.U. after   13 cycles
 SCF Done:  E(RHF) =  -492.846974593     A.U. after   13 cycles
 SCF Done:  E(RHF) =  -492.847800192     A.U. after   13 cycles
 SCF Done:  E(RHF) =  -492.848745713     A.U. after   13 cycles
 SCF Done:  E(RHF) =  -492.849040916     A.U. after   13 cycles
 SCF Done:  E(RHF) =  -492.849131873     A.U. after   11 cycles
 SCF Done:  E(RHF) =  -492.849223917     A.U. after   11 cycles
 SCF Done:  E(RHF) =  -492.849314822     A.U. after   11 cycles
 SCF Done:  E(RHF) =  -492.849448889     A.U. after   12 cycles
 SCF Done:  E(RHF) =  -492.849642672     A.U. after   12 cycles
 SCF Done:  E(RHF) =  -492.849743328     A.U. after   11 cycles
 SCF Done:  E(RHF) =  -492.849760011     A.U. after   11 cycles
 SCF Done:  E(RHF) =  -492.849766046     A.U. after   11 cycles
 SCF Done:  E(RHF) =  -492.849780217     A.U. after   11 cycles
 SCF Done:  E(RHF) =  -492.849781923     A.U. after   10 cycles
 SCF Done:  E(RHF) =  -492.849782290     A.U. after    9 cycles
 SCF Done:  E(RHF) =  -492.849782334     A.U. after    8 cycles
 Optimization completed.
    -- Stationary point found.

                         Standard orientation:
 ---------------------------------------------------------------------
 Center     Atomic      Atomic             Coordinates (Angstroms)
 Number     Number       Type             X           Y           Z
 ---------------------------------------------------------------------
      1          1           0       -3.530697   -1.658625    0.176827
      2          6           0       -3.084664   -0.725465    0.487875
      3          1           0       -2.847613   -0.785127    1.545743
      4          1           0       -3.789363    0.085620    0.339145
      5          6           0       -1.803753   -0.508774   -0.281473
      6          8           0       -1.229501   -1.392142   -0.848382
      7          7           0       -1.359153    0.790445   -0.331967
      8          1           0       -1.823055    1.396315    0.309753
      9          6           0        0.058703    1.078250   -0.465832
     10          1           0        0.297172    1.145464   -1.522554
     11          6           0        0.372016    2.421924    0.193175
     12          1           0        0.181791    2.371936    1.259838
     13          1           0        1.412016    2.685216    0.045079
     14          1           0       -0.242477    3.204416   -0.239682
     15          6           0        0.940436   -0.002029    0.170807
     16          8           0        0.646415   -0.509089    1.216925
     17          7           0        2.148507   -0.166853   -0.416725
     18          1           0        2.221486    0.069710   -1.380203
     19          6           0        3.070680   -1.167934    0.082161
     20          1           0        3.195703   -1.039888    1.146717
     21          1           0        2.716116   -2.175787   -0.104249
     22          1           0        4.027623   -1.030384   -0.404188
 ---------------------------------------------------------------------

 The electronic state is 1-A.
 Alpha  occ. eigenvalues --  -20.52126 -20.51934 -15.58292 -15.58048 -11.34318
 Alpha  occ. eigenvalues --  -11.34127 -11.28217 -11.25232 -11.23668 -11.22680
 Alpha  occ. eigenvalues --   -1.39735  -1.38173  -1.23617  -1.22928  -1.05662
 Alpha  occ. eigenvalues --   -0.99083  -0.95694  -0.87659  -0.79700  -0.77657
 Alpha  occ. eigenvalues --   -0.71177  -0.68167  -0.66777  -0.63465  -0.62365
 Alpha  occ. eigenvalues --   -0.61415  -0.59511  -0.57938  -0.57483  -0.55607
 Alpha  occ. eigenvalues --   -0.54832  -0.54319  -0.53447  -0.51961  -0.48939
 Alpha  occ. eigenvalues --   -0.42754  -0.41450  -0.38944  -0.38871
 Alpha virt. eigenvalues --    0.19223   0.20589   0.22048   0.23417   0.26506
 Alpha virt. eigenvalues --    0.27365   0.29808   0.30231   0.30790   0.31298
 Alpha virt. eigenvalues --    0.32070   0.32962   0.34136   0.34901   0.37934

 Mulliken atomic charges:
              1
     1  H    0.213222
     2  C   -0.599282
     3  H    0.209265
     4  H    0.176594
     5  C    0.763876
     6  O   -0.599355
     7  N   -0.783756
     8  H    0.375529
     9  C   -0.007734
    10  H    0.186268
    11  C   -0.520863
    12  H    0.191249
    13  H    0.191318
    14  H    0.182418
    15  C    0.781332
    16  O   -0.624806
    17  N   -0.790301
    18  H    0.380322
    19  C   -0.280913
    20  H    0.203214
    21  H    0.185816
    22  H    0.166584
 Sum of Mulliken atomic charges =   0.00000

 Dipole moment (field-independent basis, Debye):
    X=              0.5740    Y=              3.5531    Z=             -0.7446  Tot=              3.6754
 Quadrupole moment (field-independent basis, Debye-Ang):
   XX=            -47.9977   YY=            -61.1335   ZZ=            -63.1406
   XY=             -3.5159   XZ=             -7.5670   YZ=             -0.5413

 Normal termination of Gaussian 09 at Fri Feb 10 21:34:40 2017.
