 Gaussian 09, Revision A.02,
 Gaussian 09:  EM64L-G09RevA.02 11-Jun-2009

 -------------------------------------------
 # HF/6-31G* Opt=(ModRedundant) geom=nocrowd
 -------------------------------------------

 ------------------
 Phi Psi fixed scan
 ------------------
 Symbolic Z-matrix:
 Charge =  0 Multiplicity = 1

 SCF Done:  E(RHF) =  -492.830785458     A.U. after   15 cycles
 SCF Done:  E(RHF) =  -492.843977366     A.U. after   14 cycles
 SCF Done:  E(RHF) =  -492.846144810     A.U. after   13 cycles
 SCF Done:  E(RHF) =  -492.846898980     A.U. after   12 cycles
 SCF Done:  E(RHF) =  -492.847462994     A.U. after   12 cycles
 SCF Done:  E(RHF) =  -492.847719907     A.U. after   13 cycles
 SCF Done:  E(RHF) =  -492.848022897     A.U. after   12 cycles
 SCF Done:  E(RHF) =  -492.848167973     A.U. after   12 cycles
 SCF Done:  E(RHF) =  -492.848420000     A.U. after   16 cycles
 SCF Done:  E(RHF) =  -492.848533790     A.U. after   16 cycles
 SCF Done:  E(RHF) =  -492.848958413     A.U. after   10 cycles
 SCF Done:  E(RHF) =  -492.848965897     A.U. after   11 cycles
 SCF Done:  E(RHF) =  -492.848970919     A.U. after   11 cycles
 SCF Done:  E(RHF) =  -492.848978714     A.U. after   11 cycles
 SCF Done:  E(RHF) =  -492.848991607     A.U. after   11 cycles
 SCF Done:  E(RHF) =  -492.848996830     A.U. after   10 cycles
 SCF Done:  E(RHF) =  -492.848999537     A.U. after   10 cycles
 SCF Done:  E(RHF) =  -492.849000789     A.U. after   10 cycles
 SCF Done:  E(RHF) =  -492.849000919     A.U. after    9 cycles
 SCF Done:  E(RHF) =  -492.849000964     A.U. after    8 cycles
 Optimization completed.
    -- Stationary point found.

                         Standard orientation:
 ---------------------------------------------------------------------
 Center     Atomic      Atomic             Coordinates (Angstroms)
 Number     Number       Type             X           Y           Z
 ---------------------------------------------------------------------
      1          1           0        3.398532   -1.653278   -0.450732
      2          6           0        3.204925   -0.606020   -0.269187
      3          1           0        3.430765   -0.032836   -1.161308
      4          1           0        3.861655   -0.270131    0.527097
      5          6           0        1.767286   -0.447162    0.181983
      6          8           0        1.172431   -1.338959    0.722056
      7          7           0        1.231386    0.778135   -0.037350
      8          1           0        1.802129    1.444369   -0.505679
      9          6           0       -0.108280    1.234125    0.315005
     10          1           0       -0.097738    1.611743    1.329350
     11          6           0       -0.514054    2.369212   -0.627958
     12          1           0       -0.561308    2.024705   -1.654874
     13          1           0       -1.486722    2.750576   -0.344209
     14          1           0        0.196952    3.188296   -0.567013
     15          6           0       -1.227037    0.185549    0.337440
     16          8           0       -2.076654    0.281634    1.177246
     17          7           0       -1.296620   -0.690858   -0.692517
     18          1           0       -0.434732   -0.914723   -1.132091
     19          6           0       -2.266825   -1.766913   -0.640051
     20          1           0       -3.249196   -1.357248   -0.460995
     21          1           0       -2.267862   -2.277838   -1.594286
     22          1           0       -2.038135   -2.478724    0.145994
 ---------------------------------------------------------------------

 The electronic state is 1-A.
 Alpha  occ. eigenvalues --  -20.53339 -20.51780 -15.60011 -15.57047 -11.36084
 Alpha  occ. eigenvalues --  -11.33923 -11.28354 -11.24346 -11.24326 -11.23674
 Alpha  occ. eigenvalues --   -1.40406  -1.38579  -1.25144  -1.21936  -1.06394
 Alpha  occ. eigenvalues --   -1.00181  -0.94799  -0.88315  -0.81499  -0.77367
 Alpha  occ. eigenvalues --   -0.70859  -0.69645  -0.67480  -0.62791  -0.62409
 Alpha  occ. eigenvalues --   -0.62400  -0.59729  -0.58553  -0.58229  -0.56086
 Alpha  occ. eigenvalues --   -0.55249  -0.54138  -0.53850  -0.51870  -0.50224
 Alpha  occ. eigenvalues --   -0.42898  -0.41724  -0.40014  -0.37936
 Alpha virt. eigenvalues --    0.18866   0.20331   0.20463   0.25330   0.25554
 Alpha virt. eigenvalues --    0.27841   0.28871   0.29583   0.29641   0.31474
 Alpha virt. eigenvalues --    0.32415   0.33398   0.34091   0.35068   0.37112

 Mulliken atomic charges:
              1
     1  H    0.216345
     2  C   -0.584828
     3  H    0.171576
     4  H    0.207336
     5  C    0.736399
     6  O   -0.603089
     7  N   -0.836391
     8  H    0.386454
     9  C    0.007317
    10  H    0.222483
    11  C   -0.518119
    12  H    0.181689
    13  H    0.208932
    14  H    0.167274
    15  C    0.765381
    16  O   -0.612783
    17  N   -0.762771
    18  H    0.384635
    19  C   -0.285671
    20  H    0.199653
    21  H    0.163018
    22  H    0.185159
 Sum of Mulliken atomic charges =   0.00000

 Dipole moment (field-independent basis, Debye):
    X=              3.9532    Y=              2.0646    Z=             -4.0809  Tot=              6.0452
 Quadrupole moment (field-independent basis, Debye-Ang):
   XX=            -57.8853   YY=            -57.4798   ZZ=            -63.9649
   XY=              5.3919   XZ=              2.6458   YZ=              2.6260

 Normal termination of Gaussian 09 at Fri Feb 10 22:07:43 2017.
