 Gaussian 09, Revision A.02,
 Gaussian 09:  EM64L-G09RevA.02 11-Jun-2009

 -------------------------------------------
 # HF/6-31G* Opt=(ModRedundant) geom=nocrowd
 -------------------------------------------

 ------------------
 Phi Psi fixed scan
 ------------------
 Symbolic Z-matrix:
 Charge =  0 Multiplicity = 1

 SCF Done:  E(RHF) =  -492.754759360     A.U. after   15 cycles
 SCF Done:  E(RHF) =  -492.820923980     A.U. after   15 cycles
 SCF Done:  E(RHF) =  -492.838041934     A.U. after   14 cycles
 SCF Done:  E(RHF) =  -492.844333844     A.U. after   13 cycles
 SCF Done:  E(RHF) =  -492.845165748     A.U. after   13 cycles
 SCF Done:  E(RHF) =  -492.845777318     A.U. after   13 cycles
 SCF Done:  E(RHF) =  -492.846105047     A.U. after   12 cycles
 SCF Done:  E(RHF) =  -492.846249540     A.U. after   12 cycles
 SCF Done:  E(RHF) =  -492.846445570     A.U. after   13 cycles
 SCF Done:  E(RHF) =  -492.846547595     A.U. after   13 cycles
 SCF Done:  E(RHF) =  -492.847292685     A.U. after   10 cycles
 SCF Done:  E(RHF) =  -492.847299939     A.U. after   10 cycles
 SCF Done:  E(RHF) =  -492.847307742     A.U. after   10 cycles
 SCF Done:  E(RHF) =  -492.847311873     A.U. after   11 cycles
 SCF Done:  E(RHF) =  -492.847311718     A.U. after   10 cycles
 SCF Done:  E(RHF) =  -492.847313795     A.U. after   11 cycles
 SCF Done:  E(RHF) =  -492.847311257     A.U. after   10 cycles
 SCF Done:  E(RHF) =  -492.847314547     A.U. after   10 cycles
 SCF Done:  E(RHF) =  -492.847314568     A.U. after    8 cycles
 SCF Done:  E(RHF) =  -492.847314578     A.U. after    7 cycles
 Optimization completed.
    -- Stationary point found.

                         Standard orientation:
 ---------------------------------------------------------------------
 Center     Atomic      Atomic             Coordinates (Angstroms)
 Number     Number       Type             X           Y           Z
 ---------------------------------------------------------------------
      1          1           0       -3.848000   -1.168089   -0.287680
      2          6           0       -3.287825   -0.470063    0.317833
      3          1           0       -3.289058   -0.833851    1.340468
      4          1           0       -3.771725    0.499074    0.296461
      5          6           0       -1.858679   -0.437432   -0.185041
      6          8           0       -1.345541   -1.427415   -0.642859
      7          7           0       -1.240191    0.754651   -0.061762
      8          1           0       -1.782788    1.465566    0.372613
      9          6           0        0.135210    1.175680   -0.347522
     10          1           0        0.180092    1.498730   -1.380761
     11          6           0        0.441155    2.384328    0.544229
     12          1           0        0.431300    2.098843    1.591351
     13          1           0        1.413967    2.782107    0.297871
     14          1           0       -0.297606    3.166006    0.391413
     15          6           0        1.325806    0.206643   -0.231402
     16          8           0        2.372337    0.620078   -0.657020
     17          7           0        1.208589   -0.967613    0.413988
     18          1           0        0.317850   -1.408671    0.364100
     19          6           0        2.359787   -1.847051    0.475440
     20          1           0        3.195890   -1.327154    0.919633
     21          1           0        2.105317   -2.698028    1.093381
     22          1           0        2.658886   -2.197734   -0.506614
 ---------------------------------------------------------------------

 The electronic state is 1-A.
 Alpha  occ. eigenvalues --  -20.53692 -20.51619 -15.60408 -15.56645 -11.36701
 Alpha  occ. eigenvalues --  -11.34161 -11.28895 -11.24496 -11.24336 -11.23382
 Alpha  occ. eigenvalues --   -1.40676  -1.38636  -1.25421  -1.21908  -1.06496
 Alpha  occ. eigenvalues --   -1.00219  -0.94952  -0.88229  -0.81865  -0.77313
 Alpha  occ. eigenvalues --   -0.71238  -0.70025  -0.67451  -0.63302  -0.62470
 Alpha  occ. eigenvalues --   -0.62327  -0.59792  -0.58872  -0.58193  -0.55898
 Alpha  occ. eigenvalues --   -0.55037  -0.54126  -0.53630  -0.52166  -0.49795
 Alpha  occ. eigenvalues --   -0.43445  -0.42086  -0.40137  -0.37844
 Alpha virt. eigenvalues --    0.18373   0.19850   0.20561   0.25502   0.26747
 Alpha virt. eigenvalues --    0.28161   0.28973   0.29684   0.31298   0.31553
 Alpha virt. eigenvalues --    0.32540   0.33318   0.35178   0.35398   0.37784

 Mulliken atomic charges:
              1
     1  H    0.219316
     2  C   -0.585327
     3  H    0.204496
     4  H    0.174795
     5  C    0.761475
     6  O   -0.634338
     7  N   -0.839543
     8  H    0.390409
     9  C    0.029458
    10  H    0.219376
    11  C   -0.526570
    12  H    0.179667
    13  H    0.227472
    14  H    0.163329
    15  C    0.747029
    16  O   -0.623941
    17  N   -0.804985
    18  H    0.441209
    19  C   -0.280873
    20  H    0.192667
    21  H    0.166896
    22  H    0.177983
 Sum of Mulliken atomic charges =   0.00000

 Dipole moment (field-independent basis, Debye):
    X=             -4.1165    Y=              1.5518    Z=              2.5974  Tot=              5.1088
 Quadrupole moment (field-independent basis, Debye-Ang):
   XX=            -60.7068   YY=            -58.1870   ZZ=            -62.1033
   XY=             -8.0746   XZ=              0.7163   YZ=             -1.4753

 Normal termination of Gaussian 09 at Fri Feb 10 22:17:55 2017.
