 Gaussian 09, Revision A.02,
 Gaussian 09:  EM64L-G09RevA.02 11-Jun-2009

 -------------------------------------------
 # HF/6-31G* Opt=(ModRedundant) geom=nocrowd
 -------------------------------------------

 ------------------
 Phi Psi fixed scan
 ------------------
 Symbolic Z-matrix:
 Charge =  0 Multiplicity = 1

 SCF Done:  E(RHF) =  -491.992693118     A.U. after   17 cycles
 SCF Done:  E(RHF) =  -492.341282229     A.U. after   15 cycles
 SCF Done:  E(RHF) =  -492.664238066     A.U. after   15 cycles
 SCF Done:  E(RHF) =  -492.795833606     A.U. after   15 cycles
 SCF Done:  E(RHF) =  -492.794152500     A.U. after   13 cycles
 SCF Done:  E(RHF) =  -492.814639491     A.U. after   13 cycles
 SCF Done:  E(RHF) =  -492.824816302     A.U. after   13 cycles
 SCF Done:  E(RHF) =  -492.835817814     A.U. after   14 cycles
 SCF Done:  E(RHF) =  -492.841625441     A.U. after   12 cycles
 SCF Done:  E(RHF) =  -492.843993429     A.U. after   13 cycles
 SCF Done:  E(RHF) =  -492.845806283     A.U. after   11 cycles
 SCF Done:  E(RHF) =  -492.845691438     A.U. after   12 cycles
 SCF Done:  E(RHF) =  -492.845820749     A.U. after   12 cycles
 SCF Done:  E(RHF) =  -492.845830405     A.U. after   11 cycles
 SCF Done:  E(RHF) =  -492.845827662     A.U. after   12 cycles
 SCF Done:  E(RHF) =  -492.845839624     A.U. after   11 cycles
 SCF Done:  E(RHF) =  -492.845841545     A.U. after   10 cycles
 SCF Done:  E(RHF) =  -492.845841400     A.U. after   10 cycles
 SCF Done:  E(RHF) =  -492.845842025     A.U. after   10 cycles
 SCF Done:  E(RHF) =  -492.845842031     A.U. after    7 cycles
 Optimization completed.
    -- Stationary point found.

                         Standard orientation:
 ---------------------------------------------------------------------
 Center     Atomic      Atomic             Coordinates (Angstroms)
 Number     Number       Type             X           Y           Z
 ---------------------------------------------------------------------
      1          1           0       -3.831198   -1.272009    0.095472
      2          6           0       -3.263800   -0.434557    0.473757
      3          1           0       -3.202832   -0.521516    1.554270
      4          1           0       -3.775624    0.490006    0.233574
      5          6           0       -1.863284   -0.499853   -0.103022
      6          8           0       -1.403867   -1.555647   -0.459972
      7          7           0       -1.240580    0.696713   -0.184256
      8          1           0       -1.780363    1.442226    0.191840
      9          6           0        0.148620    1.124182   -0.444300
     10          1           0        0.259170    1.217344   -1.522425
     11          6           0        0.298805    2.519082    0.161515
     12          1           0        0.207622    2.480751    1.242123
     13          1           0        1.266039    2.926831   -0.081136
     14          1           0       -0.467921    3.180385   -0.231843
     15          6           0        1.361192    0.251246   -0.045692
     16          8           0        2.403895    0.824528    0.155010
     17          7           0        1.259202   -1.076486   -0.017907
     18          1           0        0.393930   -1.510335   -0.257052
     19          6           0        2.424852   -1.892750    0.241292
     20          1           0        2.871036   -1.636589    1.193402
     21          1           0        2.114464   -2.928668    0.263816
     22          1           0        3.176784   -1.765169   -0.528504
 ---------------------------------------------------------------------

 The electronic state is 1-A.
 Alpha  occ. eigenvalues --  -20.54175 -20.51063 -15.60488 -15.56347 -11.36984
 Alpha  occ. eigenvalues --  -11.33935 -11.29246 -11.24512 -11.24393 -11.22786
 Alpha  occ. eigenvalues --   -1.40924  -1.38164  -1.25457  -1.21778  -1.06407
 Alpha  occ. eigenvalues --   -1.00068  -0.95363  -0.87892  -0.81752  -0.77602
 Alpha  occ. eigenvalues --   -0.71434  -0.69926  -0.67725  -0.63259  -0.62647
 Alpha  occ. eigenvalues --   -0.61340  -0.59928  -0.59563  -0.58213  -0.55464
 Alpha  occ. eigenvalues --   -0.54372  -0.53686  -0.53570  -0.52465  -0.50094
 Alpha  occ. eigenvalues --   -0.43702  -0.42736  -0.39142  -0.37388
 Alpha virt. eigenvalues --    0.18429   0.19807   0.21562   0.25747   0.26940
 Alpha virt. eigenvalues --    0.28438   0.28643   0.29482   0.30751   0.31722
 Alpha virt. eigenvalues --    0.32665   0.32758   0.34838   0.35988   0.38858

 Mulliken atomic charges:
              1
     1  H    0.220176
     2  C   -0.591106
     3  H    0.204270
     4  H    0.178880
     5  C    0.777081
     6  O   -0.640411
     7  N   -0.841095
     8  H    0.393158
     9  C    0.003623
    10  H    0.214021
    11  C   -0.517229
    12  H    0.175860
    13  H    0.232141
    14  H    0.158351
    15  C    0.761728
    16  O   -0.634000
    17  N   -0.841463
    18  H    0.479598
    19  C   -0.267007
    20  H    0.184719
    21  H    0.169025
    22  H    0.179681
 Sum of Mulliken atomic charges =   0.00000

 Dipole moment (field-independent basis, Debye):
    X=             -4.0183    Y=              1.2390    Z=              0.7007  Tot=              4.2630
 Quadrupole moment (field-independent basis, Debye-Ang):
   XX=            -61.7692   YY=            -59.8663   ZZ=            -60.1913
   XY=             -9.9402   XZ=             -3.7920   YZ=             -2.1168

 Normal termination of Gaussian 09 at Fri Feb 10 21:10:24 2017.
