 Gaussian 09, Revision A.02,
 Gaussian 09:  EM64L-G09RevA.02 11-Jun-2009

 -------------------------------------------
 # HF/6-31G* Opt=(ModRedundant) geom=nocrowd
 -------------------------------------------

 ------------------
 Phi Psi fixed scan
 ------------------
 Symbolic Z-matrix:
 Charge =  0 Multiplicity = 1

 SCF Done:  E(RHF) =  -492.833253009     A.U. after   15 cycles
 SCF Done:  E(RHF) =  -492.844374425     A.U. after   14 cycles
 SCF Done:  E(RHF) =  -492.847504457     A.U. after   14 cycles
 SCF Done:  E(RHF) =  -492.848859278     A.U. after   13 cycles
 SCF Done:  E(RHF) =  -492.850063921     A.U. after   13 cycles
 SCF Done:  E(RHF) =  -492.851009854     A.U. after   14 cycles
 SCF Done:  E(RHF) =  -492.851100726     A.U. after   13 cycles
 SCF Done:  E(RHF) =  -492.851519492     A.U. after   13 cycles
 SCF Done:  E(RHF) =  -492.851646371     A.U. after   11 cycles
 SCF Done:  E(RHF) =  -492.851811212     A.U. after   12 cycles
 SCF Done:  E(RHF) =  -492.851993698     A.U. after   11 cycles
 SCF Done:  E(RHF) =  -492.852241084     A.U. after   12 cycles
 SCF Done:  E(RHF) =  -492.852282850     A.U. after   11 cycles
 SCF Done:  E(RHF) =  -492.852299922     A.U. after   11 cycles
 SCF Done:  E(RHF) =  -492.852317161     A.U. after   11 cycles
 SCF Done:  E(RHF) =  -492.852334112     A.U. after   11 cycles
 SCF Done:  E(RHF) =  -492.852335585     A.U. after    9 cycles
 SCF Done:  E(RHF) =  -492.852336161     A.U. after    9 cycles
 SCF Done:  E(RHF) =  -492.852336381     A.U. after    8 cycles
 SCF Done:  E(RHF) =  -492.852336456     A.U. after    8 cycles
 Optimization completed.
    -- Stationary point found.

                         Standard orientation:
 ---------------------------------------------------------------------
 Center     Atomic      Atomic             Coordinates (Angstroms)
 Number     Number       Type             X           Y           Z
 ---------------------------------------------------------------------
      1          1           0       -3.418134   -1.827152    0.123303
      2          6           0       -3.059972   -0.851995    0.418993
      3          1           0       -2.921118   -0.843423    1.495844
      4          1           0       -3.795107   -0.097404    0.161958
      5          6           0       -1.727373   -0.594026   -0.243151
      6          8           0       -1.034010   -1.474326   -0.668450
      7          7           0       -1.371237    0.720892   -0.358994
      8          1           0       -1.918039    1.351619    0.185195
      9          6           0        0.024937    1.104463   -0.495376
     10          1           0        0.270589    1.131090   -1.552060
     11          6           0        0.237742    2.497588    0.092227
     12          1           0        0.036024    2.490367    1.156967
     13          1           0        1.261884    2.817831   -0.058944
     14          1           0       -0.415983    3.216245   -0.391636
     15          6           0        0.962477    0.117857    0.210778
     16          8           0        0.792455   -0.168234    1.363493
     17          7           0        2.054460   -0.250112   -0.495835
     18          1           0        1.971555   -0.225572   -1.486871
     19          6           0        2.969772   -1.231580    0.052031
     20          1           0        3.272119   -0.925459    1.042130
     21          1           0        2.516062   -2.214451    0.117737
     22          1           0        3.844527   -1.282517   -0.583171
 ---------------------------------------------------------------------

 The electronic state is 1-A.
 Alpha  occ. eigenvalues --  -20.52529 -20.51665 -15.58438 -15.57898 -11.34732
 Alpha  occ. eigenvalues --  -11.33894 -11.28124 -11.24847 -11.23387 -11.23044
 Alpha  occ. eigenvalues --   -1.39835  -1.38191  -1.23841  -1.22664  -1.05690
 Alpha  occ. eigenvalues --   -0.99305  -0.95504  -0.87464  -0.79930  -0.77473
 Alpha  occ. eigenvalues --   -0.71103  -0.68611  -0.66924  -0.63375  -0.62045
 Alpha  occ. eigenvalues --   -0.61548  -0.59533  -0.58178  -0.57548  -0.55339
 Alpha  occ. eigenvalues --   -0.54457  -0.54291  -0.53163  -0.52009  -0.49288
 Alpha  occ. eigenvalues --   -0.42595  -0.41785  -0.39198  -0.38506
 Alpha virt. eigenvalues --    0.19193   0.20828   0.21946   0.23733   0.26454
 Alpha virt. eigenvalues --    0.27582   0.29426   0.30447   0.30802   0.31222
 Alpha virt. eigenvalues --    0.32365   0.33324   0.34274   0.35213   0.37994

 Mulliken atomic charges:
              1
     1  H    0.214131
     2  C   -0.596458
     3  H    0.208900
     4  H    0.178036
     5  C    0.760477
     6  O   -0.607191
     7  N   -0.787862
     8  H    0.379925
     9  C   -0.001594
    10  H    0.184860
    11  C   -0.524129
    12  H    0.197701
    13  H    0.190591
    14  H    0.177319
    15  C    0.785091
    16  O   -0.629040
    17  N   -0.784335
    18  H    0.382879
    19  C   -0.283874
    20  H    0.201217
    21  H    0.187474
    22  H    0.165882
 Sum of Mulliken atomic charges =   0.00000

 Dipole moment (field-independent basis, Debye):
    X=             -0.5145    Y=              2.9018    Z=             -1.4898  Tot=              3.3022
 Quadrupole moment (field-independent basis, Debye-Ang):
   XX=            -48.5934   YY=            -60.3566   ZZ=            -63.4844
   XY=             -3.8346   XZ=             -6.8330   YZ=             -0.6657

 Normal termination of Gaussian 09 at Fri Feb 10 21:31:51 2017.
