 Gaussian 09, Revision A.02,
 Gaussian 09:  EM64L-G09RevA.02 11-Jun-2009

 -------------------------------------------
 # HF/6-31G* Opt=(ModRedundant) geom=nocrowd
 -------------------------------------------

 ------------------
 Phi Psi fixed scan
 ------------------
 Symbolic Z-matrix:
 Charge =  0 Multiplicity = 1

 SCF Done:  E(RHF) =  -492.693932512     A.U. after   17 cycles
 SCF Done:  E(RHF) =  -492.802923324     A.U. after   16 cycles
 SCF Done:  E(RHF) =  -492.811021684     A.U. after   14 cycles
 SCF Done:  E(RHF) =  -492.820903031     A.U. after   14 cycles
 SCF Done:  E(RHF) =  -492.821886352     A.U. after   13 cycles
 SCF Done:  E(RHF) =  -492.821957485     A.U. after   13 cycles
 SCF Done:  E(RHF) =  -492.822262125     A.U. after   11 cycles
 SCF Done:  E(RHF) =  -492.822367342     A.U. after   12 cycles
 SCF Done:  E(RHF) =  -492.822532531     A.U. after   13 cycles
 SCF Done:  E(RHF) =  -492.822710214     A.U. after   13 cycles
 SCF Done:  E(RHF) =  -492.824950535     A.U. after   13 cycles
 SCF Done:  E(RHF) =  -492.824986235     A.U. after   12 cycles
 SCF Done:  E(RHF) =  -492.825007857     A.U. after   11 cycles
 SCF Done:  E(RHF) =  -492.825013007     A.U. after   11 cycles
 SCF Done:  E(RHF) =  -492.825018952     A.U. after   11 cycles
 SCF Done:  E(RHF) =  -492.825024279     A.U. after   11 cycles
 SCF Done:  E(RHF) =  -492.825026035     A.U. after   11 cycles
 SCF Done:  E(RHF) =  -492.825026369     A.U. after    9 cycles
 SCF Done:  E(RHF) =  -492.825026546     A.U. after    9 cycles
 SCF Done:  E(RHF) =  -492.825026548     A.U. after    8 cycles
 Optimization completed.
    -- Stationary point found.

                         Standard orientation:
 ---------------------------------------------------------------------
 Center     Atomic      Atomic             Coordinates (Angstroms)
 Number     Number       Type             X           Y           Z
 ---------------------------------------------------------------------
      1          1           0       -3.701849   -1.143973    1.003603
      2          6           0       -3.004615   -0.327074    1.114020
      3          1           0       -2.457488   -0.449720    2.044416
      4          1           0       -3.551476    0.609410    1.167232
      5          6           0       -2.044008   -0.341131   -0.060891
      6          8           0       -2.032139   -1.224798   -0.853882
      7          7           0       -1.278120    0.814299   -0.158765
      8          1           0       -1.460334    1.414636    0.617032
      9          6           0        0.124639    0.954294   -0.566599
     10          1           0        0.140628    0.977955   -1.652475
     11          6           0        0.602375    2.320869   -0.078747
     12          1           0        0.668719    2.366315    1.005793
     13          1           0        1.568582    2.573998   -0.497656
     14          1           0       -0.099772    3.079691   -0.403008
     15          6           0        1.044247   -0.245194   -0.254590
     16          8           0        0.747244   -1.367598   -0.535843
     17          7           0        2.254804    0.049007    0.281350
     18          1           0        2.439679    0.954366    0.637730
     19          6           0        3.201273   -1.006158    0.577832
     20          1           0        3.360944   -1.617900   -0.298428
     21          1           0        4.140660   -0.555480    0.870269
     22          1           0        2.850619   -1.646919    1.379058
 ---------------------------------------------------------------------

 The electronic state is 1-A.
 Alpha  occ. eigenvalues --  -20.51862 -20.51736 -15.58668 -15.58057 -11.34470
 Alpha  occ. eigenvalues --  -11.33970 -11.28960 -11.25769 -11.24847 -11.22775
 Alpha  occ. eigenvalues --   -1.39488  -1.38183  -1.23679  -1.22824  -1.06135
 Alpha  occ. eigenvalues --   -0.98999  -0.95743  -0.89273  -0.79687  -0.78119
 Alpha  occ. eigenvalues --   -0.71092  -0.67298  -0.66372  -0.64194  -0.61932
 Alpha  occ. eigenvalues --   -0.61644  -0.59796  -0.58198  -0.57799  -0.56359
 Alpha  occ. eigenvalues --   -0.55795  -0.55311  -0.53921  -0.50986  -0.49608
 Alpha  occ. eigenvalues --   -0.43650  -0.40984  -0.38877  -0.37120
 Alpha virt. eigenvalues --    0.18916   0.20283   0.21594   0.23354   0.25559
 Alpha virt. eigenvalues --    0.27767   0.28136   0.28574   0.29154   0.31246
 Alpha virt. eigenvalues --    0.32145   0.32965   0.33284   0.34006   0.37494

 Mulliken atomic charges:
              1
     1  H    0.217706
     2  C   -0.601695
     3  H    0.183535
     4  H    0.178918
     5  C    0.750958
     6  O   -0.535707
     7  N   -0.815450
     8  H    0.365743
     9  C    0.011642
    10  H    0.220885
    11  C   -0.558504
    12  H    0.165476
    13  H    0.189055
    14  H    0.205241
    15  C    0.742464
    16  O   -0.574251
    17  N   -0.815011
    18  H    0.390722
    19  C   -0.268814
    20  H    0.203314
    21  H    0.163297
    22  H    0.180476
 Sum of Mulliken atomic charges =   0.00000

 Dipole moment (field-independent basis, Debye):
    X=              2.4864    Y=              5.5547    Z=              3.9559  Tot=              7.2585
 Quadrupole moment (field-independent basis, Debye-Ang):
   XX=            -52.6273   YY=            -63.6076   ZZ=            -60.6250
   XY=             -2.0904   XZ=             -3.9488   YZ=             -3.3602

 Normal termination of Gaussian 09 at Fri Feb 10 21:51:03 2017.
