 Gaussian 09, Revision A.02,
 Gaussian 09:  EM64L-G09RevA.02 11-Jun-2009

 -------------------------------------------
 # HF/6-31G* Opt=(ModRedundant) geom=nocrowd
 -------------------------------------------

 ------------------
 Phi Psi fixed scan
 ------------------
 Symbolic Z-matrix:
 Charge =  0 Multiplicity = 1

 SCF Done:  E(RHF) =  -492.808433365     A.U. after   15 cycles
 SCF Done:  E(RHF) =  -492.831046368     A.U. after   14 cycles
 SCF Done:  E(RHF) =  -492.836404121     A.U. after   13 cycles
 SCF Done:  E(RHF) =  -492.837547202     A.U. after   13 cycles
 SCF Done:  E(RHF) =  -492.837967425     A.U. after   13 cycles
 SCF Done:  E(RHF) =  -492.838510075     A.U. after   13 cycles
 SCF Done:  E(RHF) =  -492.839119588     A.U. after   13 cycles
 SCF Done:  E(RHF) =  -492.839270463     A.U. after   13 cycles
 SCF Done:  E(RHF) =  -492.839570021     A.U. after   12 cycles
 SCF Done:  E(RHF) =  -492.839753935     A.U. after   11 cycles
 SCF Done:  E(RHF) =  -492.840363915     A.U. after   12 cycles
 SCF Done:  E(RHF) =  -492.840469620     A.U. after   11 cycles
 SCF Done:  E(RHF) =  -492.840486932     A.U. after   11 cycles
 SCF Done:  E(RHF) =  -492.840493845     A.U. after   10 cycles
 SCF Done:  E(RHF) =  -492.840495177     A.U. after    9 cycles
 SCF Done:  E(RHF) =  -492.840495993     A.U. after    9 cycles
 SCF Done:  E(RHF) =  -492.840496408     A.U. after    8 cycles
 SCF Done:  E(RHF) =  -492.840496568     A.U. after    8 cycles
 SCF Done:  E(RHF) =  -492.840496664     A.U. after    8 cycles
 SCF Done:  E(RHF) =  -492.840496707     A.U. after    8 cycles
 Optimization completed.
    -- Stationary point found.

                         Standard orientation:
 ---------------------------------------------------------------------
 Center     Atomic      Atomic             Coordinates (Angstroms)
 Number     Number       Type             X           Y           Z
 ---------------------------------------------------------------------
      1          1           0        3.610048   -1.569258   -0.571804
      2          6           0        3.317424   -0.564526   -0.305378
      3          1           0        3.629824    0.124626   -1.082670
      4          1           0        3.820665   -0.286401    0.615915
      5          6           0        1.817969   -0.532177   -0.090665
      6          8           0        1.174487   -1.528315    0.060481
      7          7           0        1.270530    0.718603   -0.125603
      8          1           0        1.926429    1.466655   -0.179494
      9          6           0       -0.013243    1.127198    0.443494
     10          1           0        0.126754    1.344654    1.496103
     11          6           0       -0.484952    2.400602   -0.256057
     12          1           0       -0.593228    2.259259   -1.324988
     13          1           0       -1.434656    2.728638    0.148571
     14          1           0        0.236298    3.197807   -0.100027
     15          6           0       -1.070442    0.008276    0.472653
     16          8           0       -1.287884   -0.577816    1.491293
     17          7           0       -1.871464   -0.100251   -0.620093
     18          1           0       -1.480219    0.194376   -1.486766
     19          6           0       -2.819616   -1.195868   -0.693149
     20          1           0       -3.453456   -1.177438    0.180357
     21          1           0       -3.432501   -1.063300   -1.575478
     22          1           0       -2.325089   -2.160061   -0.739421
 ---------------------------------------------------------------------

 The electronic state is 1-A.
 Alpha  occ. eigenvalues --  -20.52742 -20.51435 -15.59190 -15.57543 -11.35258
 Alpha  occ. eigenvalues --  -11.33852 -11.28363 -11.24547 -11.23676 -11.23633
 Alpha  occ. eigenvalues --   -1.39831  -1.38294  -1.24404  -1.22098  -1.06040
 Alpha  occ. eigenvalues --   -0.99657  -0.94678  -0.88458  -0.80654  -0.77139
 Alpha  occ. eigenvalues --   -0.70324  -0.68988  -0.66796  -0.63261  -0.62337
 Alpha  occ. eigenvalues --   -0.61507  -0.59581  -0.58048  -0.57692  -0.56095
 Alpha  occ. eigenvalues --   -0.54987  -0.54393  -0.53639  -0.51534  -0.50544
 Alpha  occ. eigenvalues --   -0.42116  -0.40762  -0.39508  -0.38232
 Alpha virt. eigenvalues --    0.19123   0.19852   0.21336   0.23533   0.25883
 Alpha virt. eigenvalues --    0.27959   0.28690   0.29543   0.30130   0.32069
 Alpha virt. eigenvalues --    0.32457   0.33242   0.34742   0.35181   0.38028

 Mulliken atomic charges:
              1
     1  H    0.218394
     2  C   -0.593216
     3  H    0.178108
     4  H    0.196643
     5  C    0.748153
     6  O   -0.581013
     7  N   -0.813891
     8  H    0.375299
     9  C   -0.033657
    10  H    0.214115
    11  C   -0.489848
    12  H    0.166189
    13  H    0.195221
    14  H    0.163664
    15  C    0.784712
    16  O   -0.597765
    17  N   -0.776065
    18  H    0.376729
    19  C   -0.283941
    20  H    0.202570
    21  H    0.162699
    22  H    0.186900
 Sum of Mulliken atomic charges =   0.00000

 Dipole moment (field-independent basis, Debye):
    X=              2.1359    Y=              4.2931    Z=             -3.3296  Tot=              5.8377
 Quadrupole moment (field-independent basis, Debye-Ang):
   XX=            -50.6195   YY=            -61.6328   ZZ=            -62.7826
   XY=              3.8329   XZ=              4.8761   YZ=              3.8133

 Normal termination of Gaussian 09 at Fri Feb 10 21:59:15 2017.
