 Gaussian 09, Revision A.02,
 Gaussian 09:  EM64L-G09RevA.02 11-Jun-2009

 -------------------------------------------
 # HF/6-31G* Opt=(ModRedundant) geom=nocrowd
 -------------------------------------------

 ------------------
 Phi Psi fixed scan
 ------------------
 Symbolic Z-matrix:
 Charge =  0 Multiplicity = 1

 SCF Done:  E(RHF) =  -492.793108732     A.U. after   15 cycles
 SCF Done:  E(RHF) =  -492.828026110     A.U. after   14 cycles
 SCF Done:  E(RHF) =  -492.839166178     A.U. after   14 cycles
 SCF Done:  E(RHF) =  -492.844377586     A.U. after   13 cycles
 SCF Done:  E(RHF) =  -492.844805046     A.U. after   14 cycles
 SCF Done:  E(RHF) =  -492.846125886     A.U. after   13 cycles
 SCF Done:  E(RHF) =  -492.846605474     A.U. after   13 cycles
 SCF Done:  E(RHF) =  -492.846813351     A.U. after   13 cycles
 SCF Done:  E(RHF) =  -492.846964492     A.U. after   13 cycles
 SCF Done:  E(RHF) =  -492.847156303     A.U. after   12 cycles
 SCF Done:  E(RHF) =  -492.847396707     A.U. after   12 cycles
 SCF Done:  E(RHF) =  -492.847506961     A.U. after   11 cycles
 SCF Done:  E(RHF) =  -492.847696196     A.U. after   12 cycles
 SCF Done:  E(RHF) =  -492.847768798     A.U. after   12 cycles
 SCF Done:  E(RHF) =  -492.847771779     A.U. after   11 cycles
 SCF Done:  E(RHF) =  -492.847772129     A.U. after    9 cycles
 SCF Done:  E(RHF) =  -492.847772233     A.U. after    8 cycles
 SCF Done:  E(RHF) =  -492.847772255     A.U. after    8 cycles
 SCF Done:  E(RHF) =  -492.847772294     A.U. after    7 cycles
 SCF Done:  E(RHF) =  -492.847772298     A.U. after    7 cycles
 Optimization completed.
    -- Stationary point found.

                         Standard orientation:
 ---------------------------------------------------------------------
 Center     Atomic      Atomic             Coordinates (Angstroms)
 Number     Number       Type             X           Y           Z
 ---------------------------------------------------------------------
      1          1           0       -3.552345   -1.656033    0.381723
      2          6           0       -3.118295   -0.688870    0.587475
      3          1           0       -3.008251   -0.579046    1.662094
      4          1           0       -3.781731    0.091491    0.232191
      5          6           0       -1.751352   -0.620015   -0.061359
      6          8           0       -1.153751   -1.619672   -0.361195
      7          7           0       -1.300149    0.637630   -0.291344
      8          1           0       -1.887743    1.352141    0.075969
      9          6           0        0.066139    1.117180   -0.555337
     10          1           0        0.226003    1.061833   -1.628368
     11          6           0        0.142321    2.577906   -0.130915
     12          1           0        0.029083    2.673430    0.941415
     13          1           0        1.101619    2.997450   -0.399747
     14          1           0       -0.633268    3.150837   -0.630667
     15          6           0        1.229568    0.317998    0.078394
     16          8           0        1.874069    0.804224    0.969449
     17          7           0        1.536414   -0.863954   -0.488297
     18          1           0        0.782365   -1.339889   -0.932679
     19          6           0        2.565536   -1.691797    0.105704
     20          1           0        3.482864   -1.128525    0.194954
     21          1           0        2.285431   -2.048120    1.091872
     22          1           0        2.736079   -2.542123   -0.541072
 ---------------------------------------------------------------------

 The electronic state is 1-A.
 Alpha  occ. eigenvalues --  -20.53868 -20.52096 -15.60044 -15.56423 -11.36444
 Alpha  occ. eigenvalues --  -11.33952 -11.28817 -11.24245 -11.24230 -11.22783
 Alpha  occ. eigenvalues --   -1.40637  -1.38708  -1.25063  -1.21877  -1.06197
 Alpha  occ. eigenvalues --   -0.99935  -0.95276  -0.87461  -0.81281  -0.76652
 Alpha  occ. eigenvalues --   -0.71351  -0.69647  -0.67654  -0.63589  -0.62545
 Alpha  occ. eigenvalues --   -0.61495  -0.60095  -0.59163  -0.57899  -0.54879
 Alpha  occ. eigenvalues --   -0.54380  -0.53688  -0.53004  -0.51857  -0.51022
 Alpha  occ. eigenvalues --   -0.43989  -0.43195  -0.39377  -0.37280
 Alpha virt. eigenvalues --    0.18733   0.19244   0.21896   0.24991   0.26749
 Alpha virt. eigenvalues --    0.28064   0.28369   0.29959   0.30627   0.31746
 Alpha virt. eigenvalues --    0.32464   0.32541   0.34713   0.35253   0.39598

 Mulliken atomic charges:
              1
     1  H    0.218821
     2  C   -0.594091
     3  H    0.203329
     4  H    0.181391
     5  C    0.764073
     6  O   -0.624523
     7  N   -0.822601
     8  H    0.389683
     9  C    0.000536
    10  H    0.200970
    11  C   -0.507101
    12  H    0.194489
    13  H    0.201166
    14  H    0.160939
    15  C    0.739127
    16  O   -0.611955
    17  N   -0.781886
    18  H    0.431585
    19  C   -0.279544
    20  H    0.193439
    21  H    0.172968
    22  H    0.169183
 Sum of Mulliken atomic charges =   0.00000

 Dipole moment (field-independent basis, Debye):
    X=             -3.2998    Y=              1.2700    Z=             -0.8274  Tot=              3.6313
 Quadrupole moment (field-independent basis, Debye-Ang):
   XX=            -56.3364   YY=            -60.3972   ZZ=            -62.5388
   XY=             -7.5776   XZ=             -6.3358   YZ=             -2.9619

 Normal termination of Gaussian 09 at Fri Feb 10 21:21:05 2017.
