 Gaussian 09, Revision A.02,
 Gaussian 09:  EM64L-G09RevA.02 11-Jun-2009

 -------------------------------------------
 # HF/6-31G* Opt=(ModRedundant) geom=nocrowd
 -------------------------------------------

 ------------------
 Phi Psi fixed scan
 ------------------
 Symbolic Z-matrix:
 Charge =  0 Multiplicity = 1

 SCF Done:  E(RHF) =  -492.686197077     A.U. after   18 cycles
 SCF Done:  E(RHF) =  -492.745183466     A.U. after   15 cycles
 SCF Done:  E(RHF) =  -492.800287439     A.U. after   14 cycles
 SCF Done:  E(RHF) =  -492.819763365     A.U. after   14 cycles
 SCF Done:  E(RHF) =  -492.824021300     A.U. after   13 cycles
 SCF Done:  E(RHF) =  -492.826025720     A.U. after   13 cycles
 SCF Done:  E(RHF) =  -492.827700175     A.U. after   13 cycles
 SCF Done:  E(RHF) =  -492.829824420     A.U. after   15 cycles
 SCF Done:  E(RHF) =  -492.830874499     A.U. after   13 cycles
 SCF Done:  E(RHF) =  -492.831888093     A.U. after   13 cycles
 SCF Done:  E(RHF) =  -492.832031552     A.U. after   12 cycles
 SCF Done:  E(RHF) =  -492.832151894     A.U. after   11 cycles
 SCF Done:  E(RHF) =  -492.832271757     A.U. after   11 cycles
 SCF Done:  E(RHF) =  -492.832369539     A.U. after   12 cycles
 SCF Done:  E(RHF) =  -492.832516073     A.U. after   11 cycles
 SCF Done:  E(RHF) =  -492.832563089     A.U. after   12 cycles
 SCF Done:  E(RHF) =  -492.832571475     A.U. after   11 cycles
 SCF Done:  E(RHF) =  -492.832574891     A.U. after   10 cycles
 SCF Done:  E(RHF) =  -492.832575956     A.U. after    9 cycles
 SCF Done:  E(RHF) =  -492.832576052     A.U. after    8 cycles
 Optimization completed.
    -- Stationary point found.

                         Standard orientation:
 ---------------------------------------------------------------------
 Center     Atomic      Atomic             Coordinates (Angstroms)
 Number     Number       Type             X           Y           Z
 ---------------------------------------------------------------------
      1          1           0       -3.568918   -1.360185    0.729428
      2          6           0       -2.898580   -0.546178    0.961867
      3          1           0       -2.295979   -0.814863    1.823772
      4          1           0       -3.475411    0.339400    1.211174
      5          6           0       -1.987760   -0.303077   -0.219336
      6          8           0       -1.931897   -1.039252   -1.152176
      7          7           0       -1.296252    0.910760   -0.185030
      8          1           0       -1.509595    1.400573    0.658997
      9          6           0        0.132707    1.030679   -0.456012
     10          1           0        0.260703    1.152121   -1.529136
     11          6           0        0.626447    2.309536    0.227706
     12          1           0        0.630409    2.198924    1.307523
     13          1           0        1.626592    2.582174   -0.081434
     14          1           0       -0.031551    3.129204   -0.036177
     15          6           0        0.957085   -0.213836   -0.077588
     16          8           0        0.464029   -1.240573    0.287700
     17          7           0        2.302173   -0.014315   -0.019469
     18          1           0        2.683299    0.751629   -0.525800
     19          6           0        3.189921   -1.136918    0.217347
     20          1           0        2.877734   -1.658610    1.109098
     21          1           0        3.192787   -1.841122   -0.607940
     22          1           0        4.192509   -0.757001    0.363893
 ---------------------------------------------------------------------

 The electronic state is 1-A.
 Alpha  occ. eigenvalues --  -20.53093 -20.51331 -15.58934 -15.57384 -11.34966
 Alpha  occ. eigenvalues --  -11.33650 -11.28897 -11.25906 -11.24486 -11.22170
 Alpha  occ. eigenvalues --   -1.40329  -1.37858  -1.23736  -1.22838  -1.05672
 Alpha  occ. eigenvalues --   -0.98691  -0.95876  -0.88723  -0.79489  -0.77765
 Alpha  occ. eigenvalues --   -0.71215  -0.67117  -0.66488  -0.64301  -0.62780
 Alpha  occ. eigenvalues --   -0.61405  -0.59396  -0.57806  -0.57267  -0.56418
 Alpha  occ. eigenvalues --   -0.55595  -0.55064  -0.53890  -0.51515  -0.48656
 Alpha  occ. eigenvalues --   -0.44178  -0.40718  -0.39653  -0.37768
 Alpha virt. eigenvalues --    0.18722   0.20464   0.21080   0.23092   0.26268
 Alpha virt. eigenvalues --    0.27542   0.28416   0.29827   0.30182   0.31557
 Alpha virt. eigenvalues --    0.31940   0.32464   0.33401   0.34969   0.37619

 Mulliken atomic charges:
              1
     1  H    0.213430
     2  C   -0.604170
     3  H    0.200646
     4  H    0.172352
     5  C    0.773898
     6  O   -0.565382
     7  N   -0.786780
     8  H    0.362520
     9  C   -0.033620
    10  H    0.209698
    11  C   -0.515319
    12  H    0.180406
    13  H    0.170412
    14  H    0.195083
    15  C    0.755322
    16  O   -0.594178
    17  N   -0.787303
    18  H    0.377808
    19  C   -0.278621
    20  H    0.206556
    21  H    0.179249
    22  H    0.167992
 Sum of Mulliken atomic charges =   0.00000

 Dipole moment (field-independent basis, Debye):
    X=              3.2053    Y=              4.3816    Z=              2.0659  Tot=              5.8086
 Quadrupole moment (field-independent basis, Debye-Ang):
   XX=            -51.0191   YY=            -62.5164   ZZ=            -62.1580
   XY=             -2.1040   XZ=             -9.3075   YZ=             -1.9930

 Normal termination of Gaussian 09 at Fri Feb 10 21:43:14 2017.
