 Gaussian 09, Revision A.02,
 Gaussian 09:  EM64L-G09RevA.02 11-Jun-2009

 -------------------------------------------
 # HF/6-31G* Opt=(ModRedundant) geom=nocrowd
 -------------------------------------------

 ------------------
 Phi Psi fixed scan
 ------------------
 Symbolic Z-matrix:
 Charge =  0 Multiplicity = 1

 SCF Done:  E(RHF) =  -492.315515051     A.U. after   18 cycles
 SCF Done:  E(RHF) =  -492.498115910     A.U. after   15 cycles
 SCF Done:  E(RHF) =  -492.697205229     A.U. after   14 cycles
 SCF Done:  E(RHF) =  -492.782779981     A.U. after   14 cycles
 SCF Done:  E(RHF) =  -492.807504216     A.U. after   14 cycles
 SCF Done:  E(RHF) =  -492.821181655     A.U. after   14 cycles
 SCF Done:  E(RHF) =  -492.831524872     A.U. after   13 cycles
 SCF Done:  E(RHF) =  -492.838771639     A.U. after   13 cycles
 SCF Done:  E(RHF) =  -492.841980684     A.U. after   12 cycles
 SCF Done:  E(RHF) =  -492.844284615     A.U. after   13 cycles
 SCF Done:  E(RHF) =  -492.846155028     A.U. after    9 cycles
 SCF Done:  E(RHF) =  -492.846157737     A.U. after   10 cycles
 SCF Done:  E(RHF) =  -492.846157740     A.U. after    8 cycles
 SCF Done:  E(RHF) =  -492.846158007     A.U. after    8 cycles
 SCF Done:  E(RHF) =  -492.846158125     A.U. after    8 cycles
 SCF Done:  E(RHF) =  -492.846158174     A.U. after    7 cycles
 SCF Done:  E(RHF) =  -492.846158230     A.U. after    8 cycles
 SCF Done:  E(RHF) =  -492.846158274     A.U. after    7 cycles
 SCF Done:  E(RHF) =  -492.846158326     A.U. after    8 cycles
 SCF Done:  E(RHF) =  -492.846158332     A.U. after    6 cycles
 Optimization completed.
    -- Stationary point found.

                         Standard orientation:
 ---------------------------------------------------------------------
 Center     Atomic      Atomic             Coordinates (Angstroms)
 Number     Number       Type             X           Y           Z
 ---------------------------------------------------------------------
      1          1           0       -3.865729   -1.200848   -0.066717
      2          6           0       -3.287535   -0.422347    0.409247
      3          1           0       -3.260545   -0.622675    1.475848
      4          1           0       -3.768607    0.535704    0.251929
      5          6           0       -1.872222   -0.475049   -0.131292
      6          8           0       -1.408504   -1.521332   -0.511758
      7          7           0       -1.235574    0.715022   -0.145962
      8          1           0       -1.774604    1.455655    0.240264
      9          6           0        0.152768    1.138013   -0.407198
     10          1           0        0.243915    1.308486   -1.476467
     11          6           0        0.341602    2.483240    0.297664
     12          1           0        0.261124    2.366121    1.373881
     13          1           0        1.314217    2.885787    0.067634
     14          1           0       -0.414997    3.189276   -0.032541
     15          6           0        1.369345    0.236723   -0.100473
     16          8           0        2.446586    0.779402   -0.121171
     17          7           0        1.225893   -1.067726    0.137294
     18          1           0        0.349592   -1.499813   -0.061236
     19          6           0        2.396089   -1.901765    0.310341
     20          1           0        3.012384   -1.525229    1.114976
     21          1           0        2.065945   -2.902130    0.556211
     22          1           0        3.000128   -1.938846   -0.589404
 ---------------------------------------------------------------------

 The electronic state is 1-A.
 Alpha  occ. eigenvalues --  -20.54053 -20.51094 -15.60525 -15.56440 -11.36972
 Alpha  occ. eigenvalues --  -11.34027 -11.29217 -11.24527 -11.24379 -11.22945
 Alpha  occ. eigenvalues --   -1.40873  -1.38245  -1.25493  -1.21838  -1.06443
 Alpha  occ. eigenvalues --   -1.00114  -0.95263  -0.88033  -0.81832  -0.77611
 Alpha  occ. eigenvalues --   -0.71398  -0.70015  -0.67630  -0.63260  -0.62592
 Alpha  occ. eigenvalues --   -0.61681  -0.59862  -0.59318  -0.58251  -0.55599
 Alpha  occ. eigenvalues --   -0.54559  -0.53840  -0.53698  -0.52406  -0.49867
 Alpha  occ. eigenvalues --   -0.43570  -0.42512  -0.39473  -0.37517
 Alpha virt. eigenvalues --    0.18367   0.19841   0.21213   0.25797   0.26962
 Alpha virt. eigenvalues --    0.28509   0.28825   0.29427   0.30850   0.31792
 Alpha virt. eigenvalues --    0.32818   0.32957   0.35069   0.35841   0.38433

 Mulliken atomic charges:
              1
     1  H    0.219764
     2  C   -0.588691
     3  H    0.205302
     4  H    0.176730
     5  C    0.775197
     6  O   -0.642239
     7  N   -0.842765
     8  H    0.392894
     9  C    0.012968
    10  H    0.216810
    11  C   -0.523946
    12  H    0.174917
    13  H    0.236121
    14  H    0.159695
    15  C    0.760841
    16  O   -0.634327
    17  N   -0.839675
    18  H    0.476173
    19  C   -0.270842
    20  H    0.188736
    21  H    0.168660
    22  H    0.177678
 Sum of Mulliken atomic charges =   0.00000

 Dipole moment (field-independent basis, Debye):
    X=             -4.1196    Y=              1.3230    Z=              1.2815  Tot=              4.5126
 Quadrupole moment (field-independent basis, Debye-Ang):
   XX=            -62.0644   YY=            -59.3944   ZZ=            -60.3874
   XY=             -9.7206   XZ=             -2.1433   YZ=             -1.7183

 Normal termination of Gaussian 09 at Fri Feb 10 21:01:27 2017.
