 Gaussian 09, Revision A.02,
 Gaussian 09:  EM64L-G09RevA.02 11-Jun-2009

 -------------------------------------------
 # HF/6-31G* Opt=(ModRedundant) geom=nocrowd
 -------------------------------------------

 ------------------
 Phi Psi fixed scan
 ------------------
 Symbolic Z-matrix:
 Charge =  0 Multiplicity = 1

 SCF Done:  E(RHF) =  -492.833055638     A.U. after   15 cycles
 SCF Done:  E(RHF) =  -492.844247393     A.U. after   13 cycles
 SCF Done:  E(RHF) =  -492.846045422     A.U. after   13 cycles
 SCF Done:  E(RHF) =  -492.846680958     A.U. after   13 cycles
 SCF Done:  E(RHF) =  -492.847262915     A.U. after   13 cycles
 SCF Done:  E(RHF) =  -492.847553531     A.U. after   13 cycles
 SCF Done:  E(RHF) =  -492.847871903     A.U. after   13 cycles
 SCF Done:  E(RHF) =  -492.848074235     A.U. after   12 cycles
 SCF Done:  E(RHF) =  -492.848368861     A.U. after   13 cycles
 SCF Done:  E(RHF) =  -492.848531272     A.U. after   12 cycles
 SCF Done:  E(RHF) =  -492.848884513     A.U. after   12 cycles
 SCF Done:  E(RHF) =  -492.848925985     A.U. after   11 cycles
 SCF Done:  E(RHF) =  -492.848931679     A.U. after   11 cycles
 SCF Done:  E(RHF) =  -492.848942326     A.U. after   11 cycles
 SCF Done:  E(RHF) =  -492.848950254     A.U. after   11 cycles
 SCF Done:  E(RHF) =  -492.848956016     A.U. after   11 cycles
 SCF Done:  E(RHF) =  -492.848961282     A.U. after   10 cycles
 SCF Done:  E(RHF) =  -492.848963737     A.U. after   10 cycles
 SCF Done:  E(RHF) =  -492.848965649     A.U. after   10 cycles
 SCF Done:  E(RHF) =  -492.848966024     A.U. after    8 cycles
 Optimization completed.
    -- Stationary point found.

                         Standard orientation:
 ---------------------------------------------------------------------
 Center     Atomic      Atomic             Coordinates (Angstroms)
 Number     Number       Type             X           Y           Z
 ---------------------------------------------------------------------
      1          1           0        3.365323   -1.700765   -0.492966
      2          6           0        3.188697   -0.656317   -0.280663
      3          1           0        3.456259   -0.057503   -1.143963
      4          1           0        3.825359   -0.363505    0.548425
      5          6           0        1.740633   -0.479512    0.126664
      6          8           0        1.104908   -1.372953    0.612220
      7          7           0        1.233253    0.761318   -0.083935
      8          1           0        1.847830    1.450914   -0.453124
      9          6           0       -0.077881    1.239414    0.338898
     10          1           0       -0.013649    1.601755    1.357381
     11          6           0       -0.519668    2.387910   -0.568229
     12          1           0       -0.604209    2.068017   -1.599890
     13          1           0       -1.481971    2.765599   -0.244252
     14          1           0        0.192592    3.206699   -0.516828
     15          6           0       -1.163096    0.157947    0.409173
     16          8           0       -1.822498    0.045665    1.401028
     17          7           0       -1.440244   -0.494047   -0.749501
     18          1           0       -0.687668   -0.555517   -1.397857
     19          6           0       -2.335219   -1.634510   -0.720534
     20          1           0       -3.265872   -1.346614   -0.255839
     21          1           0       -2.533108   -1.945658   -1.738360
     22          1           0       -1.912029   -2.465606   -0.166515
 ---------------------------------------------------------------------

 The electronic state is 1-A.
 Alpha  occ. eigenvalues --  -20.53187 -20.51657 -15.59871 -15.57027 -11.35891
 Alpha  occ. eigenvalues --  -11.33764 -11.28235 -11.24253 -11.24177 -11.23683
 Alpha  occ. eigenvalues --   -1.40289  -1.38394  -1.25019  -1.21830  -1.06298
 Alpha  occ. eigenvalues --   -1.00092  -0.94634  -0.88332  -0.81346  -0.77077
 Alpha  occ. eigenvalues --   -0.70601  -0.69532  -0.67389  -0.62840  -0.62394
 Alpha  occ. eigenvalues --   -0.62022  -0.59693  -0.58380  -0.58034  -0.56093
 Alpha  occ. eigenvalues --   -0.55165  -0.54108  -0.53857  -0.51534  -0.50607
 Alpha  occ. eigenvalues --   -0.42541  -0.41381  -0.39827  -0.38050
 Alpha virt. eigenvalues --    0.19071   0.20413   0.20745   0.24567   0.25718
 Alpha virt. eigenvalues --    0.27928   0.28594   0.29688   0.29735   0.31225
 Alpha virt. eigenvalues --    0.32533   0.33573   0.34297   0.35054   0.37072

 Mulliken atomic charges:
              1
     1  H    0.216949
     2  C   -0.586157
     3  H    0.172230
     4  H    0.205462
     5  C    0.744410
     6  O   -0.597627
     7  N   -0.833562
     8  H    0.384048
     9  C   -0.013524
    10  H    0.220772
    11  C   -0.504758
    12  H    0.178691
    13  H    0.201212
    14  H    0.164823
    15  C    0.773516
    16  O   -0.604935
    17  N   -0.760021
    18  H    0.375504
    19  C   -0.287085
    20  H    0.200759
    21  H    0.161840
    22  H    0.187452
 Sum of Mulliken atomic charges =   0.00000

 Dipole moment (field-independent basis, Debye):
    X=              3.6612    Y=              2.6523    Z=             -4.3132  Tot=              6.2485
 Quadrupole moment (field-independent basis, Debye-Ang):
   XX=            -55.7382   YY=            -58.0789   ZZ=            -64.2157
   XY=              4.4876   XZ=              3.4043   YZ=              3.3584

 Normal termination of Gaussian 09 at Fri Feb 10 22:04:36 2017.
