 Gaussian 09, Revision A.02,
 Gaussian 09:  EM64L-G09RevA.02 11-Jun-2009

 -------------------------------------------
 # HF/6-31G* Opt=(ModRedundant) geom=nocrowd
 -------------------------------------------

 ------------------
 Phi Psi fixed scan
 ------------------
 Symbolic Z-matrix:
 Charge =  0 Multiplicity = 1

 SCF Done:  E(RHF) =  -492.742039006     A.U. after   16 cycles
 SCF Done:  E(RHF) =  -492.818598101     A.U. after   15 cycles
 SCF Done:  E(RHF) =  -492.820832001     A.U. after   15 cycles
 SCF Done:  E(RHF) =  -492.823856314     A.U. after   14 cycles
 SCF Done:  E(RHF) =  -492.827509507     A.U. after   13 cycles
 SCF Done:  E(RHF) =  -492.831107481     A.U. after   13 cycles
 SCF Done:  E(RHF) =  -492.833300195     A.U. after   13 cycles
 SCF Done:  E(RHF) =  -492.835793937     A.U. after   15 cycles
 SCF Done:  E(RHF) =  -492.837424803     A.U. after   16 cycles
 SCF Done:  E(RHF) =  -492.838220195     A.U. after   13 cycles
 SCF Done:  E(RHF) =  -492.838961794     A.U. after   11 cycles
 SCF Done:  E(RHF) =  -492.839178605     A.U. after   12 cycles
 SCF Done:  E(RHF) =  -492.839294545     A.U. after   12 cycles
 SCF Done:  E(RHF) =  -492.839334650     A.U. after   11 cycles
 SCF Done:  E(RHF) =  -492.839349209     A.U. after   11 cycles
 SCF Done:  E(RHF) =  -492.839364487     A.U. after   11 cycles
 SCF Done:  E(RHF) =  -492.839365531     A.U. after   10 cycles
 SCF Done:  E(RHF) =  -492.839365800     A.U. after    8 cycles
 SCF Done:  E(RHF) =  -492.839366007     A.U. after    8 cycles
 SCF Done:  E(RHF) =  -492.839366012     A.U. after    8 cycles
 Optimization completed.
    -- Stationary point found.

                         Standard orientation:
 ---------------------------------------------------------------------
 Center     Atomic      Atomic             Coordinates (Angstroms)
 Number     Number       Type             X           Y           Z
 ---------------------------------------------------------------------
      1          1           0        3.614511   -1.407796   -0.497135
      2          6           0        3.003416   -0.563046   -0.778385
      3          1           0        2.522952   -0.772528   -1.728840
      4          1           0        3.628953    0.316197   -0.896611
      5          6           0        1.936503   -0.353815    0.269988
      6          8           0        1.692561   -1.157612    1.115608
      7          7           0        1.317041    0.889887    0.236963
      8          1           0        1.610003    1.416314   -0.559028
      9          6           0       -0.115715    1.040992    0.444087
     10          1           0       -0.296247    1.162889    1.508700
     11          6           0       -0.571529    2.316803   -0.271347
     12          1           0       -0.487517    2.203952   -1.347935
     13          1           0       -1.600086    2.559455   -0.042172
     14          1           0        0.049964    3.148540    0.040934
     15          6           0       -0.941434   -0.171124   -0.016768
     16          8           0       -0.479860   -1.065293   -0.664674
     17          7           0       -2.281656   -0.038605    0.173041
     18          1           0       -2.584864    0.578719    0.892501
     19          6           0       -3.174819   -1.131434   -0.161188
     20          1           0       -2.987708   -1.447520   -1.176046
     21          1           0       -3.042903   -1.985784    0.494239
     22          1           0       -4.194885   -0.778434   -0.084433
 ---------------------------------------------------------------------

 The electronic state is 1-A.
 Alpha  occ. eigenvalues --  -20.52940 -20.51398 -15.58763 -15.57510 -11.34744
 Alpha  occ. eigenvalues --  -11.33732 -11.28661 -11.25764 -11.24224 -11.22179
 Alpha  occ. eigenvalues --   -1.40170  -1.37913  -1.23642  -1.22941  -1.05649
 Alpha  occ. eigenvalues --   -0.98727  -0.95838  -0.88309  -0.79481  -0.77711
 Alpha  occ. eigenvalues --   -0.71227  -0.67423  -0.66524  -0.63902  -0.62891
 Alpha  occ. eigenvalues --   -0.61375  -0.59363  -0.57654  -0.57333  -0.56166
 Alpha  occ. eigenvalues --   -0.55415  -0.54809  -0.53790  -0.51688  -0.48636
 Alpha  occ. eigenvalues --   -0.43801  -0.40853  -0.39544  -0.38079
 Alpha virt. eigenvalues --    0.18983   0.20642   0.21216   0.22991   0.26522
 Alpha virt. eigenvalues --    0.27385   0.28897   0.29961   0.31025   0.31390
 Alpha virt. eigenvalues --    0.31958   0.32061   0.33374   0.35086   0.37452

 Mulliken atomic charges:
              1
     1  H    0.212626
     2  C   -0.603499
     3  H    0.205459
     4  H    0.173100
     5  C    0.772589
     6  O   -0.579929
     7  N   -0.783055
     8  H    0.366541
     9  C   -0.027688
    10  H    0.199748
    11  C   -0.512351
    12  H    0.180381
    13  H    0.181884
    14  H    0.189776
    15  C    0.760517
    16  O   -0.601796
    17  N   -0.785402
    18  H    0.375671
    19  C   -0.279379
    20  H    0.206093
    21  H    0.180676
    22  H    0.168039
 Sum of Mulliken atomic charges =   0.00000

 Dipole moment (field-independent basis, Debye):
    X=             -2.4773    Y=              4.2481    Z=             -1.1458  Tot=              5.0494
 Quadrupole moment (field-independent basis, Debye-Ang):
   XX=            -49.4818   YY=            -62.3522   ZZ=            -62.4335
   XY=              2.7124   XZ=             -9.0488   YZ=              1.3123

 Normal termination of Gaussian 09 at Fri Feb 10 21:40:29 2017.
