 Gaussian 09, Revision A.02,
 Gaussian 09:  EM64L-G09RevA.02 11-Jun-2009

 -------------------------------------------
 # HF/6-31G* Opt=(ModRedundant) geom=nocrowd
 -------------------------------------------

 ------------------
 Phi Psi fixed scan
 ------------------
 Symbolic Z-matrix:
 Charge =  0 Multiplicity = 1

 SCF Done:  E(RHF) =  -492.709633207     A.U. after   15 cycles
 SCF Done:  E(RHF) =  -492.791319832     A.U. after   14 cycles
 SCF Done:  E(RHF) =  -492.828914602     A.U. after   14 cycles
 SCF Done:  E(RHF) =  -492.841377200     A.U. after   14 cycles
 SCF Done:  E(RHF) =  -492.843949853     A.U. after   13 cycles
 SCF Done:  E(RHF) =  -492.844541967     A.U. after   13 cycles
 SCF Done:  E(RHF) =  -492.845120683     A.U. after   13 cycles
 SCF Done:  E(RHF) =  -492.845497883     A.U. after   12 cycles
 SCF Done:  E(RHF) =  -492.845641103     A.U. after   12 cycles
 SCF Done:  E(RHF) =  -492.845755029     A.U. after   12 cycles
 SCF Done:  E(RHF) =  -492.846497348     A.U. after   12 cycles
 SCF Done:  E(RHF) =  -492.846554871     A.U. after   11 cycles
 SCF Done:  E(RHF) =  -492.846588896     A.U. after   11 cycles
 SCF Done:  E(RHF) =  -492.846594945     A.U. after   10 cycles
 SCF Done:  E(RHF) =  -492.846596539     A.U. after    9 cycles
 SCF Done:  E(RHF) =  -492.846597295     A.U. after    9 cycles
 SCF Done:  E(RHF) =  -492.846597409     A.U. after    8 cycles
 SCF Done:  E(RHF) =  -492.846597618     A.U. after    8 cycles
 SCF Done:  E(RHF) =  -492.846597819     A.U. after    9 cycles
 SCF Done:  E(RHF) =  -492.846597909     A.U. after    8 cycles
 Optimization completed.
    -- Stationary point found.

                         Standard orientation:
 ---------------------------------------------------------------------
 Center     Atomic      Atomic             Coordinates (Angstroms)
 Number     Number       Type             X           Y           Z
 ---------------------------------------------------------------------
      1          1           0       -3.675818   -1.489489    0.344530
      2          6           0       -3.177947   -0.560417    0.578929
      3          1           0       -3.067112   -0.488411    1.656658
      4          1           0       -3.784786    0.272732    0.243107
      5          6           0       -1.804699   -0.569596   -0.061872
      6          8           0       -1.283082   -1.606140   -0.382062
      7          7           0       -1.272413    0.660583   -0.255874
      8          1           0       -1.833176    1.395306    0.112516
      9          6           0        0.105652    1.113398   -0.524992
     10          1           0        0.245094    1.090288   -1.603020
     11          6           0        0.207490    2.562348   -0.063357
     12          1           0        0.111665    2.632873    1.013444
     13          1           0        1.166084    2.976539   -0.336451
     14          1           0       -0.571434    3.155804   -0.533392
     15          6           0        1.291807    0.290987    0.034958
     16          8           0        2.123905    0.848172    0.703751
     17          7           0        1.411102   -0.986216   -0.352021
     18          1           0        0.590579   -1.450594   -0.675501
     19          6           0        2.504335   -1.792670    0.146492
     20          1           0        3.450689   -1.325862   -0.088019
     21          1           0        2.451095   -1.929755    1.221427
     22          1           0        2.459885   -2.760561   -0.334484
 ---------------------------------------------------------------------

 The electronic state is 1-A.
 Alpha  occ. eigenvalues --  -20.54120 -20.51695 -15.60282 -15.56262 -11.36751
 Alpha  occ. eigenvalues --  -11.33913 -11.29027 -11.24390 -11.24306 -11.22723
 Alpha  occ. eigenvalues --   -1.40830  -1.38476  -1.25266  -1.21768  -1.06300
 Alpha  occ. eigenvalues --   -1.00005  -0.95335  -0.87592  -0.81510  -0.76986
 Alpha  occ. eigenvalues --   -0.71440  -0.69751  -0.67768  -0.63464  -0.62653
 Alpha  occ. eigenvalues --   -0.61192  -0.60244  -0.59418  -0.58012  -0.55109
 Alpha  occ. eigenvalues --   -0.54371  -0.53659  -0.52800  -0.52384  -0.50761
 Alpha  occ. eigenvalues --   -0.44051  -0.43107  -0.39190  -0.37220
 Alpha virt. eigenvalues --    0.18648   0.19335   0.21857   0.25137   0.26831
 Alpha virt. eigenvalues --    0.28032   0.28575   0.29936   0.30685   0.31721
 Alpha virt. eigenvalues --    0.32368   0.32492   0.34679   0.35703   0.39713

 Mulliken atomic charges:
              1
     1  H    0.219852
     2  C   -0.593907
     3  H    0.202851
     4  H    0.181577
     5  C    0.770995
     6  O   -0.630369
     7  N   -0.831750
     8  H    0.391453
     9  C    0.000094
    10  H    0.205563
    11  C   -0.505139
    12  H    0.186606
    13  H    0.211586
    14  H    0.158560
    15  C    0.744840
    16  O   -0.620369
    17  N   -0.807316
    18  H    0.455111
    19  C   -0.272734
    20  H    0.190066
    21  H    0.172993
    22  H    0.169435
 Sum of Mulliken atomic charges =   0.00000

 Dipole moment (field-independent basis, Debye):
    X=             -3.6091    Y=              1.2227    Z=             -0.3002  Tot=              3.8224
 Quadrupole moment (field-independent basis, Debye-Ang):
   XX=            -58.7118   YY=            -60.4306   ZZ=            -61.4693
   XY=             -8.8178   XZ=             -6.0748   YZ=             -2.9373

 Normal termination of Gaussian 09 at Fri Feb 10 21:18:21 2017.
