 Gaussian 09, Revision A.02,
 Gaussian 09:  EM64L-G09RevA.02 11-Jun-2009

 -------------------------------------------
 # HF/6-31G* Opt=(ModRedundant) geom=nocrowd
 -------------------------------------------

 ------------------
 Phi Psi fixed scan
 ------------------
 Symbolic Z-matrix:
 Charge =  0 Multiplicity = 1

 SCF Done:  E(RHF) =  -492.811367453     A.U. after   15 cycles
 SCF Done:  E(RHF) =  -492.840392141     A.U. after   15 cycles
 SCF Done:  E(RHF) =  -492.844622446     A.U. after   13 cycles
 SCF Done:  E(RHF) =  -492.845274917     A.U. after   13 cycles
 SCF Done:  E(RHF) =  -492.845896559     A.U. after   13 cycles
 SCF Done:  E(RHF) =  -492.846394112     A.U. after   12 cycles
 SCF Done:  E(RHF) =  -492.846474826     A.U. after   13 cycles
 SCF Done:  E(RHF) =  -492.846915364     A.U. after   12 cycles
 SCF Done:  E(RHF) =  -492.847102248     A.U. after   12 cycles
 SCF Done:  E(RHF) =  -492.847327811     A.U. after   13 cycles
 SCF Done:  E(RHF) =  -492.847927503     A.U. after   14 cycles
 SCF Done:  E(RHF) =  -492.847929842     A.U. after   12 cycles
 SCF Done:  E(RHF) =  -492.847952371     A.U. after   11 cycles
 SCF Done:  E(RHF) =  -492.847387949     A.U. after   13 cycles
 SCF Done:  E(RHF) =  -492.847909372     A.U. after   15 cycles
 SCF Done:  E(RHF) =  -492.847918430     A.U. after   12 cycles
 SCF Done:  E(RHF) =  -492.847950846     A.U. after   11 cycles
 SCF Done:  E(RHF) =  -492.847972652     A.U. after   11 cycles
 SCF Done:  E(RHF) =  -492.847972840     A.U. after   10 cycles
 SCF Done:  E(RHF) =  -492.847972935     A.U. after    9 cycles
 Optimization completed.
    -- Stationary point found.

                         Standard orientation:
 ---------------------------------------------------------------------
 Center     Atomic      Atomic             Coordinates (Angstroms)
 Number     Number       Type             X           Y           Z
 ---------------------------------------------------------------------
      1          1           0       -3.505126   -1.535841    0.553306
      2          6           0       -3.282402   -0.521804    0.253795
      3          1           0       -3.525836    0.158496    1.061550
      4          1           0       -3.904670   -0.276474   -0.600859
      5          6           0       -1.829057   -0.448473   -0.168504
      6          8           0       -1.272446   -1.399292   -0.652827
      7          7           0       -1.244866    0.756948    0.004509
      8          1           0       -1.801119    1.450924    0.449015
      9          6           0        0.111565    1.194980   -0.319642
     10          1           0        0.120902    1.562388   -1.338017
     11          6           0        0.477513    2.351689    0.616399
     12          1           0        0.511408    2.014963    1.647013
     13          1           0        1.445559    2.748664    0.344314
     14          1           0       -0.251694    3.152960    0.535861
     15          6           0        1.279665    0.197668   -0.293526
     16          8           0        2.249799    0.497756   -0.934442
     17          7           0        1.250293   -0.855382    0.552344
     18          1           0        0.357128   -1.267444    0.692562
     19          6           0        2.365977   -1.782469    0.543972
     20          1           0        3.285743   -1.246666    0.725242
     21          1           0        2.216882   -2.503600    1.336973
     22          1           0        2.454445   -2.306594   -0.401741
 ---------------------------------------------------------------------

 The electronic state is 1-A.
 Alpha  occ. eigenvalues --  -20.53527 -20.51853 -15.60225 -15.56792 -11.36442
 Alpha  occ. eigenvalues --  -11.34116 -11.28645 -11.24430 -11.24316 -11.23519
 Alpha  occ. eigenvalues --   -1.40560  -1.38746  -1.25294  -1.21905  -1.06471
 Alpha  occ. eigenvalues --   -1.00220  -0.94804  -0.88263  -0.81757  -0.77242
 Alpha  occ. eigenvalues --   -0.71087  -0.69882  -0.67369  -0.63152  -0.62536
 Alpha  occ. eigenvalues --   -0.62381  -0.59756  -0.58700  -0.58159  -0.56119
 Alpha  occ. eigenvalues --   -0.55182  -0.54116  -0.53560  -0.52049  -0.49938
 Alpha  occ. eigenvalues --   -0.43306  -0.41881  -0.40222  -0.37957
 Alpha virt. eigenvalues --    0.18579   0.19905   0.20629   0.25492   0.26293
 Alpha virt. eigenvalues --    0.27706   0.29100   0.29658   0.30681   0.31988
 Alpha virt. eigenvalues --    0.32316   0.33573   0.34199   0.35164   0.37552

 Mulliken atomic charges:
              1
     1  H    0.215436
     2  C   -0.582248
     3  H    0.172004
     4  H    0.208999
     5  C    0.747347
     6  O   -0.622641
     7  N   -0.836819
     8  H    0.388347
     9  C    0.025494
    10  H    0.219879
    11  C   -0.523805
    12  H    0.183487
    13  H    0.218139
    14  H    0.165126
    15  C    0.750121
    16  O   -0.617777
    17  N   -0.781277
    18  H    0.414121
    19  C   -0.284092
    20  H    0.194720
    21  H    0.165503
    22  H    0.179935
 Sum of Mulliken atomic charges =   0.00000

 Dipole moment (field-independent basis, Debye):
    X=             -4.0822    Y=              1.7533    Z=              3.1755  Tot=              5.4610
 Quadrupole moment (field-independent basis, Debye-Ang):
   XX=            -58.9665   YY=            -57.8556   ZZ=            -63.2262
   XY=             -7.0127   XZ=              2.1850   YZ=             -1.7349

 Normal termination of Gaussian 09 at Fri Feb 10 22:12:46 2017.
