 Gaussian 09, Revision A.02,
 Gaussian 09:  EM64L-G09RevA.02 11-Jun-2009

 ----------------------------------------------------------------------
 # b3lyp/6-31G* Opt=(ModRedundant, maxcycles=1000, calcfc) geom=nocrowd
 ----------------------------------------------------------------------

 ------------------
 Phi Psi fixed scan
 ------------------
 Symbolic Z-matrix:
 Charge =  0 Multiplicity = 1

 SCF Done:  E(RB3LYP) =  -495.825195232     A.U. after   15 cycles

  Exact polarizability:   0.000   0.000   0.000   0.000   0.000   0.000
 Approx polarizability: 103.940  -1.711  93.659  -4.804   7.546 137.795

 SCF Done:  E(RB3LYP) =  -495.829821510     A.U. after   12 cycles
 SCF Done:  E(RB3LYP) =  -495.834742108     A.U. after   13 cycles
 SCF Done:  E(RB3LYP) =  -495.835376821     A.U. after   12 cycles
 SCF Done:  E(RB3LYP) =  -495.833520762     A.U. after   14 cycles
 SCF Done:  E(RB3LYP) =  -495.835523118     A.U. after   12 cycles
 SCF Done:  E(RB3LYP) =  -495.835618828     A.U. after   12 cycles
 SCF Done:  E(RB3LYP) =  -495.789662085     A.U. after   15 cycles
 SCF Done:  E(RB3LYP) =  -495.835657057     A.U. after   14 cycles
 SCF Done:  E(RB3LYP) =  -495.835723259     A.U. after   11 cycles
 SCF Done:  E(RB3LYP) =  -495.829489027     A.U. after   13 cycles
 SCF Done:  E(RB3LYP) =  -495.835823206     A.U. after   13 cycles
 SCF Done:  E(RB3LYP) =  -495.835828928     A.U. after   11 cycles
 SCF Done:  E(RB3LYP) =  -495.835792699     A.U. after   11 cycles
 SCF Done:  E(RB3LYP) =  -495.835829868     A.U. after   12 cycles
 SCF Done:  E(RB3LYP) =  -495.835830747     A.U. after   10 cycles
 SCF Done:  E(RB3LYP) =  -495.835831093     A.U. after   11 cycles
 SCF Done:  E(RB3LYP) =  -495.835831787     A.U. after   10 cycles
 SCF Done:  E(RB3LYP) =  -495.835831854     A.U. after    7 cycles
 SCF Done:  E(RB3LYP) =  -495.835831897     A.U. after    7 cycles
 Optimization completed on the basis of negligible forces.
    -- Stationary point found.

                         Standard orientation:
 ---------------------------------------------------------------------
 Center     Atomic      Atomic             Coordinates (Angstroms)
 Number     Number       Type             X           Y           Z
 ---------------------------------------------------------------------
      1          1           0       -2.724908   -2.386057    0.193858
      2          6           0       -2.974107   -1.403199   -0.220642
      3          1           0       -3.914943   -1.085410    0.236250
      4          1           0       -3.118455   -1.505043   -1.301425
      5          6           0       -1.883922   -0.410762    0.176579
      6          8           0       -1.738556   -0.044741    1.331030
      7          7           0       -1.102783    0.026208   -0.867975
      8          1           0       -1.285037   -0.378682   -1.774240
      9          6           0        0.087351    0.885814   -0.759845
     10          1           0        0.466407    0.975675   -1.784744
     11          6           0       -0.253369    2.279440   -0.225201
     12          1           0       -0.594311    2.201318    0.807602
     13          1           0        0.633235    2.921832   -0.252085
     14          1           0       -1.038168    2.734007   -0.838245
     15          6           0        1.199741    0.242730    0.112047
     16          8           0        1.325261    0.465025    1.304320
     17          7           0        2.082812   -0.531370   -0.599363
     18          1           0        1.862833   -0.752088   -1.560160
     19          6           0        3.142865   -1.285049    0.048120
     20          1           0        3.304933   -0.841003    1.031187
     21          1           0        2.876955   -2.342135    0.181271
     22          1           0        4.066266   -1.222406   -0.537058
 ---------------------------------------------------------------------

 The electronic state is 1-A.
 Alpha  occ. eigenvalues --  -19.10707 -19.10251 -14.36323 -14.36223 -10.28402
 Alpha  occ. eigenvalues --  -10.28096 -10.24069 -10.21713 -10.19101 -10.16940
 Alpha  occ. eigenvalues --   -1.03027  -1.02134  -0.92425  -0.91447  -0.77638
 Alpha  occ. eigenvalues --   -0.72498  -0.70756  -0.63840  -0.59218  -0.57054
 Alpha  occ. eigenvalues --   -0.52656  -0.49701  -0.46517  -0.45807  -0.44414
 Alpha  occ. eigenvalues --   -0.44245  -0.41557  -0.40818  -0.40026  -0.39179
 Alpha  occ. eigenvalues --   -0.38736  -0.36993  -0.36099  -0.35550  -0.34692
 Alpha  occ. eigenvalues --   -0.27051  -0.24986  -0.24201  -0.22979
 Alpha virt. eigenvalues --    0.02029   0.03465   0.05129   0.08892   0.11888
 Alpha virt. eigenvalues --    0.12632   0.13803   0.15394   0.15896   0.16806
 Alpha virt. eigenvalues --    0.17128   0.17753   0.18402   0.19179   0.19765

 Mulliken atomic charges:
              1
     1  H    0.184259
     2  C   -0.538508
     3  H    0.188533
     4  H    0.137948
     5  C    0.595782
     6  O   -0.483593
     7  N   -0.604933
     8  H    0.316521
     9  C   -0.048895
    10  H    0.130902
    11  C   -0.442374
    12  H    0.215682
    13  H    0.146541
    14  H    0.136495
    15  C    0.630848
    16  O   -0.491896
    17  N   -0.594961
    18  H    0.314503
    19  C   -0.309175
    20  H    0.206121
    21  H    0.157054
    22  H    0.153147
 Sum of Mulliken atomic charges =   0.00000

 Dipole moment (field-independent basis, Debye):
    X=              0.6117    Y=             -2.1276    Z=             -6.2048  Tot=              6.5879
 Quadrupole moment (field-independent basis, Debye-Ang):
   XX=            -54.3952   YY=            -56.6168   ZZ=            -61.9793
   XY=             -0.9598   XZ=              0.9224   YZ=              0.0579

 Normal termination of Gaussian 09 at Sat Feb 11 03:06:59 2017.
