 Gaussian 09, Revision A.02,
 Gaussian 09:  EM64L-G09RevA.02 11-Jun-2009

 ----------------------------------------------------------------------
 # b3lyp/6-31G* Opt=(ModRedundant, maxcycles=1000, calcfc) geom=nocrowd
 ----------------------------------------------------------------------

 ------------------
 Phi Psi fixed scan
 ------------------
 Symbolic Z-matrix:
 Charge =  0 Multiplicity = 1

 SCF Done:  E(RB3LYP) =  -495.829788757     A.U. after   15 cycles

  Exact polarizability:   0.000   0.000   0.000   0.000   0.000   0.000
 Approx polarizability: 105.060   6.751 104.244   9.847  14.830 125.799

 SCF Done:  E(RB3LYP) =  -495.835372517     A.U. after   12 cycles
 SCF Done:  E(RB3LYP) =  -495.842243209     A.U. after   13 cycles
 SCF Done:  E(RB3LYP) =  -495.844062664     A.U. after   12 cycles
 SCF Done:  E(RB3LYP) =  -495.845141262     A.U. after   12 cycles
 SCF Done:  E(RB3LYP) =  -495.841728766     A.U. after   14 cycles
 SCF Done:  E(RB3LYP) =  -495.845771819     A.U. after   13 cycles
 SCF Done:  E(RB3LYP) =  -495.845664224     A.U. after   13 cycles
 SCF Done:  E(RB3LYP) =  -495.845902609     A.U. after   13 cycles
 SCF Done:  E(RB3LYP) =  -495.846031133     A.U. after   12 cycles
 SCF Done:  E(RB3LYP) =  -495.846136248     A.U. after   12 cycles
 SCF Done:  E(RB3LYP) =  -495.846171381     A.U. after   12 cycles
 SCF Done:  E(RB3LYP) =  -495.846208006     A.U. after   11 cycles
 SCF Done:  E(RB3LYP) =  -495.846245049     A.U. after   11 cycles
 SCF Done:  E(RB3LYP) =  -495.846265583     A.U. after   12 cycles
 SCF Done:  E(RB3LYP) =  -495.846255027     A.U. after   11 cycles
 SCF Done:  E(RB3LYP) =  -495.846278856     A.U. after   11 cycles
 SCF Done:  E(RB3LYP) =  -495.846283011     A.U. after   10 cycles
 SCF Done:  E(RB3LYP) =  -495.846283726     A.U. after   11 cycles
 SCF Done:  E(RB3LYP) =  -495.846283755     A.U. after    6 cycles
 Optimization completed.
    -- Stationary point found.

                         Standard orientation:
 ---------------------------------------------------------------------
 Center     Atomic      Atomic             Coordinates (Angstroms)
 Number     Number       Type             X           Y           Z
 ---------------------------------------------------------------------
      1          1           0        2.741759   -2.080555    0.748964
      2          6           0        3.002000   -1.108063    0.316281
      3          1           0        3.654147   -1.293214   -0.540950
      4          1           0        3.546981   -0.525177    1.065138
      5          6           0        1.732486   -0.430579   -0.174813
      6          8           0        1.145525   -0.811144   -1.185677
      7          7           0        1.299975    0.630542    0.572654
      8          1           0        1.712781    0.754474    1.486357
      9          6           0       -0.013969    1.258033    0.354376
     10          1           0       -0.145970    1.945924    1.194070
     11          6           0       -0.052683    2.065366   -0.948553
     12          1           0        0.172132    1.443012   -1.817322
     13          1           0       -1.038199    2.522341   -1.083524
     14          1           0        0.696512    2.862742   -0.905572
     15          6           0       -1.143354    0.216768    0.568128
     16          8           0       -1.478721   -0.083812    1.708732
     17          7           0       -1.755556   -0.264957   -0.550762
     18          1           0       -1.180587   -0.266479   -1.384731
     19          6           0       -2.741205   -1.329961   -0.432640
     20          1           0       -3.409913   -1.097274    0.397549
     21          1           0       -3.318002   -1.389486   -1.359460
     22          1           0       -2.276658   -2.305136   -0.234871
 ---------------------------------------------------------------------

 The electronic state is 1-A.
 Alpha  occ. eigenvalues --  -19.11761 -19.10546 -14.36774 -14.34934 -10.29454
 Alpha  occ. eigenvalues --  -10.27683 -10.23752 -10.20888 -10.19671 -10.18289
 Alpha  occ. eigenvalues --   -1.03762  -1.02253  -0.92614  -0.90976  -0.78040
 Alpha  occ. eigenvalues --   -0.73201  -0.69702  -0.64937  -0.59000  -0.56180
 Alpha  occ. eigenvalues --   -0.52776  -0.50571  -0.46573  -0.45573  -0.44253
 Alpha  occ. eigenvalues --   -0.43850  -0.41825  -0.41443  -0.40477  -0.39760
 Alpha  occ. eigenvalues --   -0.38745  -0.37869  -0.36904  -0.35588  -0.35130
 Alpha  occ. eigenvalues --   -0.27328  -0.25886  -0.24858  -0.23178
 Alpha virt. eigenvalues --    0.01516   0.02720   0.06820   0.10157   0.11431
 Alpha virt. eigenvalues --    0.12885   0.14197   0.15440   0.15702   0.16419
 Alpha virt. eigenvalues --    0.17405   0.17831   0.18421   0.18879   0.20591

 Mulliken atomic charges:
              1
     1  H    0.189006
     2  C   -0.538264
     3  H    0.188531
     4  H    0.150291
     5  C    0.599433
     6  O   -0.526405
     7  N   -0.581709
     8  H    0.333483
     9  C   -0.047729
    10  H    0.164403
    11  C   -0.458383
    12  H    0.176561
    13  H    0.158152
    14  H    0.151447
    15  C    0.589016
    16  O   -0.521901
    17  N   -0.573712
    18  H    0.351253
    19  C   -0.304220
    20  H    0.186984
    21  H    0.150946
    22  H    0.162818
 Sum of Mulliken atomic charges =   0.00000

 Dipole moment (field-independent basis, Debye):
    X=              1.8110    Y=              0.9967    Z=             -0.3070  Tot=              2.0898
 Quadrupole moment (field-independent basis, Debye-Ang):
   XX=            -54.1107   YY=            -57.0000   ZZ=            -64.3433
   XY=              1.4657   XZ=              9.7923   YZ=              0.4283

 Normal termination of Gaussian 09 at Sat Feb 11 02:34:02 2017.
