 Gaussian 09, Revision A.02,
 Gaussian 09:  EM64L-G09RevA.02 11-Jun-2009

 ----------------------------------------------------------------------
 # b3lyp/6-31G* Opt=(ModRedundant, maxcycles=1000, calcfc) geom=nocrowd
 ----------------------------------------------------------------------

 ------------------
 Phi Psi fixed scan
 ------------------
 Symbolic Z-matrix:
 Charge =  0 Multiplicity = 1

 SCF Done:  E(RB3LYP) =  -495.809859325     A.U. after   15 cycles

  Exact polarizability:   0.000   0.000   0.000   0.000   0.000   0.000
 Approx polarizability: 119.845  11.027 117.694  -1.532 -17.797 102.819

 SCF Done:  E(RB3LYP) =  -495.821680062     A.U. after   12 cycles
 SCF Done:  E(RB3LYP) =  -495.836658145     A.U. after   12 cycles
 SCF Done:  E(RB3LYP) =  -495.843513748     A.U. after   14 cycles
 SCF Done:  E(RB3LYP) =  -495.845731084     A.U. after   12 cycles
 SCF Done:  E(RB3LYP) =  -495.847258396     A.U. after   14 cycles
 SCF Done:  E(RB3LYP) =  -495.848155993     A.U. after   14 cycles
 SCF Done:  E(RB3LYP) =  -495.831613997     A.U. after   15 cycles
 SCF Done:  E(RB3LYP) =  -495.848337043     A.U. after   14 cycles
 SCF Done:  E(RB3LYP) =  -495.848664391     A.U. after   12 cycles
 SCF Done:  E(RB3LYP) =  -495.848942400     A.U. after   12 cycles
 SCF Done:  E(RB3LYP) =  -495.849016907     A.U. after   11 cycles
 SCF Done:  E(RB3LYP) =  -495.849093043     A.U. after   12 cycles
 SCF Done:  E(RB3LYP) =  -495.849129029     A.U. after   11 cycles
 SCF Done:  E(RB3LYP) =  -495.849140969     A.U. after   10 cycles
 SCF Done:  E(RB3LYP) =  -495.849150120     A.U. after   10 cycles
 SCF Done:  E(RB3LYP) =  -495.849156510     A.U. after   10 cycles
 SCF Done:  E(RB3LYP) =  -495.849159357     A.U. after   10 cycles
 SCF Done:  E(RB3LYP) =  -495.849159957     A.U. after    8 cycles
 SCF Done:  E(RB3LYP) =  -495.849160105     A.U. after    7 cycles
 Optimization completed.
    -- Stationary point found.

                         Standard orientation:
 ---------------------------------------------------------------------
 Center     Atomic      Atomic             Coordinates (Angstroms)
 Number     Number       Type             X           Y           Z
 ---------------------------------------------------------------------
      1          1           0       -3.214251   -1.776599   -0.758087
      2          6           0       -3.204811   -0.713273   -0.499892
      3          1           0       -3.942189   -0.565531    0.295151
      4          1           0       -3.506170   -0.130413   -1.375505
      5          6           0       -1.830239   -0.355623    0.044621
      6          8           0       -1.371805   -0.941598    1.029485
      7          7           0       -1.177919    0.639638   -0.611792
      8          1           0       -1.624545    0.993002   -1.445683
      9          6           0        0.139806    1.230994   -0.307149
     10          1           0        0.334803    1.933315   -1.120295
     11          6           0        0.101261    2.013441    1.019748
     12          1           0       -0.130798    1.342033    1.851074
     13          1           0        1.075783    2.477261    1.196302
     14          1           0       -0.662857    2.796640    0.978861
     15          6           0        1.390450    0.314734   -0.315847
     16          8           0        2.466297    0.826038   -0.617081
     17          7           0        1.239505   -0.990242    0.012034
     18          1           0        0.375397   -1.255064    0.482538
     19          6           0        2.402709   -1.855712    0.120420
     20          1           0        3.080774   -1.653005   -0.711046
     21          1           0        2.955678   -1.692036    1.055132
     22          1           0        2.076283   -2.898260    0.079231
 ---------------------------------------------------------------------

 The electronic state is 1-A.
 Alpha  occ. eigenvalues --  -19.12543 -19.09926 -14.37844 -14.34138 -10.30458
 Alpha  occ. eigenvalues --  -10.27435 -10.24165 -10.20626 -10.20431 -10.18248
 Alpha  occ. eigenvalues --   -1.04467  -1.01840  -0.93557  -0.90344  -0.78452
 Alpha  occ. eigenvalues --   -0.73666  -0.69821  -0.65007  -0.59529  -0.56233
 Alpha  occ. eigenvalues --   -0.53490  -0.50740  -0.46887  -0.45902  -0.44136
 Alpha  occ. eigenvalues --   -0.43841  -0.42481  -0.41328  -0.41306  -0.40416
 Alpha  occ. eigenvalues --   -0.38575  -0.38008  -0.36587  -0.36094  -0.34242
 Alpha  occ. eigenvalues --   -0.27833  -0.26516  -0.24310  -0.23120
 Alpha virt. eigenvalues --    0.00832   0.03668   0.05266   0.11215   0.11881
 Alpha virt. eigenvalues --    0.13073   0.14039   0.16123   0.16517   0.16840
 Alpha virt. eigenvalues --    0.17204   0.17543   0.17989   0.18646   0.20387

 Mulliken atomic charges:
              1
     1  H    0.189623
     2  C   -0.531570
     3  H    0.192496
     4  H    0.147289
     5  C    0.603067
     6  O   -0.536007
     7  N   -0.590792
     8  H    0.333488
     9  C   -0.048415
    10  H    0.166980
    11  C   -0.450431
    12  H    0.178602
    13  H    0.175897
    14  H    0.145925
    15  C    0.590766
    16  O   -0.528734
    17  N   -0.610620
    18  H    0.378474
    19  C   -0.299329
    20  H    0.183115
    21  H    0.160176
    22  H    0.150000
 Sum of Mulliken atomic charges =   0.00000

 Dipole moment (field-independent basis, Debye):
    X=             -3.7369    Y=              0.0121    Z=             -1.4947  Tot=              4.0247
 Quadrupole moment (field-independent basis, Debye-Ang):
   XX=            -61.5258   YY=            -57.0456   ZZ=            -60.1345
   XY=             -7.0970   XZ=              7.8883   YZ=              1.0063

 Normal termination of Gaussian 09 at Sat Feb 11 02:41:18 2017.
