 Gaussian 09, Revision A.02,
 Gaussian 09:  EM64L-G09RevA.02 11-Jun-2009

 ----------------------------------------------------------------------
 # b3lyp/6-31G* Opt=(ModRedundant, maxcycles=1000, calcfc) geom=nocrowd
 ----------------------------------------------------------------------

 ------------------
 Phi Psi fixed scan
 ------------------
 Symbolic Z-matrix:
 Charge =  0 Multiplicity = 1

 SCF Done:  E(RB3LYP) =  -495.830282185     A.U. after   15 cycles

  Exact polarizability:   0.000   0.000   0.000   0.000   0.000   0.000
 Approx polarizability: 116.732  11.155 110.023  10.708  -5.041 107.654

 SCF Done:  E(RB3LYP) =  -495.834852352     A.U. after   12 cycles
 SCF Done:  E(RB3LYP) =  -495.840307802     A.U. after   13 cycles
 SCF Done:  E(RB3LYP) =  -495.842133271     A.U. after   15 cycles
 SCF Done:  E(RB3LYP) =  -495.842704301     A.U. after   13 cycles
 SCF Done:  E(RB3LYP) =  -495.776939275     A.U. after   15 cycles
 SCF Done:  E(RB3LYP) =  -495.842778976     A.U. after   15 cycles
 SCF Done:  E(RB3LYP) =  -495.843219239     A.U. after   12 cycles
 SCF Done:  E(RB3LYP) =  -495.839835493     A.U. after   13 cycles
 SCF Done:  E(RB3LYP) =  -495.843440913     A.U. after   13 cycles
 SCF Done:  E(RB3LYP) =  -495.843664168     A.U. after   11 cycles
 SCF Done:  E(RB3LYP) =  -495.843676816     A.U. after   11 cycles
 SCF Done:  E(RB3LYP) =  -495.843682791     A.U. after   10 cycles
 SCF Done:  E(RB3LYP) =  -495.843683617     A.U. after    8 cycles
 SCF Done:  E(RB3LYP) =  -495.843684867     A.U. after    8 cycles
 SCF Done:  E(RB3LYP) =  -495.843686982     A.U. after   10 cycles
 SCF Done:  E(RB3LYP) =  -495.843688469     A.U. after   10 cycles
 SCF Done:  E(RB3LYP) =  -495.843688721     A.U. after    9 cycles
 SCF Done:  E(RB3LYP) =  -495.843688716     A.U. after    6 cycles
 SCF Done:  E(RB3LYP) =  -495.843688708     A.U. after    6 cycles
 Optimization completed.
    -- Stationary point found.

                         Standard orientation:
 ---------------------------------------------------------------------
 Center     Atomic      Atomic             Coordinates (Angstroms)
 Number     Number       Type             X           Y           Z
 ---------------------------------------------------------------------
      1          1           0       -3.742124   -1.080490    0.858572
      2          6           0       -3.096858   -1.032627   -0.020356
      3          1           0       -3.668624   -0.662227   -0.877806
      4          1           0       -2.749192   -2.047239   -0.249637
      5          6           0       -1.891450   -0.163425    0.297231
      6          8           0       -1.481854    0.004595    1.436988
      7          7           0       -1.303825    0.436491   -0.800814
      8          1           0       -1.521141   -0.008170   -1.683851
      9          6           0        0.066754    0.933994   -0.707790
     10          1           0        0.338258    1.234079   -1.728762
     11          6           0        0.176495    2.178123    0.187038
     12          1           0        0.035372    1.919450    1.237190
     13          1           0        1.143060    2.679053    0.051919
     14          1           0       -0.599481    2.894607   -0.098354
     15          6           0        1.024391   -0.240279   -0.361382
     16          8           0        0.702247   -1.399463   -0.589324
     17          7           0        2.270326    0.114550    0.067176
     18          1           0        2.412921    1.058380    0.394429
     19          6           0        3.265581   -0.883655    0.426020
     20          1           0        3.048755   -1.791426   -0.138076
     21          1           0        4.265544   -0.521700    0.167504
     22          1           0        3.238522   -1.125441    1.496450
 ---------------------------------------------------------------------

 The electronic state is 1-A.
 Alpha  occ. eigenvalues --  -19.10864 -19.10644 -14.36097 -14.35104 -10.28222
 Alpha  occ. eigenvalues --  -10.28071 -10.23816 -10.21651 -10.18478 -10.18355
 Alpha  occ. eigenvalues --   -1.03314  -1.02073  -0.91846  -0.91535  -0.77686
 Alpha  occ. eigenvalues --   -0.72415  -0.70253  -0.64648  -0.58652  -0.56243
 Alpha  occ. eigenvalues --   -0.52594  -0.50083  -0.46030  -0.45408  -0.44241
 Alpha  occ. eigenvalues --   -0.43571  -0.42288  -0.41355  -0.39732  -0.39033
 Alpha  occ. eigenvalues --   -0.38943  -0.37995  -0.37470  -0.35037  -0.34277
 Alpha  occ. eigenvalues --   -0.26153  -0.25312  -0.24613  -0.23803
 Alpha virt. eigenvalues --    0.02595   0.03267   0.06745   0.08793   0.11844
 Alpha virt. eigenvalues --    0.13012   0.14468   0.15534   0.16041   0.16564
 Alpha virt. eigenvalues --    0.17064   0.17380   0.18478   0.19226   0.19388

 Mulliken atomic charges:
              1
     1  H    0.183195
     2  C   -0.550982
     3  H    0.154025
     4  H    0.191301
     5  C    0.602909
     6  O   -0.505250
     7  N   -0.564827
     8  H    0.327290
     9  C   -0.065409
    10  H    0.161221
    11  C   -0.468641
    12  H    0.201700
    13  H    0.129227
    14  H    0.164360
    15  C    0.628832
    16  O   -0.530415
    17  N   -0.598174
    18  H    0.330419
    19  C   -0.306586
    20  H    0.198920
    21  H    0.151790
    22  H    0.165095
 Sum of Mulliken atomic charges =   0.00000

 Dipole moment (field-independent basis, Debye):
    X=              1.5010    Y=              2.0300    Z=             -2.0911  Tot=              3.2783
 Quadrupole moment (field-independent basis, Debye-Ang):
   XX=            -48.9263   YY=            -60.4932   ZZ=            -61.3863
   XY=              4.3183   XZ=              6.6320   YZ=             -1.0531

 Normal termination of Gaussian 09 at Sat Feb 11 02:41:18 2017.
