 Gaussian 09, Revision A.02,
 Gaussian 09:  EM64L-G09RevA.02 11-Jun-2009

 ----------------------------------------------------------------------
 # b3lyp/6-31G* Opt=(ModRedundant, maxcycles=1000, calcfc) geom=nocrowd
 ----------------------------------------------------------------------

 ------------------
 Phi Psi fixed scan
 ------------------
 Symbolic Z-matrix:
 Charge =  0 Multiplicity = 1

 SCF Done:  E(RB3LYP) =  -495.836532322     A.U. after   15 cycles

  Exact polarizability:   0.000   0.000   0.000   0.000   0.000   0.000
 Approx polarizability: 105.959   9.955 112.897  11.437   5.261 116.683

 SCF Done:  E(RB3LYP) =  -495.840091620     A.U. after   12 cycles
 SCF Done:  E(RB3LYP) =  -495.844061894     A.U. after   12 cycles
 SCF Done:  E(RB3LYP) =  -495.844972492     A.U. after   12 cycles
 SCF Done:  E(RB3LYP) =  -495.834822648     A.U. after   14 cycles
 SCF Done:  E(RB3LYP) =  -495.845015832     A.U. after   14 cycles
 SCF Done:  E(RB3LYP) =  -495.845296764     A.U. after   12 cycles
 SCF Done:  E(RB3LYP) =  -495.844468774     A.U. after   14 cycles
 SCF Done:  E(RB3LYP) =  -495.845507559     A.U. after   13 cycles
 SCF Done:  E(RB3LYP) =  -495.845623464     A.U. after   12 cycles
 SCF Done:  E(RB3LYP) =  -495.845634723     A.U. after   10 cycles
 SCF Done:  E(RB3LYP) =  -495.845639779     A.U. after   10 cycles
 SCF Done:  E(RB3LYP) =  -495.845643984     A.U. after   10 cycles
 SCF Done:  E(RB3LYP) =  -495.845648538     A.U. after   10 cycles
 SCF Done:  E(RB3LYP) =  -495.845650531     A.U. after   10 cycles
 SCF Done:  E(RB3LYP) =  -495.845650819     A.U. after    8 cycles
 SCF Done:  E(RB3LYP) =  -495.845651186     A.U. after    8 cycles
 SCF Done:  E(RB3LYP) =  -495.845651931     A.U. after    9 cycles
 SCF Done:  E(RB3LYP) =  -495.845652096     A.U. after    8 cycles
 Optimization completed.
    -- Stationary point found.

                         Standard orientation:
 ---------------------------------------------------------------------
 Center     Atomic      Atomic             Coordinates (Angstroms)
 Number     Number       Type             X           Y           Z
 ---------------------------------------------------------------------
      1          1           0       -3.101045   -2.039542    0.341740
      2          6           0       -3.049724   -1.046761   -0.111468
      3          1           0       -3.836604   -0.435297    0.344879
      4          1           0       -3.251253   -1.126877   -1.184686
      5          6           0       -1.694380   -0.431499    0.210314
      6          8           0       -1.158540   -0.563533    1.301811
      7          7           0       -1.114006    0.279445   -0.814555
      8          1           0       -1.672271    0.452206   -1.639225
      9          6           0        0.074153    1.124590   -0.626248
     10          1           0        0.346232    1.467572   -1.632932
     11          6           0       -0.202121    2.345836    0.257481
     12          1           0       -0.514348    2.025048    1.254170
     13          1           0        0.707514    2.940902    0.357551
     14          1           0       -0.991812    2.962393   -0.185585
     15          6           0        1.312689    0.347658   -0.115025
     16          8           0        2.202387    0.931505    0.489592
     17          7           0        1.389670   -0.958465   -0.494346
     18          1           0        0.542648   -1.384212   -0.841087
     19          6           0        2.445659   -1.827667   -0.005267
     20          1           0        3.313606   -1.207127    0.221305
     21          1           0        2.146757   -2.357264    0.908809
     22          1           0        2.712497   -2.561385   -0.772567
 ---------------------------------------------------------------------

 The electronic state is 1-A.
 Alpha  occ. eigenvalues --  -19.11854 -19.10176 -14.37220 -14.34994 -10.29648
 Alpha  occ. eigenvalues --  -10.27739 -10.23923 -10.20867 -10.20153 -10.17165
 Alpha  occ. eigenvalues --   -1.03995  -1.02119  -0.93197  -0.90738  -0.77876
 Alpha  occ. eigenvalues --   -0.73184  -0.70326  -0.64073  -0.59443  -0.56767
 Alpha  occ. eigenvalues --   -0.52732  -0.50153  -0.46923  -0.45869  -0.44741
 Alpha  occ. eigenvalues --   -0.43780  -0.41857  -0.41347  -0.40468  -0.39809
 Alpha  occ. eigenvalues --   -0.38267  -0.37647  -0.36345  -0.35764  -0.34645
 Alpha  occ. eigenvalues --   -0.27322  -0.25632  -0.24379  -0.23525
 Alpha virt. eigenvalues --    0.01637   0.03053   0.06316   0.10303   0.11258
 Alpha virt. eigenvalues --    0.13506   0.13786   0.14636   0.15735   0.16263
 Alpha virt. eigenvalues --    0.17476   0.17606   0.18116   0.18429   0.19699

 Mulliken atomic charges:
              1
     1  H    0.189376
     2  C   -0.541531
     3  H    0.188570
     4  H    0.147024
     5  C    0.580186
     6  O   -0.493111
     7  N   -0.615018
     8  H    0.326093
     9  C   -0.051819
    10  H    0.161845
    11  C   -0.440026
    12  H    0.184740
    13  H    0.179707
    14  H    0.126347
    15  C    0.634021
    16  O   -0.526652
    17  N   -0.582005
    18  H    0.329356
    19  C   -0.307688
    20  H    0.196732
    21  H    0.166225
    22  H    0.147627
 Sum of Mulliken atomic charges =   0.00000

 Dipole moment (field-independent basis, Debye):
    X=             -3.3923    Y=             -1.3662    Z=             -4.2942  Tot=              5.6404
 Quadrupole moment (field-independent basis, Debye-Ang):
   XX=            -58.4107   YY=            -56.3556   ZZ=            -61.1887
   XY=             -5.2420   XZ=              2.0891   YZ=             -0.5572

 Normal termination of Gaussian 09 at Sat Feb 11 02:35:12 2017.
