 Gaussian 09, Revision A.02,
 Gaussian 09:  EM64L-G09RevA.02 11-Jun-2009

 ----------------------------------------------------------------------
 # b3lyp/6-31G* Opt=(ModRedundant, maxcycles=1000, calcfc) geom=nocrowd
 ----------------------------------------------------------------------

 ------------------
 Phi Psi fixed scan
 ------------------
 Symbolic Z-matrix:
 Charge =  0 Multiplicity = 1

 SCF Done:  E(RB3LYP) =  -495.828690726     A.U. after   15 cycles

  Exact polarizability:   0.000   0.000   0.000   0.000   0.000   0.000
 Approx polarizability: 107.667  -0.888 117.054  -1.068 -23.918 112.245

 SCF Done:  E(RB3LYP) =  -495.836437167     A.U. after   12 cycles
 SCF Done:  E(RB3LYP) =  -495.845367624     A.U. after   12 cycles
 SCF Done:  E(RB3LYP) =  -495.847980609     A.U. after   12 cycles
 SCF Done:  E(RB3LYP) =  -495.848639773     A.U. after   13 cycles
 SCF Done:  E(RB3LYP) =  -495.846855312     A.U. after   14 cycles
 SCF Done:  E(RB3LYP) =  -495.848795416     A.U. after   12 cycles
 SCF Done:  E(RB3LYP) =  -495.849246307     A.U. after   12 cycles
 SCF Done:  E(RB3LYP) =  -495.849240345     A.U. after   12 cycles
 SCF Done:  E(RB3LYP) =  -495.849278508     A.U. after   11 cycles
 SCF Done:  E(RB3LYP) =  -495.849388259     A.U. after   11 cycles
 SCF Done:  E(RB3LYP) =  -495.849393825     A.U. after   10 cycles
 SCF Done:  E(RB3LYP) =  -495.849399542     A.U. after   10 cycles
 SCF Done:  E(RB3LYP) =  -495.849407602     A.U. after   10 cycles
 SCF Done:  E(RB3LYP) =  -495.849415753     A.U. after   10 cycles
 SCF Done:  E(RB3LYP) =  -495.849422179     A.U. after   10 cycles
 SCF Done:  E(RB3LYP) =  -495.849423770     A.U. after   10 cycles
 SCF Done:  E(RB3LYP) =  -495.849424186     A.U. after    9 cycles
 SCF Done:  E(RB3LYP) =  -495.849424247     A.U. after    7 cycles
 SCF Done:  E(RB3LYP) =  -495.849424247     A.U. after    6 cycles
 Optimization completed.
    -- Stationary point found.

                         Standard orientation:
 ---------------------------------------------------------------------
 Center     Atomic      Atomic             Coordinates (Angstroms)
 Number     Number       Type             X           Y           Z
 ---------------------------------------------------------------------
      1          1           0       -3.815767   -1.037357    0.166250
      2          6           0       -3.075987   -0.866887   -0.620626
      3          1           0       -3.485819   -0.163408   -1.351622
      4          1           0       -2.898160   -1.827547   -1.115669
      5          6           0       -1.780616   -0.400842    0.025452
      6          8           0       -1.297238   -1.011011    0.981610
      7          7           0       -1.230803    0.727882   -0.504400
      8          1           0       -1.646091    1.074430   -1.357540
      9          6           0        0.088345    1.297256   -0.159952
     10          1           0        0.244021    2.107489   -0.874794
     11          6           0        0.097394    1.874050    1.263268
     12          1           0       -0.112269    1.101971    2.006284
     13          1           0        1.075926    2.313823    1.482317
     14          1           0       -0.663604    2.656487    1.354397
     15          6           0        1.281327    0.343536   -0.438224
     16          8           0        2.050207    0.586597   -1.364630
     17          7           0        1.452198   -0.683926    0.433361
     18          1           0        0.636094   -0.951018    0.980350
     19          6           0        2.509957   -1.658503    0.222712
     20          1           0        3.427738   -1.136246   -0.054842
     21          1           0        2.673104   -2.213571    1.150191
     22          1           0        2.268792   -2.369090   -0.579671
 ---------------------------------------------------------------------

 The electronic state is 1-A.
 Alpha  occ. eigenvalues --  -19.12547 -19.10178 -14.37664 -14.34185 -10.30307
 Alpha  occ. eigenvalues --  -10.27380 -10.23925 -10.20672 -10.20266 -10.18322
 Alpha  occ. eigenvalues --   -1.04367  -1.01898  -0.93360  -0.90427  -0.78384
 Alpha  occ. eigenvalues --   -0.73612  -0.69649  -0.65084  -0.59414  -0.56035
 Alpha  occ. eigenvalues --   -0.53154  -0.50775  -0.46989  -0.45715  -0.44111
 Alpha  occ. eigenvalues --   -0.43968  -0.42042  -0.41419  -0.41239  -0.40350
 Alpha  occ. eigenvalues --   -0.38655  -0.37501  -0.36784  -0.35812  -0.35323
 Alpha  occ. eigenvalues --   -0.28029  -0.26410  -0.24303  -0.23013
 Alpha virt. eigenvalues --    0.01012   0.03025   0.05890   0.11142   0.11630
 Alpha virt. eigenvalues --    0.12936   0.13962   0.15687   0.16055   0.16957
 Alpha virt. eigenvalues --    0.17213   0.17695   0.18081   0.18831   0.20003

 Mulliken atomic charges:
              1
     1  H    0.191969
     2  C   -0.533650
     3  H    0.149548
     4  H    0.189541
     5  C    0.602161
     6  O   -0.530423
     7  N   -0.590657
     8  H    0.334425
     9  C   -0.054362
    10  H    0.166694
    11  C   -0.447254
    12  H    0.178572
    13  H    0.161448
    14  H    0.148386
    15  C    0.584436
    16  O   -0.524951
    17  N   -0.591970
    18  H    0.373731
    19  C   -0.299988
    20  H    0.183969
    21  H    0.151608
    22  H    0.156766
 Sum of Mulliken atomic charges =   0.00000

 Dipole moment (field-independent basis, Debye):
    X=             -3.0273    Y=              0.3602    Z=             -0.2353  Tot=              3.0577
 Quadrupole moment (field-independent basis, Debye-Ang):
   XX=            -58.3367   YY=            -56.8212   ZZ=            -62.8997
   XY=             -5.1009   XZ=             10.3323   YZ=              1.7538

 Normal termination of Gaussian 09 at Sat Feb 11 02:47:37 2017.
