 Gaussian 09, Revision A.02,
 Gaussian 09:  EM64L-G09RevA.02 11-Jun-2009

 ----------------------------------------------------------------------
 # b3lyp/6-31G* Opt=(ModRedundant, maxcycles=1000, calcfc) geom=nocrowd
 ----------------------------------------------------------------------

 ------------------
 Phi Psi fixed scan
 ------------------
 Symbolic Z-matrix:
 Charge =  0 Multiplicity = 1

 SCF Done:  E(RB3LYP) =  -495.835058035     A.U. after   16 cycles

  Exact polarizability:   0.000   0.000   0.000   0.000   0.000   0.000
 Approx polarizability: 102.088   6.633 110.356   9.390  10.834 122.720

 SCF Done:  E(RB3LYP) =  -495.838750259     A.U. after   12 cycles
 SCF Done:  E(RB3LYP) =  -495.842949385     A.U. after   12 cycles
 SCF Done:  E(RB3LYP) =  -495.844177361     A.U. after   13 cycles
 SCF Done:  E(RB3LYP) =  -495.842029976     A.U. after   14 cycles
 SCF Done:  E(RB3LYP) =  -495.844245079     A.U. after   13 cycles
 SCF Done:  E(RB3LYP) =  -495.844634687     A.U. after   12 cycles
 SCF Done:  E(RB3LYP) =  -495.844696238     A.U. after   14 cycles
 SCF Done:  E(RB3LYP) =  -495.844520791     A.U. after   13 cycles
 SCF Done:  E(RB3LYP) =  -495.844813856     A.U. after   12 cycles
 SCF Done:  E(RB3LYP) =  -495.845128092     A.U. after   12 cycles
 SCF Done:  E(RB3LYP) =  -495.845141055     A.U. after   11 cycles
 SCF Done:  E(RB3LYP) =  -495.845147655     A.U. after    9 cycles
 SCF Done:  E(RB3LYP) =  -495.845152533     A.U. after   10 cycles
 SCF Done:  E(RB3LYP) =  -495.845161567     A.U. after   11 cycles
 SCF Done:  E(RB3LYP) =  -495.845163975     A.U. after   11 cycles
 SCF Done:  E(RB3LYP) =  -495.845165716     A.U. after   10 cycles
 Optimization completed.
    -- Stationary point found.

                         Standard orientation:
 ---------------------------------------------------------------------
 Center     Atomic      Atomic             Coordinates (Angstroms)
 Number     Number       Type             X           Y           Z
 ---------------------------------------------------------------------
      1          1           0       -3.094043   -2.067500    0.506437
      2          6           0       -3.024913   -1.136276   -0.059951
      3          1           0       -3.823015   -0.472550    0.293047
      4          1           0       -3.191745   -1.342437   -1.122310
      5          6           0       -1.676154   -0.490108    0.224736
      6          8           0       -1.136249   -0.552341    1.319400
      7          7           0       -1.098525    0.159765   -0.844305
      8          1           0       -1.683580    0.315245   -1.655024
      9          6           0        0.037325    1.080930   -0.675382
     10          1           0        0.339742    1.356879   -1.693635
     11          6           0       -0.326838    2.344518    0.106918
     12          1           0       -0.641237    2.082936    1.119651
     13          1           0        0.543478    3.000103    0.181731
     14          1           0       -1.138129    2.881138   -0.397613
     15          6           0        1.264070    0.372612   -0.049523
     16          8           0        1.989328    0.941842    0.752224
     17          7           0        1.548686   -0.849575   -0.592100
     18          1           0        0.791524   -1.308940   -1.080304
     19          6           0        2.604674   -1.683164   -0.041473
     20          1           0        3.393250   -1.027573    0.330402
     21          1           0        2.249114   -2.303923    0.791667
     22          1           0        3.009894   -2.331794   -0.824171
 ---------------------------------------------------------------------

 The electronic state is 1-A.
 Alpha  occ. eigenvalues --  -19.11887 -19.10252 -14.37083 -14.34918 -10.29561
 Alpha  occ. eigenvalues --  -10.27666 -10.23818 -10.20845 -10.20060 -10.17221
 Alpha  occ. eigenvalues --   -1.03984  -1.02125  -0.93118  -0.90664  -0.77821
 Alpha  occ. eigenvalues --   -0.73140  -0.70283  -0.63920  -0.59400  -0.56468
 Alpha  occ. eigenvalues --   -0.52405  -0.50027  -0.46815  -0.45958  -0.44738
 Alpha  occ. eigenvalues --   -0.43724  -0.41778  -0.41342  -0.40373  -0.39870
 Alpha  occ. eigenvalues --   -0.38232  -0.37277  -0.36488  -0.35713  -0.34861
 Alpha  occ. eigenvalues --   -0.27287  -0.25448  -0.24462  -0.23619
 Alpha virt. eigenvalues --    0.01647   0.02832   0.06577   0.10233   0.11333
 Alpha virt. eigenvalues --    0.13381   0.13636   0.14539   0.15838   0.16083
 Alpha virt. eigenvalues --    0.17381   0.17586   0.18112   0.18384   0.19891

 Mulliken atomic charges:
              1
     1  H    0.190889
     2  C   -0.544114
     3  H    0.186371
     4  H    0.149129
     5  C    0.586605
     6  O   -0.487359
     7  N   -0.610273
     8  H    0.323538
     9  C   -0.060099
    10  H    0.158776
    11  C   -0.437043
    12  H    0.187840
    13  H    0.173456
    14  H    0.124238
    15  C    0.632763
    16  O   -0.518943
    17  N   -0.583187
    18  H    0.326355
    19  C   -0.305985
    20  H    0.195180
    21  H    0.164719
    22  H    0.147145
 Sum of Mulliken atomic charges =   0.00000

 Dipole moment (field-independent basis, Debye):
    X=             -3.0367    Y=             -1.4332    Z=             -4.7287  Tot=              5.7997
 Quadrupole moment (field-independent basis, Debye-Ang):
   XX=            -56.4008   YY=            -56.6772   ZZ=            -61.7820
   XY=             -4.7186   XZ=              1.2308   YZ=             -0.7267

 Normal termination of Gaussian 09 at Sat Feb 11 02:41:03 2017.
