 Gaussian 09, Revision A.02,
 Gaussian 09:  EM64L-G09RevA.02 11-Jun-2009

 ----------------------------------------------------------------------
 # b3lyp/6-31G* Opt=(ModRedundant, maxcycles=1000, calcfc) geom=nocrowd
 ----------------------------------------------------------------------

 ------------------
 Phi Psi fixed scan
 ------------------
 Symbolic Z-matrix:
 Charge =  0 Multiplicity = 1

 SCF Done:  E(RB3LYP) =  -495.828902329     A.U. after   15 cycles

  Exact polarizability:   0.000   0.000   0.000   0.000   0.000   0.000
 Approx polarizability: 117.639  12.644 110.613   6.515  -9.626 105.888

 SCF Done:  E(RB3LYP) =  -495.833232133     A.U. after   12 cycles
 SCF Done:  E(RB3LYP) =  -495.838462916     A.U. after   12 cycles
 SCF Done:  E(RB3LYP) =  -495.840311443     A.U. after   14 cycles
 SCF Done:  E(RB3LYP) =  -495.841329151     A.U. after   13 cycles
 SCF Done:  E(RB3LYP) =  -495.836701669     A.U. after   14 cycles
 SCF Done:  E(RB3LYP) =  -495.841587591     A.U. after   14 cycles
 SCF Done:  E(RB3LYP) =  -495.842132806     A.U. after   13 cycles
 SCF Done:  E(RB3LYP) =  -495.840971034     A.U. after   15 cycles
 SCF Done:  E(RB3LYP) =  -495.842306053     A.U. after   13 cycles
 SCF Done:  E(RB3LYP) =  -495.842355084     A.U. after   11 cycles
 SCF Done:  E(RB3LYP) =  -495.842359925     A.U. after   11 cycles
 SCF Done:  E(RB3LYP) =  -495.842361287     A.U. after    8 cycles
 SCF Done:  E(RB3LYP) =  -495.842363505     A.U. after   10 cycles
 SCF Done:  E(RB3LYP) =  -495.842364766     A.U. after   10 cycles
 SCF Done:  E(RB3LYP) =  -495.842365176     A.U. after    8 cycles
 SCF Done:  E(RB3LYP) =  -495.842365371     A.U. after    7 cycles
 SCF Done:  E(RB3LYP) =  -495.842365571     A.U. after    7 cycles
 SCF Done:  E(RB3LYP) =  -495.842365682     A.U. after    7 cycles
 Optimization completed.
    -- Stationary point found.

                         Standard orientation:
 ---------------------------------------------------------------------
 Center     Atomic      Atomic             Coordinates (Angstroms)
 Number     Number       Type             X           Y           Z
 ---------------------------------------------------------------------
      1          1           0       -3.791098   -1.125169    0.664099
      2          6           0       -3.076374   -1.068937   -0.158612
      3          1           0       -3.588610   -0.741715   -1.069946
      4          1           0       -2.667116   -2.071235   -0.333264
      5          6           0       -1.938163   -0.142243    0.236646
      6          8           0       -1.654775    0.091976    1.401050
      7          7           0       -1.271916    0.439172   -0.831861
      8          1           0       -1.424853   -0.039381   -1.711391
      9          6           0        0.095846    0.922067   -0.669670
     10          1           0        0.421953    1.226931   -1.673046
     11          6           0        0.177135    2.157521    0.243511
     12          1           0       -0.030401    1.889018    1.279349
     13          1           0        1.160722    2.638397    0.178171
     14          1           0       -0.566496    2.891919   -0.080166
     15          6           0        1.030181   -0.250121   -0.254323
     16          8           0        0.633455   -1.406982   -0.214744
     17          7           0        2.340215    0.093683   -0.074904
     18          1           0        2.575136    1.073021   -0.006565
     19          6           0        3.346392   -0.876343    0.326030
     20          1           0        2.954438   -1.869157    0.102860
     21          1           0        4.273100   -0.715260   -0.234640
     22          1           0        3.565582   -0.818965    1.399956
 ---------------------------------------------------------------------

 The electronic state is 1-A.
 Alpha  occ. eigenvalues --  -19.11163 -19.10366 -14.36287 -14.34987 -10.28400
 Alpha  occ. eigenvalues --  -10.27900 -10.23888 -10.21819 -10.18379 -10.18145
 Alpha  occ. eigenvalues --   -1.03432  -1.01939  -0.92031  -0.91472  -0.77634
 Alpha  occ. eigenvalues --   -0.72277  -0.70395  -0.64474  -0.58736  -0.56194
 Alpha  occ. eigenvalues --   -0.52553  -0.49890  -0.46220  -0.45259  -0.44466
 Alpha  occ. eigenvalues --   -0.43554  -0.42214  -0.41224  -0.39920  -0.39126
 Alpha  occ. eigenvalues --   -0.38801  -0.37682  -0.37502  -0.35070  -0.34172
 Alpha  occ. eigenvalues --   -0.26358  -0.25233  -0.24748  -0.23493
 Alpha virt. eigenvalues --    0.02760   0.03253   0.06171   0.08538   0.11840
 Alpha virt. eigenvalues --    0.13082   0.14705   0.15705   0.16147   0.16527
 Alpha virt. eigenvalues --    0.16745   0.17235   0.18553   0.19285   0.19625

 Mulliken atomic charges:
              1
     1  H    0.182567
     2  C   -0.552870
     3  H    0.152535
     4  H    0.191690
     5  C    0.605807
     6  O   -0.500346
     7  N   -0.566779
     8  H    0.323426
     9  C   -0.073305
    10  H    0.155869
    11  C   -0.454475
    12  H    0.205804
    13  H    0.123275
    14  H    0.163605
    15  C    0.622766
    16  O   -0.520593
    17  N   -0.595868
    18  H    0.326742
    19  C   -0.308459
    20  H    0.202788
    21  H    0.153390
    22  H    0.162430
 Sum of Mulliken atomic charges =   0.00000

 Dipole moment (field-independent basis, Debye):
    X=              2.1856    Y=              1.8217    Z=             -2.8636  Tot=              4.0368
 Quadrupole moment (field-independent basis, Debye-Ang):
   XX=            -49.1526   YY=            -60.4072   ZZ=            -61.2037
   XY=              4.6617   XZ=              5.8118   YZ=             -0.3797

 Normal termination of Gaussian 09 at Sat Feb 11 02:29:07 2017.
