 Gaussian 09, Revision A.02,
 Gaussian 09:  EM64L-G09RevA.02 11-Jun-2009

 ----------------------------------------------------------------------
 # b3lyp/6-31G* Opt=(ModRedundant, maxcycles=1000, calcfc) geom=nocrowd
 ----------------------------------------------------------------------

 ------------------
 Phi Psi fixed scan
 ------------------
 Symbolic Z-matrix:
 Charge =  0 Multiplicity = 1

 SCF Done:  E(RB3LYP) =  -495.828878093     A.U. after   15 cycles

  Exact polarizability:   0.000   0.000   0.000   0.000   0.000   0.000
 Approx polarizability: 100.733  -0.589 100.067   0.301  13.397 133.959

 SCF Done:  E(RB3LYP) =  -495.832973125     A.U. after   12 cycles
 SCF Done:  E(RB3LYP) =  -495.837380750     A.U. after   13 cycles
 SCF Done:  E(RB3LYP) =  -495.838209328     A.U. after   13 cycles
 SCF Done:  E(RB3LYP) =  -495.835599714     A.U. after   13 cycles
 SCF Done:  E(RB3LYP) =  -495.838274353     A.U. after   12 cycles
 SCF Done:  E(RB3LYP) =  -495.838509240     A.U. after   12 cycles
 SCF Done:  E(RB3LYP) =  -495.837467684     A.U. after   13 cycles
 SCF Done:  E(RB3LYP) =  -495.838696664     A.U. after   12 cycles
 SCF Done:  E(RB3LYP) =  -495.838888362     A.U. after   12 cycles
 SCF Done:  E(RB3LYP) =  -495.838943946     A.U. after   12 cycles
 SCF Done:  E(RB3LYP) =  -495.838969678     A.U. after   11 cycles
 SCF Done:  E(RB3LYP) =  -495.838991647     A.U. after   11 cycles
 SCF Done:  E(RB3LYP) =  -495.838998368     A.U. after   11 cycles
 SCF Done:  E(RB3LYP) =  -495.838999973     A.U. after    9 cycles
 SCF Done:  E(RB3LYP) =  -495.839000235     A.U. after    8 cycles
 SCF Done:  E(RB3LYP) =  -495.839000572     A.U. after    8 cycles
 SCF Done:  E(RB3LYP) =  -495.839001106     A.U. after    9 cycles
 SCF Done:  E(RB3LYP) =  -495.839001358     A.U. after    8 cycles
 SCF Done:  E(RB3LYP) =  -495.839001403     A.U. after    7 cycles
 Optimization completed.
    -- Stationary point found.

                         Standard orientation:
 ---------------------------------------------------------------------
 Center     Atomic      Atomic             Coordinates (Angstroms)
 Number     Number       Type             X           Y           Z
 ---------------------------------------------------------------------
      1          1           0       -3.215834   -2.072700    0.478826
      2          6           0       -3.093710   -1.190335   -0.153143
      3          1           0       -3.922638   -0.507242    0.066456
      4          1           0       -3.158136   -1.486262   -1.205510
      5          6           0       -1.776931   -0.512751    0.209421
      6          8           0       -1.360748   -0.466347    1.355739
      7          7           0       -1.094875    0.030545   -0.856612
      8          1           0       -1.596051    0.080467   -1.733650
      9          6           0        0.040995    0.958810   -0.718812
     10          1           0        0.396958    1.130302   -1.741287
     11          6           0       -0.359085    2.290554   -0.080056
     12          1           0       -0.681321    2.124779    0.949325
     13          1           0        0.493106    2.976466   -0.062292
     14          1           0       -1.171990    2.753822   -0.650277
     15          6           0        1.216696    0.315301    0.064794
     16          8           0        1.572797    0.705781    1.163116
     17          7           0        1.925851   -0.603306   -0.670036
     18          1           0        1.448189   -1.015206   -1.461632
     19          6           0        2.987574   -1.387856   -0.057851
     20          1           0        3.490927   -0.756372    0.675364
     21          1           0        2.606519   -2.278950    0.458953
     22          1           0        3.703808   -1.697596   -0.824691
 ---------------------------------------------------------------------

 The electronic state is 1-A.
 Alpha  occ. eigenvalues --  -19.11006 -19.10560 -14.36570 -14.35544 -10.28873
 Alpha  occ. eigenvalues --  -10.27864 -10.23878 -10.21235 -10.19493 -10.17216
 Alpha  occ. eigenvalues --   -1.03298  -1.02315  -0.92625  -0.91061  -0.77653
 Alpha  occ. eigenvalues --   -0.72765  -0.70468  -0.63827  -0.59240  -0.56646
 Alpha  occ. eigenvalues --   -0.52150  -0.49669  -0.46548  -0.45616  -0.44824
 Alpha  occ. eigenvalues --   -0.43866  -0.41495  -0.41352  -0.40044  -0.39698
 Alpha  occ. eigenvalues --   -0.38492  -0.36877  -0.36439  -0.35458  -0.35079
 Alpha  occ. eigenvalues --   -0.26936  -0.24692  -0.24432  -0.23801
 Alpha virt. eigenvalues --    0.02135   0.02497   0.06365   0.09225   0.11724
 Alpha virt. eigenvalues --    0.12823   0.13737   0.14981   0.15708   0.16506
 Alpha virt. eigenvalues --    0.17063   0.17860   0.18181   0.18544   0.19827

 Mulliken atomic charges:
              1
     1  H    0.190070
     2  C   -0.543026
     3  H    0.183459
     4  H    0.145417
     5  C    0.588271
     6  O   -0.483267
     7  N   -0.601483
     8  H    0.319612
     9  C   -0.066696
    10  H    0.145445
    11  C   -0.437315
    12  H    0.201995
    13  H    0.157627
    14  H    0.125791
    15  C    0.636927
    16  O   -0.498086
    17  N   -0.586525
    18  H    0.319352
    19  C   -0.306812
    20  H    0.198344
    21  H    0.161578
    22  H    0.149324
 Sum of Mulliken atomic charges =   0.00000

 Dipole moment (field-independent basis, Debye):
    X=             -1.3719    Y=             -1.2925    Z=             -5.7598  Tot=              6.0603
 Quadrupole moment (field-independent basis, Debye-Ang):
   XX=            -53.3954   YY=            -57.0732   ZZ=            -62.3201
   XY=             -3.6453   XZ=              1.0046   YZ=             -0.1455

 Normal termination of Gaussian 09 at Sat Feb 11 02:42:54 2017.
