 Gaussian 09, Revision A.02,
 Gaussian 09:  EM64L-G09RevA.02 11-Jun-2009

 ----------------------------------------------------------------------
 # b3lyp/6-31G* Opt=(ModRedundant, maxcycles=1000, calcfc) geom=nocrowd
 ----------------------------------------------------------------------

 ------------------
 Phi Psi fixed scan
 ------------------
 Symbolic Z-matrix:
 Charge =  0 Multiplicity = 1

 SCF Done:  E(RB3LYP) =  -495.820785258     A.U. after   15 cycles

  Exact polarizability:   0.000   0.000   0.000   0.000   0.000   0.000
 Approx polarizability: 108.599   0.471  90.673  -8.494  -4.002 137.059

 SCF Done:  E(RB3LYP) =  -495.826433492     A.U. after   12 cycles
 SCF Done:  E(RB3LYP) =  -495.832676244     A.U. after   14 cycles
 SCF Done:  E(RB3LYP) =  -495.833738665     A.U. after   14 cycles
 SCF Done:  E(RB3LYP) =  -495.832315887     A.U. after   14 cycles
 SCF Done:  E(RB3LYP) =  -495.834048018     A.U. after   13 cycles
 SCF Done:  E(RB3LYP) =  -495.834335321     A.U. after   13 cycles
 SCF Done:  E(RB3LYP) =  -495.819170706     A.U. after   13 cycles
 SCF Done:  E(RB3LYP) =  -495.834550390     A.U. after   14 cycles
 SCF Done:  E(RB3LYP) =  -495.834785463     A.U. after   13 cycles
 SCF Done:  E(RB3LYP) =  -495.834990273     A.U. after   11 cycles
 SCF Done:  E(RB3LYP) =  -495.835015434     A.U. after   12 cycles
 SCF Done:  E(RB3LYP) =  -495.835023659     A.U. after   10 cycles
 SCF Done:  E(RB3LYP) =  -495.835026537     A.U. after   10 cycles
 SCF Done:  E(RB3LYP) =  -495.835027415     A.U. after    8 cycles
 SCF Done:  E(RB3LYP) =  -495.835028057     A.U. after    8 cycles
 SCF Done:  E(RB3LYP) =  -495.835029403     A.U. after    9 cycles
 SCF Done:  E(RB3LYP) =  -495.835032438     A.U. after   10 cycles
 SCF Done:  E(RB3LYP) =  -495.835033171     A.U. after    9 cycles
 SCF Done:  E(RB3LYP) =  -495.835033192     A.U. after    6 cycles
 Optimization completed.
    -- Stationary point found.

                         Standard orientation:
 ---------------------------------------------------------------------
 Center     Atomic      Atomic             Coordinates (Angstroms)
 Number     Number       Type             X           Y           Z
 ---------------------------------------------------------------------
      1          1           0       -3.733306   -1.516146    0.313267
      2          6           0       -2.839535   -1.520917   -0.312742
      3          1           0       -3.133344   -1.483462   -1.367732
      4          1           0       -2.305775   -2.463588   -0.139323
      5          6           0       -1.952953   -0.347950    0.097300
      6          8           0       -2.019563    0.159920    1.201883
      7          7           0       -1.114944    0.096812   -0.914337
      8          1           0       -1.077032   -0.520300   -1.716040
      9          6           0        0.115643    0.884053   -0.718822
     10          1           0        0.523142    1.023621   -1.727822
     11          6           0       -0.174609    2.259779   -0.109536
     12          1           0       -0.547406    2.138973    0.907655
     13          1           0        0.741825    2.860373   -0.086526
     14          1           0       -0.924568    2.783602   -0.710287
     15          6           0        1.154553    0.134804    0.151754
     16          8           0        1.044786    0.014581    1.361623
     17          7           0        2.209699   -0.381898   -0.557551
     18          1           0        2.258514   -0.216188   -1.552080
     19          6           0        3.299469   -1.101926    0.077511
     20          1           0        3.081581   -1.137310    1.145891
     21          1           0        3.378439   -2.125801   -0.307348
     22          1           0        4.257448   -0.591245   -0.077281
 ---------------------------------------------------------------------

 The electronic state is 1-A.
 Alpha  occ. eigenvalues --  -19.10825 -19.10450 -14.36611 -14.35893 -10.28298
 Alpha  occ. eigenvalues --  -10.28283 -10.24075 -10.21971 -10.18835 -10.17068
 Alpha  occ. eigenvalues --   -1.03170  -1.02148  -0.92348  -0.91622  -0.77645
 Alpha  occ. eigenvalues --   -0.72432  -0.70889  -0.63803  -0.59085  -0.56674
 Alpha  occ. eigenvalues --   -0.52589  -0.49721  -0.46653  -0.46002  -0.44735
 Alpha  occ. eigenvalues --   -0.43956  -0.41620  -0.40617  -0.40113  -0.39122
 Alpha  occ. eigenvalues --   -0.38848  -0.37113  -0.35949  -0.35624  -0.34732
 Alpha  occ. eigenvalues --   -0.27454  -0.25351  -0.24374  -0.22618
 Alpha virt. eigenvalues --    0.01745   0.03807   0.05082   0.08823   0.11816
 Alpha virt. eigenvalues --    0.13145   0.13836   0.15270   0.15788   0.16323
 Alpha virt. eigenvalues --    0.16871   0.17701   0.18254   0.19360   0.19936

 Mulliken atomic charges:
              1
     1  H    0.188988
     2  C   -0.548764
     3  H    0.151715
     4  H    0.177282
     5  C    0.592415
     6  O   -0.472517
     7  N   -0.587728
     8  H    0.313782
     9  C   -0.045826
    10  H    0.121820
    11  C   -0.447060
    12  H    0.219728
    13  H    0.139603
    14  H    0.146702
    15  C    0.620151
    16  O   -0.497059
    17  N   -0.601297
    18  H    0.318591
    19  C   -0.311989
    20  H    0.209061
    21  H    0.155358
    22  H    0.157044
 Sum of Mulliken atomic charges =   0.00000

 Dipole moment (field-independent basis, Debye):
    X=              2.2259    Y=             -1.5882    Z=             -5.8838  Tot=              6.4882
 Quadrupole moment (field-independent basis, Debye-Ang):
   XX=            -54.1200   YY=            -56.7493   ZZ=            -62.1487
   XY=              1.8483   XZ=              0.5303   YZ=              0.4345

 Normal termination of Gaussian 09 at Sat Feb 11 02:34:08 2017.
