 Gaussian 09, Revision A.02,
 Gaussian 09:  EM64L-G09RevA.02 11-Jun-2009

 ----------------------------------------------------------------------
 # b3lyp/6-31G* Opt=(ModRedundant, maxcycles=1000, calcfc) geom=nocrowd
 ----------------------------------------------------------------------

 ------------------
 Phi Psi fixed scan
 ------------------
 Symbolic Z-matrix:
 Charge =  0 Multiplicity = 1

 SCF Done:  E(RB3LYP) =  -495.829873624     A.U. after   15 cycles

  Exact polarizability:   0.000   0.000   0.000   0.000   0.000   0.000
 Approx polarizability: 104.779   5.695 112.527   3.361  21.887 118.480

 SCF Done:  E(RB3LYP) =  -495.836185853     A.U. after   12 cycles
 SCF Done:  E(RB3LYP) =  -495.844119355     A.U. after   13 cycles
 SCF Done:  E(RB3LYP) =  -495.846190135     A.U. after   12 cycles
 SCF Done:  E(RB3LYP) =  -495.846803982     A.U. after   13 cycles
 SCF Done:  E(RB3LYP) =  -495.833012307     A.U. after   13 cycles
 SCF Done:  E(RB3LYP) =  -495.847006028     A.U. after   13 cycles
 SCF Done:  E(RB3LYP) =  -495.847385174     A.U. after   11 cycles
 SCF Done:  E(RB3LYP) =  -495.847615640     A.U. after   12 cycles
 SCF Done:  E(RB3LYP) =  -495.847266095     A.U. after   12 cycles
 SCF Done:  E(RB3LYP) =  -495.848020183     A.U. after   12 cycles
 SCF Done:  E(RB3LYP) =  -495.848028950     A.U. after   11 cycles
 SCF Done:  E(RB3LYP) =  -495.848030995     A.U. after   10 cycles
 SCF Done:  E(RB3LYP) =  -495.848031655     A.U. after    7 cycles
 SCF Done:  E(RB3LYP) =  -495.848032723     A.U. after    9 cycles
 SCF Done:  E(RB3LYP) =  -495.848033546     A.U. after   10 cycles
 SCF Done:  E(RB3LYP) =  -495.848033751     A.U. after    8 cycles
 SCF Done:  E(RB3LYP) =  -495.848033904     A.U. after    7 cycles
 SCF Done:  E(RB3LYP) =  -495.848034010     A.U. after    7 cycles
 SCF Done:  E(RB3LYP) =  -495.848034011     A.U. after    6 cycles
 Optimization completed.
    -- Stationary point found.

                         Standard orientation:
 ---------------------------------------------------------------------
 Center     Atomic      Atomic             Coordinates (Angstroms)
 Number     Number       Type             X           Y           Z
 ---------------------------------------------------------------------
      1          1           0        3.743018   -1.174770   -0.281231
      2          6           0        3.027743   -0.994009    0.525698
      3          1           0        3.488137   -0.341804    1.273985
      4          1           0        2.805190   -1.961273    0.988891
      5          6           0        1.749379   -0.431211   -0.075273
      6          8           0        1.214138   -0.963345   -1.048216
      7          7           0        1.265344    0.699702    0.516660
      8          1           0        1.682229    0.972299    1.395488
      9          6           0       -0.047819    1.296324    0.205832
     10          1           0       -0.188977    2.078250    0.955562
     11          6           0       -0.067619    1.935580   -1.188218
     12          1           0        0.147227    1.205388   -1.970741
     13          1           0       -1.048145    2.381242   -1.384167
     14          1           0        0.689973    2.724690   -1.242456
     15          6           0       -1.211770    0.312740    0.499189
     16          8           0       -1.779596    0.348331    1.586449
     17          7           0       -1.591695   -0.500291   -0.525732
     18          1           0       -0.858968   -0.712435   -1.197042
     19          6           0       -2.615197   -1.511130   -0.305637
     20          1           0       -3.442546   -1.062225    0.246792
     21          1           0       -2.976003   -1.870304   -1.273064
     22          1           0       -2.241328   -2.364594    0.276084
 ---------------------------------------------------------------------

 The electronic state is 1-A.
 Alpha  occ. eigenvalues --  -19.12233 -19.10458 -14.37316 -14.34480 -10.29960
 Alpha  occ. eigenvalues --  -10.27538 -10.23832 -10.20731 -10.20030 -10.18275
 Alpha  occ. eigenvalues --   -1.04113  -1.02134  -0.93060  -0.90661  -0.78230
 Alpha  occ. eigenvalues --   -0.73444  -0.69621  -0.65013  -0.59265  -0.55986
 Alpha  occ. eigenvalues --   -0.52944  -0.50680  -0.46864  -0.45621  -0.44234
 Alpha  occ. eigenvalues --   -0.43936  -0.41944  -0.41370  -0.40942  -0.40108
 Alpha  occ. eigenvalues --   -0.38670  -0.37606  -0.36670  -0.35829  -0.35361
 Alpha  occ. eigenvalues --   -0.27792  -0.26234  -0.24662  -0.23070
 Alpha virt. eigenvalues --    0.01246   0.02666   0.06302   0.10943   0.11407
 Alpha virt. eigenvalues --    0.12922   0.14017   0.15571   0.16005   0.16732
 Alpha virt. eigenvalues --    0.17342   0.17781   0.18161   0.18883   0.20329

 Mulliken atomic charges:
              1
     1  H    0.190489
     2  C   -0.535111
     3  H    0.149471
     4  H    0.189373
     5  C    0.600913
     6  O   -0.528476
     7  N   -0.587663
     8  H    0.334066
     9  C   -0.051426
    10  H    0.165830
    11  C   -0.448159
    12  H    0.176035
    13  H    0.159479
    14  H    0.148754
    15  C    0.582546
    16  O   -0.521377
    17  N   -0.580817
    18  H    0.363570
    19  C   -0.302405
    20  H    0.184962
    21  H    0.151398
    22  H    0.158547
 Sum of Mulliken atomic charges =   0.00000

 Dipole moment (field-independent basis, Debye):
    X=              2.5165    Y=              0.5841    Z=             -0.1057  Tot=              2.5856
 Quadrupole moment (field-independent basis, Debye-Ang):
   XX=            -56.2206   YY=            -56.7169   ZZ=            -64.0238
   XY=              3.5451   XZ=             10.1423   YZ=             -1.0363

 Normal termination of Gaussian 09 at Sat Feb 11 02:36:33 2017.
