 Gaussian 09, Revision A.02,
 Gaussian 09:  EM64L-G09RevA.02 11-Jun-2009

 ----------------------------------------------------------------------
 # b3lyp/6-31G* Opt=(ModRedundant, maxcycles=1000, calcfc) geom=nocrowd
 ----------------------------------------------------------------------

 ------------------
 Phi Psi fixed scan
 ------------------
 Symbolic Z-matrix:
 Charge =  0 Multiplicity = 1

 SCF Done:  E(RB3LYP) =  -495.818682649     A.U. after   15 cycles

  Exact polarizability:   0.000   0.000   0.000   0.000   0.000   0.000
 Approx polarizability: 117.472  12.398 115.960   2.817 -13.481 104.720

 SCF Done:  E(RB3LYP) =  -495.829056886     A.U. after   12 cycles
 SCF Done:  E(RB3LYP) =  -495.840639975     A.U. after   13 cycles
 SCF Done:  E(RB3LYP) =  -495.843602599     A.U. after   13 cycles
 SCF Done:  E(RB3LYP) =  -495.845432271     A.U. after   12 cycles
 SCF Done:  E(RB3LYP) =  -495.846770436     A.U. after   14 cycles
 SCF Done:  E(RB3LYP) =  -495.846895962     A.U. after   12 cycles
 SCF Done:  E(RB3LYP) =  -495.847354864     A.U. after   12 cycles
 SCF Done:  E(RB3LYP) =  -495.847548996     A.U. after   12 cycles
 SCF Done:  E(RB3LYP) =  -495.847674382     A.U. after   12 cycles
 SCF Done:  E(RB3LYP) =  -495.847802695     A.U. after   11 cycles
 SCF Done:  E(RB3LYP) =  -495.847865038     A.U. after   11 cycles
 SCF Done:  E(RB3LYP) =  -495.847909230     A.U. after   11 cycles
 SCF Done:  E(RB3LYP) =  -495.847938737     A.U. after   11 cycles
 SCF Done:  E(RB3LYP) =  -495.847970837     A.U. after   12 cycles
 SCF Done:  E(RB3LYP) =  -495.847975432     A.U. after   10 cycles
 SCF Done:  E(RB3LYP) =  -495.847976505     A.U. after    8 cycles
 SCF Done:  E(RB3LYP) =  -495.847977381     A.U. after    8 cycles
 SCF Done:  E(RB3LYP) =  -495.847977976     A.U. after    9 cycles
 SCF Done:  E(RB3LYP) =  -495.847977999     A.U. after    7 cycles
 Optimization completed.
    -- Stationary point found.

                         Standard orientation:
 ---------------------------------------------------------------------
 Center     Atomic      Atomic             Coordinates (Angstroms)
 Number     Number       Type             X           Y           Z
 ---------------------------------------------------------------------
      1          1           0       -3.931688   -0.484720    0.386954
      2          6           0       -3.217963   -0.734568   -0.404531
      3          1           0       -3.521020   -0.228644   -1.326216
      4          1           0       -3.267922   -1.816693   -0.557123
      5          6           0       -1.819939   -0.372785    0.073917
      6          8           0       -1.331662   -0.911529    1.070393
      7          7           0       -1.167082    0.563119   -0.664657
      8          1           0       -1.647082    0.906820   -1.483913
      9          6           0        0.131216    1.202028   -0.380484
     10          1           0        0.342467    1.822257   -1.255521
     11          6           0        0.041305    2.115601    0.856701
     12          1           0       -0.212494    1.527145    1.743190
     13          1           0        1.005914    2.603737    1.016586
     14          1           0       -0.728070    2.881457    0.712693
     15          6           0        1.394595    0.312476   -0.259504
     16          8           0        2.484334    0.869535   -0.357705
     17          7           0        1.241671   -1.027681   -0.109829
     18          1           0        0.366704   -1.331930    0.312161
     19          6           0        2.417717   -1.864066    0.081396
     20          1           0        3.178956   -1.584598   -0.649448
     21          1           0        2.852451   -1.749142    1.083325
     22          1           0        2.136696   -2.909919   -0.067764
 ---------------------------------------------------------------------

 The electronic state is 1-A.
 Alpha  occ. eigenvalues --  -19.12412 -19.10120 -14.37762 -14.34249 -10.30365
 Alpha  occ. eigenvalues --  -10.27582 -10.24227 -10.20612 -10.20420 -10.18069
 Alpha  occ. eigenvalues --   -1.04410  -1.02038  -0.93515  -0.90428  -0.78373
 Alpha  occ. eigenvalues --   -0.73604  -0.69835  -0.64889  -0.59583  -0.56162
 Alpha  occ. eigenvalues --   -0.53400  -0.50643  -0.46850  -0.46004  -0.44113
 Alpha  occ. eigenvalues --   -0.44007  -0.42427  -0.41309  -0.41215  -0.40262
 Alpha  occ. eigenvalues --   -0.38445  -0.38161  -0.36390  -0.36150  -0.34159
 Alpha  occ. eigenvalues --   -0.27641  -0.26534  -0.24582  -0.23234
 Alpha virt. eigenvalues --    0.00896   0.03295   0.05397   0.11204   0.11813
 Alpha virt. eigenvalues --    0.13161   0.14101   0.16135   0.16344   0.16503
 Alpha virt. eigenvalues --    0.17294   0.17587   0.17995   0.18749   0.20585

 Mulliken atomic charges:
              1
     1  H    0.192049
     2  C   -0.532049
     3  H    0.146988
     4  H    0.189298
     5  C    0.597612
     6  O   -0.534109
     7  N   -0.590139
     8  H    0.332217
     9  C   -0.045017
    10  H    0.167794
    11  C   -0.449380
    12  H    0.177438
    13  H    0.180874
    14  H    0.141107
    15  C    0.596098
    16  O   -0.527362
    17  N   -0.607654
    18  H    0.371693
    19  C   -0.300877
    20  H    0.182741
    21  H    0.161455
    22  H    0.149222
 Sum of Mulliken atomic charges =   0.00000

 Dipole moment (field-independent basis, Debye):
    X=             -3.8067    Y=             -0.1163    Z=             -1.9932  Tot=              4.2985
 Quadrupole moment (field-independent basis, Debye-Ang):
   XX=            -61.1435   YY=            -57.0812   ZZ=            -60.0301
   XY=             -7.1122   XZ=              6.3875   YZ=              0.4225

 Normal termination of Gaussian 09 at Sat Feb 11 02:51:46 2017.
