 Gaussian 09, Revision A.02,
 Gaussian 09:  EM64L-G09RevA.02 11-Jun-2009

 ----------------------------------------------------------------------
 # b3lyp/6-31G* Opt=(ModRedundant, maxcycles=1000, calcfc) geom=nocrowd
 ----------------------------------------------------------------------

 ------------------
 Phi Psi fixed scan
 ------------------
 Symbolic Z-matrix:
 Charge =  0 Multiplicity = 1

 SCF Done:  E(RB3LYP) =  -495.815177749     A.U. after   15 cycles

  Exact polarizability:   0.000   0.000   0.000   0.000   0.000   0.000
 Approx polarizability: 116.065   9.114 102.197  -6.535 -19.077 118.368

 SCF Done:  E(RB3LYP) =  -495.821735204     A.U. after   13 cycles
 SCF Done:  E(RB3LYP) =  -495.830052994     A.U. after   13 cycles
 SCF Done:  E(RB3LYP) =  -495.832950259     A.U. after   13 cycles
 SCF Done:  E(RB3LYP) =  -495.833682583     A.U. after   13 cycles
 SCF Done:  E(RB3LYP) =  -495.833246081     A.U. after   15 cycles
 SCF Done:  E(RB3LYP) =  -495.834483491     A.U. after   13 cycles
 SCF Done:  E(RB3LYP) =  -495.835105318     A.U. after   13 cycles
 SCF Done:  E(RB3LYP) =  -495.835532257     A.U. after   13 cycles
 SCF Done:  E(RB3LYP) =  -495.835918284     A.U. after   13 cycles
 SCF Done:  E(RB3LYP) =  -495.836315116     A.U. after   12 cycles
 SCF Done:  E(RB3LYP) =  -495.836397245     A.U. after   11 cycles
 SCF Done:  E(RB3LYP) =  -495.836417930     A.U. after   11 cycles
 SCF Done:  E(RB3LYP) =  -495.836426846     A.U. after   10 cycles
 SCF Done:  E(RB3LYP) =  -495.836428486     A.U. after    9 cycles
 SCF Done:  E(RB3LYP) =  -495.836428765     A.U. after    8 cycles
 SCF Done:  E(RB3LYP) =  -495.836428837     A.U. after    7 cycles
 Optimization completed.
    -- Stationary point found.

                         Standard orientation:
 ---------------------------------------------------------------------
 Center     Atomic      Atomic             Coordinates (Angstroms)
 Number     Number       Type             X           Y           Z
 ---------------------------------------------------------------------
      1          1           0       -3.771055   -1.430498    0.174878
      2          6           0       -2.895683   -1.338518   -0.469827
      3          1           0       -3.218416   -1.172220   -1.504027
      4          1           0       -2.336508   -2.281553   -0.432856
      5          6           0       -2.012955   -0.214113    0.056702
      6          8           0       -2.094275    0.194963    1.200468
      7          7           0       -1.168437    0.337472   -0.906418
      8          1           0       -1.143750   -0.209863   -1.759728
      9          6           0        0.140207    0.921172   -0.594892
     10          1           0        0.558119    1.224932   -1.563101
     11          6           0        0.026849    2.170139    0.295143
     12          1           0       -0.383140    1.900074    1.268395
     13          1           0        1.013766    2.628518    0.427897
     14          1           0       -0.638595    2.900322   -0.175842
     15          6           0        1.093010   -0.111289    0.056237
     16          8           0        0.735187   -0.900400    0.917325
     17          7           0        2.362702   -0.095604   -0.461136
     18          1           0        2.605766    0.628607   -1.122287
     19          6           0        3.435766   -0.905635    0.090771
     20          1           0        2.976349   -1.660716    0.730079
     21          1           0        3.995210   -1.399609   -0.710891
     22          1           0        4.131945   -0.308109    0.693208
 ---------------------------------------------------------------------

 The electronic state is 1-A.
 Alpha  occ. eigenvalues --  -19.11183 -19.10205 -14.36726 -14.35298 -10.28500
 Alpha  occ. eigenvalues --  -10.27979 -10.24065 -10.22097 -10.18359 -10.17685
 Alpha  occ. eigenvalues --   -1.03431  -1.01884  -0.92324  -0.91557  -0.77648
 Alpha  occ. eigenvalues --   -0.72309  -0.70778  -0.63960  -0.59008  -0.56325
 Alpha  occ. eigenvalues --   -0.52401  -0.49673  -0.46653  -0.45677  -0.44832
 Alpha  occ. eigenvalues --   -0.43614  -0.41816  -0.40680  -0.40336  -0.39211
 Alpha  occ. eigenvalues --   -0.38772  -0.37400  -0.36715  -0.35290  -0.34303
 Alpha  occ. eigenvalues --   -0.27353  -0.25550  -0.24257  -0.22735
 Alpha virt. eigenvalues --    0.01572   0.04249   0.05510   0.08473   0.11775
 Alpha virt. eigenvalues --    0.13294   0.14439   0.15308   0.15902   0.16015
 Alpha virt. eigenvalues --    0.16847   0.17611   0.18237   0.19168   0.19815

 Mulliken atomic charges:
              1
     1  H    0.185798
     2  C   -0.552529
     3  H    0.151750
     4  H    0.183449
     5  C    0.605152
     6  O   -0.480878
     7  N   -0.578044
     8  H    0.315455
     9  C   -0.060824
    10  H    0.125735
    11  C   -0.444357
    12  H    0.214636
    13  H    0.132004
    14  H    0.156694
    15  C    0.605457
    16  O   -0.499268
    17  N   -0.593846
    18  H    0.323356
    19  C   -0.311223
    20  H    0.206354
    21  H    0.155334
    22  H    0.159796
 Sum of Mulliken atomic charges =   0.00000

 Dipole moment (field-independent basis, Debye):
    X=              3.1264    Y=              0.4865    Z=             -4.8767  Tot=              5.8132
 Quadrupole moment (field-independent basis, Debye-Ang):
   XX=            -52.0196   YY=            -58.5943   ZZ=            -61.3503
   XY=              4.5208   XZ=              2.7759   YZ=              1.2023

 Normal termination of Gaussian 09 at Sat Feb 11 02:32:08 2017.
