 Gaussian 09, Revision A.02,
 Gaussian 09:  EM64L-G09RevA.02 11-Jun-2009

 ----------------------------------------------------------------------
 # b3lyp/6-31G* Opt=(ModRedundant, maxcycles=1000, calcfc) geom=nocrowd
 ----------------------------------------------------------------------

 ------------------
 Phi Psi fixed scan
 ------------------
 Symbolic Z-matrix:
 Charge =  0 Multiplicity = 1

 SCF Done:  E(RB3LYP) =  -495.809598247     A.U. after   15 cycles

  Exact polarizability:   0.000   0.000   0.000   0.000   0.000   0.000
 Approx polarizability: 118.448   8.286 118.887  -3.740 -21.264 103.598

 SCF Done:  E(RB3LYP) =  -495.821592159     A.U. after   12 cycles
 SCF Done:  E(RB3LYP) =  -495.837145268     A.U. after   13 cycles
 SCF Done:  E(RB3LYP) =  -495.844437498     A.U. after   13 cycles
 SCF Done:  E(RB3LYP) =  -495.846649697     A.U. after   12 cycles
 SCF Done:  E(RB3LYP) =  -495.848132030     A.U. after   14 cycles
 SCF Done:  E(RB3LYP) =  -495.848130051     A.U. after   14 cycles
 SCF Done:  E(RB3LYP) =  -495.848202859     A.U. after   12 cycles
 SCF Done:  E(RB3LYP) =  -495.848650962     A.U. after   11 cycles
 SCF Done:  E(RB3LYP) =  -495.849048067     A.U. after   12 cycles
 SCF Done:  E(RB3LYP) =  -495.849741613     A.U. after   10 cycles
 SCF Done:  E(RB3LYP) =  -495.849741891     A.U. after    9 cycles
 SCF Done:  E(RB3LYP) =  -495.849742361     A.U. after   10 cycles
 SCF Done:  E(RB3LYP) =  -495.849742745     A.U. after    7 cycles
 SCF Done:  E(RB3LYP) =  -495.849743867     A.U. after   10 cycles
 SCF Done:  E(RB3LYP) =  -495.849745728     A.U. after   10 cycles
 SCF Done:  E(RB3LYP) =  -495.849746712     A.U. after   10 cycles
 SCF Done:  E(RB3LYP) =  -495.849746704     A.U. after    7 cycles
 SCF Done:  E(RB3LYP) =  -495.849746735     A.U. after    7 cycles
 SCF Done:  E(RB3LYP) =  -495.849746779     A.U. after    7 cycles
 Optimization completed.
    -- Stationary point found.

                         Standard orientation:
 ---------------------------------------------------------------------
 Center     Atomic      Atomic             Coordinates (Angstroms)
 Number     Number       Type             X           Y           Z
 ---------------------------------------------------------------------
      1          1           0       -3.101885   -1.737714   -0.997534
      2          6           0       -3.172086   -0.727046   -0.582189
      3          1           0       -3.918077   -0.754983    0.217105
      4          1           0       -3.513891   -0.044351   -1.365985
      5          6           0       -1.828512   -0.353231    0.025173
      6          8           0       -1.385030   -0.972370    0.996532
      7          7           0       -1.191638    0.695872   -0.560239
      8          1           0       -1.616507    1.060963   -1.400627
      9          6           0        0.135511    1.257480   -0.235728
     10          1           0        0.317980    2.020894   -0.994113
     11          6           0        0.129324    1.926774    1.151145
     12          1           0       -0.092836    1.194438    1.931437
     13          1           0        1.110016    2.370551    1.348750
     14          1           0       -0.627797    2.717018    1.188489
     15          6           0        1.369043    0.325517   -0.360302
     16          8           0        2.390731    0.777342   -0.873086
     17          7           0        1.271440   -0.923430    0.148545
     18          1           0        0.419546   -1.173016    0.648501
     19          6           0        2.414617   -1.819407    0.149454
     20          1           0        2.957824   -1.717796   -0.792937
     21          1           0        3.112445   -1.595185    0.967103
     22          1           0        2.061578   -2.848205    0.258786
 ---------------------------------------------------------------------

 The electronic state is 1-A.
 Alpha  occ. eigenvalues --  -19.12621 -19.09824 -14.37843 -14.34095 -10.30476
 Alpha  occ. eigenvalues --  -10.27317 -10.24080 -10.20671 -10.20408 -10.18362
 Alpha  occ. eigenvalues --   -1.04476  -1.01706  -0.93546  -0.90299  -0.78484
 Alpha  occ. eigenvalues --   -0.73688  -0.69816  -0.65079  -0.59481  -0.56280
 Alpha  occ. eigenvalues --   -0.53467  -0.50786  -0.46939  -0.45827  -0.44139
 Alpha  occ. eigenvalues --   -0.43744  -0.42411  -0.41374  -0.41362  -0.40522
 Alpha  occ. eigenvalues --   -0.38673  -0.37799  -0.36773  -0.36007  -0.34480
 Alpha  occ. eigenvalues --   -0.27990  -0.26458  -0.24005  -0.23099
 Alpha virt. eigenvalues --    0.00838   0.03808   0.05341   0.11206   0.11858
 Alpha virt. eigenvalues --    0.13014   0.13938   0.15845   0.16414   0.16916
 Alpha virt. eigenvalues --    0.17185   0.17675   0.17925   0.18684   0.19932

 Mulliken atomic charges:
              1
     1  H    0.189522
     2  C   -0.532387
     3  H    0.192768
     4  H    0.148290
     5  C    0.605609
     6  O   -0.535679
     7  N   -0.591589
     8  H    0.334060
     9  C   -0.052496
    10  H    0.166859
    11  C   -0.451070
    12  H    0.179614
    13  H    0.170401
    14  H    0.148931
    15  C    0.588564
    16  O   -0.528753
    17  N   -0.609412
    18  H    0.381292
    19  C   -0.297478
    20  H    0.181947
    21  H    0.160400
    22  H    0.150607
 Sum of Mulliken atomic charges =   0.00000

 Dipole moment (field-independent basis, Debye):
    X=             -3.5808    Y=              0.0926    Z=             -1.0302  Tot=              3.7273
 Quadrupole moment (field-independent basis, Debye-Ang):
   XX=            -61.3122   YY=            -56.9311   ZZ=            -60.6516
   XY=             -6.8229   XZ=              9.1735   YZ=              1.5616

 Normal termination of Gaussian 09 at Sat Feb 11 02:53:40 2017.
