 Gaussian 09, Revision A.02,
 Gaussian 09:  EM64L-G09RevA.02 11-Jun-2009

 ----------------------------------------------------------------------
 # b3lyp/6-31G* Opt=(ModRedundant, maxcycles=1000, calcfc) geom=nocrowd
 ----------------------------------------------------------------------

 ------------------
 Phi Psi fixed scan
 ------------------
 Symbolic Z-matrix:
 Charge =  0 Multiplicity = 1

 SCF Done:  E(RB3LYP) =  -495.816517393     A.U. after   15 cycles

  Exact polarizability:   0.000   0.000   0.000   0.000   0.000   0.000
 Approx polarizability: 113.043   4.969  95.093  -9.016 -15.102 128.769

 SCF Done:  E(RB3LYP) =  -495.822847337     A.U. after   13 cycles
 SCF Done:  E(RB3LYP) =  -495.830454416     A.U. after   14 cycles
 SCF Done:  E(RB3LYP) =  -495.832897704     A.U. after   15 cycles
 SCF Done:  E(RB3LYP) =  -495.831763135     A.U. after   14 cycles
 SCF Done:  E(RB3LYP) =  -495.833687681     A.U. after   13 cycles
 SCF Done:  E(RB3LYP) =  -495.832325104     A.U. after   13 cycles
 SCF Done:  E(RB3LYP) =  -495.833966020     A.U. after   13 cycles
 SCF Done:  E(RB3LYP) =  -495.834315061     A.U. after   12 cycles
 SCF Done:  E(RB3LYP) =  -495.834778243     A.U. after   13 cycles
 SCF Done:  E(RB3LYP) =  -495.834891931     A.U. after   13 cycles
 SCF Done:  E(RB3LYP) =  -495.835059317     A.U. after   12 cycles
 SCF Done:  E(RB3LYP) =  -495.829747660     A.U. after   13 cycles
 SCF Done:  E(RB3LYP) =  -495.835117618     A.U. after   13 cycles
 SCF Done:  E(RB3LYP) =  -495.835179302     A.U. after   12 cycles
 SCF Done:  E(RB3LYP) =  -495.835183885     A.U. after   11 cycles
 SCF Done:  E(RB3LYP) =  -495.835186993     A.U. after   11 cycles
 SCF Done:  E(RB3LYP) =  -495.835187163     A.U. after    8 cycles
 Optimization completed.
    -- Stationary point found.

                         Standard orientation:
 ---------------------------------------------------------------------
 Center     Atomic      Atomic             Coordinates (Angstroms)
 Number     Number       Type             X           Y           Z
 ---------------------------------------------------------------------
      1          1           0       -3.749945   -1.502407    0.202375
      2          6           0       -2.863676   -1.439711   -0.430820
      3          1           0       -3.169501   -1.327123   -1.477264
      4          1           0       -2.305290   -2.379484   -0.337520
      5          6           0       -1.997388   -0.282049    0.054871
      6          8           0       -2.102149    0.180426    1.175805
      7          7           0       -1.139535    0.220046   -0.919241
      8          1           0       -1.091278   -0.367992   -1.743362
      9          6           0        0.133625    0.903579   -0.643617
     10          1           0        0.549924    1.136716   -1.631703
     11          6           0       -0.072503    2.218025    0.122425
     12          1           0       -0.474034    2.008066    1.113831
     13          1           0        0.881780    2.748324    0.221230
     14          1           0       -0.776251    2.857853   -0.419035
     15          6           0        1.125474    0.002414    0.130259
     16          8           0        0.873606   -0.476968    1.224788
     17          7           0        2.305335   -0.225816   -0.531571
     18          1           0        2.470130    0.244345   -1.409736
     19          6           0        3.396327   -0.980511    0.060653
     20          1           0        3.022298   -1.411725    0.990305
     21          1           0        3.722218   -1.786375   -0.606829
     22          1           0        4.256536   -0.337943    0.286018
 ---------------------------------------------------------------------

 The electronic state is 1-A.
 Alpha  occ. eigenvalues --  -19.10936 -19.10351 -14.36700 -14.35592 -10.28393
 Alpha  occ. eigenvalues --  -10.28135 -10.24088 -10.22037 -10.18612 -10.17366
 Alpha  occ. eigenvalues --   -1.03268  -1.02021  -0.92298  -0.91619  -0.77653
 Alpha  occ. eigenvalues --   -0.72376  -0.70845  -0.63867  -0.59051  -0.56471
 Alpha  occ. eigenvalues --   -0.52461  -0.49684  -0.46691  -0.45867  -0.44814
 Alpha  occ. eigenvalues --   -0.43756  -0.41676  -0.40586  -0.40279  -0.39120
 Alpha  occ. eigenvalues --   -0.38867  -0.37261  -0.36289  -0.35405  -0.34549
 Alpha  occ. eigenvalues --   -0.27456  -0.25475  -0.24306  -0.22590
 Alpha virt. eigenvalues --    0.01590   0.04139   0.05261   0.08649   0.11796
 Alpha virt. eigenvalues --    0.13276   0.14172   0.15330   0.15869   0.16269
 Alpha virt. eigenvalues --    0.16582   0.17760   0.18045   0.19223   0.20036

 Mulliken atomic charges:
              1
     1  H    0.187727
     2  C   -0.550768
     3  H    0.152876
     4  H    0.178808
     5  C    0.597634
     6  O   -0.473952
     7  N   -0.582754
     8  H    0.314524
     9  C   -0.049905
    10  H    0.120657
    11  C   -0.446915
    12  H    0.218039
    13  H    0.136350
    14  H    0.152094
    15  C    0.611235
    16  O   -0.498693
    17  N   -0.598448
    18  H    0.321589
    19  C   -0.312197
    20  H    0.208175
    21  H    0.155402
    22  H    0.158521
 Sum of Mulliken atomic charges =   0.00000

 Dipole moment (field-independent basis, Debye):
    X=              2.8151    Y=             -0.4639    Z=             -5.5241  Tot=              6.2174
 Quadrupole moment (field-independent basis, Debye-Ang):
   XX=            -53.0458   YY=            -57.5194   ZZ=            -61.8328
   XY=              3.4276   XZ=              1.4137   YZ=              1.0750

 Normal termination of Gaussian 09 at Sat Feb 11 02:28:46 2017.
