 Gaussian 09, Revision A.02,
 Gaussian 09:  EM64L-G09RevA.02 11-Jun-2009

 ----------------------------------------------------------------------
 # b3lyp/6-31G* Opt=(ModRedundant, maxcycles=1000, calcfc) geom=nocrowd
 ----------------------------------------------------------------------

 ------------------
 Phi Psi fixed scan
 ------------------
 Symbolic Z-matrix:
 Charge =  0 Multiplicity = 1

 SCF Done:  E(RB3LYP) =  -495.824412890     A.U. after   15 cycles

  Exact polarizability:   0.000   0.000   0.000   0.000   0.000   0.000
 Approx polarizability: 117.902  12.913 109.829   2.021 -14.138 106.828

 SCF Done:  E(RB3LYP) =  -495.829158223     A.U. after   11 cycles
 SCF Done:  E(RB3LYP) =  -495.835290001     A.U. after   12 cycles
 SCF Done:  E(RB3LYP) =  -495.837226924     A.U. after   12 cycles
 SCF Done:  E(RB3LYP) =  -495.838166228     A.U. after   12 cycles
 SCF Done:  E(RB3LYP) =  -495.839018951     A.U. after   13 cycles
 SCF Done:  E(RB3LYP) =  -495.839194087     A.U. after   15 cycles
 SCF Done:  E(RB3LYP) =  -495.839997778     A.U. after   13 cycles
 SCF Done:  E(RB3LYP) =  -495.840392872     A.U. after   12 cycles
 SCF Done:  E(RB3LYP) =  -495.832397240     A.U. after   14 cycles
 SCF Done:  E(RB3LYP) =  -495.840540336     A.U. after   11 cycles
 SCF Done:  E(RB3LYP) =  -495.840562091     A.U. after   10 cycles
 SCF Done:  E(RB3LYP) =  -495.840604709     A.U. after   11 cycles
 SCF Done:  E(RB3LYP) =  -495.840621027     A.U. after   10 cycles
 SCF Done:  E(RB3LYP) =  -495.840635002     A.U. after   10 cycles
 SCF Done:  E(RB3LYP) =  -495.840649067     A.U. after   11 cycles
 SCF Done:  E(RB3LYP) =  -495.840663408     A.U. after   10 cycles
 SCF Done:  E(RB3LYP) =  -495.840667226     A.U. after   10 cycles
 SCF Done:  E(RB3LYP) =  -495.840667422     A.U. after    7 cycles
 SCF Done:  E(RB3LYP) =  -495.840667436     A.U. after    7 cycles
 Optimization completed.
    -- Stationary point found.

                         Standard orientation:
 ---------------------------------------------------------------------
 Center     Atomic      Atomic             Coordinates (Angstroms)
 Number     Number       Type             X           Y           Z
 ---------------------------------------------------------------------
      1          1           0       -3.817948   -1.202421    0.449085
      2          6           0       -3.031860   -1.132565   -0.304488
      3          1           0       -3.470917   -0.854156   -1.269061
      4          1           0       -2.561894   -2.117686   -0.410526
      5          6           0       -1.979751   -0.141012    0.167816
      6          8           0       -1.837295    0.152690    1.342928
      7          7           0       -1.236146    0.434158   -0.857625
      8          1           0       -1.328080   -0.060797   -1.737218
      9          6           0        0.121064    0.919385   -0.627387
     10          1           0        0.492998    1.238404   -1.609931
     11          6           0        0.161305    2.138965    0.311274
     12          1           0       -0.156178    1.857859    1.315294
     13          1           0        1.169673    2.566931    0.354896
     14          1           0       -0.517867    2.909741   -0.065670
     15          6           0        1.045257   -0.234793   -0.149070
     16          8           0        0.616789   -1.335061    0.168381
     17          7           0        2.380592    0.053528   -0.221973
     18          1           0        2.656130    1.006214   -0.414432
     19          6           0        3.403295   -0.872645    0.235673
     20          1           0        2.936345   -1.853551    0.331423
     21          1           0        4.221020   -0.928834   -0.490786
     22          1           0        3.813777   -0.580548    1.210732
 ---------------------------------------------------------------------

 The electronic state is 1-A.
 Alpha  occ. eigenvalues --  -19.11374 -19.10163 -14.36491 -14.35006 -10.28517
 Alpha  occ. eigenvalues --  -10.27837 -10.23955 -10.21989 -10.18167 -10.18074
 Alpha  occ. eigenvalues --   -1.03536  -1.01824  -0.92215  -0.91473  -0.77632
 Alpha  occ. eigenvalues --   -0.72227  -0.70532  -0.64273  -0.58847  -0.56208
 Alpha  occ. eigenvalues --   -0.52495  -0.49760  -0.46391  -0.45297  -0.44635
 Alpha  occ. eigenvalues --   -0.43572  -0.42092  -0.41038  -0.40124  -0.39216
 Alpha  occ. eigenvalues --   -0.38700  -0.37539  -0.37382  -0.35149  -0.34115
 Alpha  occ. eigenvalues --   -0.26725  -0.25359  -0.24568  -0.23179
 Alpha virt. eigenvalues --    0.02356   0.03652   0.05892   0.08316   0.11817
 Alpha virt. eigenvalues --    0.13100   0.15165   0.15533   0.15838   0.16297
 Alpha virt. eigenvalues --    0.16875   0.17261   0.18804   0.19324   0.19801

 Mulliken atomic charges:
              1
     1  H    0.182829
     2  C   -0.553945
     3  H    0.151129
     4  H    0.190559
     5  C    0.608707
     6  O   -0.494815
     7  N   -0.570518
     8  H    0.319914
     9  C   -0.075307
    10  H    0.146059
    11  C   -0.445520
    12  H    0.209199
    13  H    0.123097
    14  H    0.161009
    15  C    0.613927
    16  O   -0.509422
    17  N   -0.592680
    18  H    0.324984
    19  C   -0.309426
    20  H    0.204593
    21  H    0.154639
    22  H    0.160989
 Sum of Mulliken atomic charges =   0.00000

 Dipole moment (field-independent basis, Debye):
    X=              2.7323    Y=              1.5078    Z=             -3.5787  Tot=              4.7482
 Quadrupole moment (field-independent basis, Debye-Ang):
   XX=            -49.8833   YY=            -60.1475   ZZ=            -61.0641
   XY=              4.8602   XZ=              5.0039   YZ=              0.2388

 Normal termination of Gaussian 09 at Sat Feb 11 02:30:03 2017.
