 Gaussian 09, Revision A.02,
 Gaussian 09:  EM64L-G09RevA.02 11-Jun-2009

 ----------------------------------------------------------------------
 # b3lyp/6-31G* Opt=(ModRedundant, maxcycles=1000, calcfc) geom=nocrowd
 ----------------------------------------------------------------------

 ------------------
 Phi Psi fixed scan
 ------------------
 Symbolic Z-matrix:
 Charge =  0 Multiplicity = 1

 SCF Done:  E(RB3LYP) =  -495.832169875     A.U. after   15 cycles

  Exact polarizability:   0.000   0.000   0.000   0.000   0.000   0.000
 Approx polarizability: 100.082   2.708 106.019   5.378  13.986 128.647

 SCF Done:  E(RB3LYP) =  -495.836039969     A.U. after   12 cycles
 SCF Done:  E(RB3LYP) =  -495.840363996     A.U. after   12 cycles
 SCF Done:  E(RB3LYP) =  -495.841583258     A.U. after   13 cycles
 SCF Done:  E(RB3LYP) =  -495.839596010     A.U. after   13 cycles
 SCF Done:  E(RB3LYP) =  -495.841661784     A.U. after   13 cycles
 SCF Done:  E(RB3LYP) =  -495.842058366     A.U. after   12 cycles
 SCF Done:  E(RB3LYP) =  -495.841344681     A.U. after   14 cycles
 SCF Done:  E(RB3LYP) =  -495.842404179     A.U. after   13 cycles
 SCF Done:  E(RB3LYP) =  -495.842598310     A.U. after   12 cycles
 SCF Done:  E(RB3LYP) =  -495.842638027     A.U. after   10 cycles
 SCF Done:  E(RB3LYP) =  -495.842647111     A.U. after   10 cycles
 SCF Done:  E(RB3LYP) =  -495.842655938     A.U. after   11 cycles
 SCF Done:  E(RB3LYP) =  -495.842661081     A.U. after   10 cycles
 SCF Done:  E(RB3LYP) =  -495.842661962     A.U. after   10 cycles
 SCF Done:  E(RB3LYP) =  -495.842662270     A.U. after    8 cycles
 SCF Done:  E(RB3LYP) =  -495.842662468     A.U. after    7 cycles
 SCF Done:  E(RB3LYP) =  -495.842662888     A.U. after    8 cycles
 SCF Done:  E(RB3LYP) =  -495.842663306     A.U. after    9 cycles
 SCF Done:  E(RB3LYP) =  -495.842663341     A.U. after    7 cycles
 Optimization completed.
    -- Stationary point found.

                         Standard orientation:
 ---------------------------------------------------------------------
 Center     Atomic      Atomic             Coordinates (Angstroms)
 Number     Number       Type             X           Y           Z
 ---------------------------------------------------------------------
      1          1           0       -3.134397   -2.080192    0.542664
      2          6           0       -3.042747   -1.185790   -0.077237
      3          1           0       -3.856800   -0.504883    0.198279
      4          1           0       -3.162421   -1.459125   -1.130800
      5          6           0       -1.707484   -0.518501    0.224989
      6          8           0       -1.211480   -0.518805    1.341115
      7          7           0       -1.090808    0.071744   -0.856982
      8          1           0       -1.653174    0.182432   -1.691098
      9          6           0        0.026469    1.020772   -0.708129
     10          1           0        0.360278    1.236806   -1.730206
     11          6           0       -0.382717    2.320351   -0.013123
     12          1           0       -0.703393    2.113578    1.009737
     13          1           0        0.465962    3.007676    0.032223
     14          1           0       -1.199985    2.801497   -0.562290
     15          6           0        1.230943    0.362275    0.012567
     16          8           0        1.773868    0.875428    0.977051
     17          7           0        1.736173   -0.728886   -0.646722
     18          1           0        1.100369   -1.198022   -1.279445
     19          6           0        2.797511   -1.529289   -0.055766
     20          1           0        3.452999   -0.859191    0.502006
     21          1           0        2.411951   -2.289670    0.636620
     22          1           0        3.370098   -2.022795   -0.846897
 ---------------------------------------------------------------------

 The electronic state is 1-A.
 Alpha  occ. eigenvalues --  -19.11587 -19.10405 -14.36863 -14.35145 -10.29293
 Alpha  occ. eigenvalues --  -10.27732 -10.23797 -10.20989 -10.19837 -10.17230
 Alpha  occ. eigenvalues --   -1.03724  -1.02230  -0.92910  -0.90809  -0.77735
 Alpha  occ. eigenvalues --   -0.72996  -0.70347  -0.63837  -0.59319  -0.56433
 Alpha  occ. eigenvalues --   -0.52208  -0.49863  -0.46692  -0.45834  -0.44805
 Alpha  occ. eigenvalues --   -0.43761  -0.41625  -0.41382  -0.40134  -0.39935
 Alpha  occ. eigenvalues --   -0.38300  -0.36920  -0.36599  -0.35572  -0.35074
 Alpha  occ. eigenvalues --   -0.27159  -0.25030  -0.24581  -0.23753
 Alpha virt. eigenvalues --    0.01905   0.02484   0.06625   0.09827   0.11527
 Alpha virt. eigenvalues --    0.13099   0.13623   0.14673   0.15854   0.16172
 Alpha virt. eigenvalues --    0.17187   0.17778   0.18186   0.18286   0.19935

 Mulliken atomic charges:
              1
     1  H    0.190963
     2  C   -0.544512
     3  H    0.184781
     4  H    0.148558
     5  C    0.588324
     6  O   -0.484588
     7  N   -0.603593
     8  H    0.321245
     9  C   -0.067380
    10  H    0.153698
    11  C   -0.435880
    12  H    0.193889
    13  H    0.165708
    14  H    0.123966
    15  C    0.634329
    16  O   -0.508683
    17  N   -0.584074
    18  H    0.322541
    19  C   -0.306541
    20  H    0.196438
    21  H    0.162625
    22  H    0.148189
 Sum of Mulliken atomic charges =   0.00000

 Dipole moment (field-independent basis, Debye):
    X=             -2.3352    Y=             -1.4446    Z=             -5.2199  Tot=              5.8981
 Quadrupole moment (field-independent basis, Debye-Ang):
   XX=            -54.7105   YY=            -56.9096   ZZ=            -62.2081
   XY=             -4.1888   XZ=              0.9851   YZ=             -0.5943

 Normal termination of Gaussian 09 at Sat Feb 11 02:43:14 2017.
