 Gaussian 09, Revision A.02,
 Gaussian 09:  EM64L-G09RevA.02 11-Jun-2009

 ----------------------------------------------------------------------
 # b3lyp/6-31G* Opt=(ModRedundant, maxcycles=1000, calcfc) geom=nocrowd
 ----------------------------------------------------------------------

 ------------------
 Phi Psi fixed scan
 ------------------
 Symbolic Z-matrix:
 Charge =  0 Multiplicity = 1

 SCF Done:  E(RB3LYP) =  -495.829779372     A.U. after   14 cycles

  Exact polarizability:   0.000   0.000   0.000   0.000   0.000   0.000
 Approx polarizability: 114.618   8.568 108.235  14.279  -1.067 112.059

 SCF Done:  E(RB3LYP) =  -495.835058506     A.U. after   12 cycles
 SCF Done:  E(RB3LYP) =  -495.841409792     A.U. after   13 cycles
 SCF Done:  E(RB3LYP) =  -495.843251436     A.U. after   15 cycles
 SCF Done:  E(RB3LYP) =  -495.841248990     A.U. after   14 cycles
 SCF Done:  E(RB3LYP) =  -495.843463716     A.U. after   13 cycles
 SCF Done:  E(RB3LYP) =  -495.843860755     A.U. after   12 cycles
 SCF Done:  E(RB3LYP) =  -495.842162939     A.U. after   13 cycles
 SCF Done:  E(RB3LYP) =  -495.844139427     A.U. after   13 cycles
 SCF Done:  E(RB3LYP) =  -495.844368351     A.U. after   12 cycles
 SCF Done:  E(RB3LYP) =  -495.844455963     A.U. after   11 cycles
 SCF Done:  E(RB3LYP) =  -495.844490888     A.U. after   11 cycles
 SCF Done:  E(RB3LYP) =  -495.844507920     A.U. after   10 cycles
 SCF Done:  E(RB3LYP) =  -495.844517892     A.U. after   10 cycles
 SCF Done:  E(RB3LYP) =  -495.844524167     A.U. after   10 cycles
 SCF Done:  E(RB3LYP) =  -495.844524940     A.U. after   10 cycles
 SCF Done:  E(RB3LYP) =  -495.844524997     A.U. after    7 cycles
 SCF Done:  E(RB3LYP) =  -495.844525056     A.U. after    7 cycles
 SCF Done:  E(RB3LYP) =  -495.844525152     A.U. after    7 cycles
 SCF Done:  E(RB3LYP) =  -495.844525229     A.U. after    7 cycles
 Optimization completed.
    -- Stationary point found.

                         Standard orientation:
 ---------------------------------------------------------------------
 Center     Atomic      Atomic             Coordinates (Angstroms)
 Number     Number       Type             X           Y           Z
 ---------------------------------------------------------------------
      1          1           0       -3.688604   -1.075220    0.981969
      2          6           0       -3.088521   -1.033840    0.070994
      3          1           0       -3.692881   -0.634606   -0.750054
      4          1           0       -2.787409   -2.056381   -0.187074
      5          6           0       -1.841750   -0.206668    0.337963
      6          8           0       -1.335773   -0.117367    1.449186
      7          7           0       -1.325315    0.441496   -0.763024
      8          1           0       -1.606904    0.062069   -1.657548
      9          6           0        0.038956    0.969823   -0.723555
     10          1           0        0.254250    1.293591   -1.750023
     11          6           0        0.158979    2.198187    0.187866
     12          1           0        0.025351    1.924347    1.236137
     13          1           0        1.127871    2.692704    0.049630
     14          1           0       -0.617500    2.922001   -0.077178
     15          6           0        1.031299   -0.196285   -0.467027
     16          8           0        0.815573   -1.300025   -0.953266
     17          7           0        2.177217    0.111786    0.203826
     18          1           0        2.193109    0.960293    0.750080
     19          6           0        3.160239   -0.912399    0.522293
     20          1           0        3.145452   -1.656447   -0.275015
     21          1           0        4.154948   -0.461204    0.584437
     22          1           0        2.935390   -1.417901    1.470461
 ---------------------------------------------------------------------

 The electronic state is 1-A.
 Alpha  occ. eigenvalues --  -19.10884 -19.10604 -14.35928 -14.35353 -10.28303
 Alpha  occ. eigenvalues --  -10.28058 -10.23760 -10.21485 -10.18625 -10.18482
 Alpha  occ. eigenvalues --   -1.03262  -1.02148  -0.91693  -0.91655  -0.77760
 Alpha  occ. eigenvalues --   -0.72583  -0.70122  -0.64770  -0.58626  -0.56352
 Alpha  occ. eigenvalues --   -0.52623  -0.50274  -0.45871  -0.45608  -0.44105
 Alpha  occ. eigenvalues --   -0.43650  -0.42216  -0.41436  -0.39681  -0.39140
 Alpha  occ. eigenvalues --   -0.38780  -0.38318  -0.37416  -0.35099  -0.34414
 Alpha  occ. eigenvalues --   -0.26173  -0.25328  -0.24561  -0.23877
 Alpha virt. eigenvalues --    0.02298   0.03341   0.07270   0.08943   0.11797
 Alpha virt. eigenvalues --    0.12905   0.14572   0.15352   0.15906   0.16297
 Alpha virt. eigenvalues --    0.17089   0.17827   0.18400   0.19120   0.19459

 Mulliken atomic charges:
              1
     1  H    0.184155
     2  C   -0.548286
     3  H    0.154221
     4  H    0.190472
     5  C    0.601287
     6  O   -0.510262
     7  N   -0.565156
     8  H    0.330372
     9  C   -0.056786
    10  H    0.162625
    11  C   -0.479003
    12  H    0.196492
    13  H    0.137469
    14  H    0.162966
    15  C    0.628734
    16  O   -0.535274
    17  N   -0.596819
    18  H    0.334535
    19  C   -0.305885
    20  H    0.195962
    21  H    0.150859
    22  H    0.167322
 Sum of Mulliken atomic charges =   0.00000

 Dipole moment (field-independent basis, Debye):
    X=              0.7600    Y=              2.0955    Z=             -1.3121  Tot=              2.5866
 Quadrupole moment (field-independent basis, Debye-Ang):
   XX=            -49.3369   YY=            -60.2324   ZZ=            -61.7656
   XY=              3.7603   XZ=              7.4682   YZ=             -1.7544

 Normal termination of Gaussian 09 at Sat Feb 11 02:31:45 2017.
