 Gaussian 09, Revision A.02,
 Gaussian 09:  EM64L-G09RevA.02 11-Jun-2009

 ----------------------------------------------------------------------
 # b3lyp/6-31G* Opt=(ModRedundant, maxcycles=1000, calcfc) geom=nocrowd
 ----------------------------------------------------------------------

 ------------------
 Phi Psi fixed scan
 ------------------
 Symbolic Z-matrix:
 Charge =  0 Multiplicity = 1

 SCF Done:  E(RB3LYP) =  -495.818567208     A.U. after   15 cycles

  Exact polarizability:   0.000   0.000   0.000   0.000   0.000   0.000
 Approx polarizability: 117.541  11.796 107.235  -2.525 -17.787 110.852

 SCF Done:  E(RB3LYP) =  -495.824245628     A.U. after   13 cycles
 SCF Done:  E(RB3LYP) =  -495.831720432     A.U. after   13 cycles
 SCF Done:  E(RB3LYP) =  -495.834674993     A.U. after   14 cycles
 SCF Done:  E(RB3LYP) =  -495.835682028     A.U. after   12 cycles
 SCF Done:  E(RB3LYP) =  -495.836498766     A.U. after   13 cycles
 SCF Done:  E(RB3LYP) =  -495.835300889     A.U. after   15 cycles
 SCF Done:  E(RB3LYP) =  -495.837027721     A.U. after   13 cycles
 SCF Done:  E(RB3LYP) =  -495.837522594     A.U. after   12 cycles
 SCF Done:  E(RB3LYP) =  -495.837832752     A.U. after   13 cycles
 SCF Done:  E(RB3LYP) =  -495.837787033     A.U. after   13 cycles
 SCF Done:  E(RB3LYP) =  -495.837972103     A.U. after   12 cycles
 SCF Done:  E(RB3LYP) =  -495.838171785     A.U. after   11 cycles
 SCF Done:  E(RB3LYP) =  -495.838331133     A.U. after   12 cycles
 SCF Done:  E(RB3LYP) =  -495.838418218     A.U. after   11 cycles
 SCF Done:  E(RB3LYP) =  -495.838496088     A.U. after   11 cycles
 SCF Done:  E(RB3LYP) =  -495.838508487     A.U. after   10 cycles
 SCF Done:  E(RB3LYP) =  -495.838511576     A.U. after    8 cycles
 SCF Done:  E(RB3LYP) =  -495.838512171     A.U. after    9 cycles
 SCF Done:  E(RB3LYP) =  -495.838512296     A.U. after    7 cycles
 Optimization completed.
    -- Stationary point found.

                         Standard orientation:
 ---------------------------------------------------------------------
 Center     Atomic      Atomic             Coordinates (Angstroms)
 Number     Number       Type             X           Y           Z
 ---------------------------------------------------------------------
      1          1           0       -3.800641   -1.317867    0.277119
      2          6           0       -2.961511   -1.228403   -0.414528
      3          1           0       -3.336729   -1.006064   -1.420002
      4          1           0       -2.433839   -2.189282   -0.448601
      5          6           0       -2.005685   -0.163300    0.103198
      6          8           0       -1.993115    0.191041    1.268862
      7          7           0       -1.202406    0.407013   -0.883431
      8          1           0       -1.231615   -0.109895   -1.755264
      9          6           0        0.135661    0.922039   -0.597077
     10          1           0        0.538810    1.247700   -1.564712
     11          6           0        0.112568    2.139636    0.344353
     12          1           0       -0.270166    1.852300    1.323663
     13          1           0        1.120441    2.556741    0.453530
     14          1           0       -0.540172    2.913105   -0.072005
     15          6           0        1.065132   -0.191108   -0.046708
     16          8           0        0.649545   -1.177367    0.543045
     17          7           0        2.386859   -0.009392   -0.358515
     18          1           0        2.663925    0.868092   -0.776558
     19          6           0        3.432631   -0.875718    0.160573
     20          1           0        2.954495   -1.793036    0.506325
     21          1           0        4.154129   -1.116315   -0.627241
     22          1           0        3.965962   -0.417089    1.003244
 ---------------------------------------------------------------------

 The electronic state is 1-A.
 Alpha  occ. eigenvalues --  -19.11396 -19.10120 -14.36650 -14.35103 -10.28556
 Alpha  occ. eigenvalues --  -10.27871 -10.24015 -10.22087 -10.18154 -10.17948
 Alpha  occ. eigenvalues --   -1.03557  -1.01808  -0.92318  -0.91502  -0.77644
 Alpha  occ. eigenvalues --   -0.72247  -0.70664  -0.64093  -0.58927  -0.56244
 Alpha  occ. eigenvalues --   -0.52424  -0.49699  -0.46543  -0.45463  -0.44754
 Alpha  occ. eigenvalues --   -0.43584  -0.41974  -0.40845  -0.40268  -0.39258
 Alpha  occ. eigenvalues --   -0.38692  -0.37498  -0.37089  -0.35228  -0.34152
 Alpha  occ. eigenvalues --   -0.27116  -0.25510  -0.24356  -0.22942
 Alpha virt. eigenvalues --    0.01858   0.04027   0.05734   0.08299   0.11790
 Alpha virt. eigenvalues --    0.13180   0.14839   0.15366   0.15812   0.16111
 Alpha virt. eigenvalues --    0.17070   0.17389   0.18671   0.19259   0.19604

 Mulliken atomic charges:
              1
     1  H    0.183963
     2  C   -0.553807
     3  H    0.150968
     4  H    0.187795
     5  C    0.608855
     6  O   -0.488431
     7  N   -0.574084
     8  H    0.317233
     9  C   -0.070852
    10  H    0.135465
    11  C   -0.443136
    12  H    0.211712
    13  H    0.126957
    14  H    0.159362
    15  C    0.606231
    16  O   -0.501628
    17  N   -0.591173
    18  H    0.324097
    19  C   -0.310243
    20  H    0.205075
    21  H    0.155214
    22  H    0.160427
 Sum of Mulliken atomic charges =   0.00000

 Dipole moment (field-independent basis, Debye):
    X=              3.0676    Y=              1.0969    Z=             -4.1906  Tot=              5.3080
 Quadrupole moment (field-independent basis, Debye-Ang):
   XX=            -50.9267   YY=            -59.5512   ZZ=            -61.0967
   XY=              4.9271   XZ=              4.0993   YZ=              0.8102

 Normal termination of Gaussian 09 at Sat Feb 11 02:23:56 2017.
