 Gaussian 09, Revision A.02,
 Gaussian 09:  EM64L-G09RevA.02 11-Jun-2009

 ----------------------------------------------------------------------
 # b3lyp/6-31G* Opt=(ModRedundant, maxcycles=1000, calcfc) geom=nocrowd
 ----------------------------------------------------------------------

 ------------------
 Phi Psi fixed scan
 ------------------
 Symbolic Z-matrix:
 Charge =  0 Multiplicity = 1

 SCF Done:  E(RB3LYP) =  -495.830077644     A.U. after   16 cycles

  Exact polarizability:   0.000   0.000   0.000   0.000   0.000   0.000
 Approx polarizability: 107.597   1.253 100.858  15.459   2.678 126.533

 SCF Done:  E(RB3LYP) =  -495.835431567     A.U. after   12 cycles
 SCF Done:  E(RB3LYP) =  -495.841866052     A.U. after   12 cycles
 SCF Done:  E(RB3LYP) =  -495.844093547     A.U. after   12 cycles
 SCF Done:  E(RB3LYP) =  -495.844653492     A.U. after   12 cycles
 SCF Done:  E(RB3LYP) =  -495.837769779     A.U. after   13 cycles
 SCF Done:  E(RB3LYP) =  -495.844707707     A.U. after   13 cycles
 SCF Done:  E(RB3LYP) =  -495.844882531     A.U. after   12 cycles
 SCF Done:  E(RB3LYP) =  -495.821742421     A.U. after   13 cycles
 SCF Done:  E(RB3LYP) =  -495.844937024     A.U. after   13 cycles
 SCF Done:  E(RB3LYP) =  -495.845148323     A.U. after   11 cycles
 SCF Done:  E(RB3LYP) =  -495.845159790     A.U. after   10 cycles
 SCF Done:  E(RB3LYP) =  -495.845183145     A.U. after   11 cycles
 SCF Done:  E(RB3LYP) =  -495.845224642     A.U. after   11 cycles
 SCF Done:  E(RB3LYP) =  -495.845256813     A.U. after   11 cycles
 SCF Done:  E(RB3LYP) =  -495.845262502     A.U. after   10 cycles
 SCF Done:  E(RB3LYP) =  -495.845263159     A.U. after   10 cycles
 SCF Done:  E(RB3LYP) =  -495.845263194     A.U. after    7 cycles
 SCF Done:  E(RB3LYP) =  -495.845263205     A.U. after    6 cycles
 SCF Done:  E(RB3LYP) =  -495.845263190     A.U. after    6 cycles
 Optimization completed.
    -- Stationary point found.

                         Standard orientation:
 ---------------------------------------------------------------------
 Center     Atomic      Atomic             Coordinates (Angstroms)
 Number     Number       Type             X           Y           Z
 ---------------------------------------------------------------------
      1          1           0        3.638972   -1.202993   -0.834760
      2          6           0        3.023756   -1.119925    0.064410
      3          1           0        3.604864   -0.641011    0.858562
      4          1           0        2.764041   -2.135574    0.384141
      5          6           0        1.747118   -0.371082   -0.283833
      6          8           0        1.139828   -0.568467   -1.331980
      7          7           0        1.323065    0.540021    0.648402
      8          1           0        1.718974    0.470165    1.575378
      9          6           0       -0.004152    1.161833    0.550886
     10          1           0       -0.141284    1.699575    1.494627
     11          6           0       -0.077715    2.176863   -0.595397
     12          1           0        0.133096    1.707261   -1.559156
     13          1           0       -1.066147    2.647243   -0.627790
     14          1           0        0.669334    2.960971   -0.436178
     15          6           0       -1.090254    0.056091    0.601713
     16          8           0       -1.198001   -0.630507    1.611542
     17          7           0       -1.920716   -0.049936   -0.472944
     18          1           0       -1.568399    0.313737   -1.347733
     19          6           0       -2.882542   -1.139301   -0.551414
     20          1           0       -3.315823   -1.289647    0.438393
     21          1           0       -3.672563   -0.875484   -1.259981
     22          1           0       -2.413385   -2.079925   -0.868398
 ---------------------------------------------------------------------

 The electronic state is 1-A.
 Alpha  occ. eigenvalues --  -19.11301 -19.10444 -14.36207 -14.35377 -10.28941
 Alpha  occ. eigenvalues --  -10.27783 -10.23721 -10.21088 -10.19271 -10.18395
 Alpha  occ. eigenvalues --   -1.03439  -1.02201  -0.92182  -0.91265  -0.77910
 Alpha  occ. eigenvalues --   -0.72956  -0.69849  -0.64906  -0.58757  -0.56445
 Alpha  occ. eigenvalues --   -0.52691  -0.50488  -0.46201  -0.45598  -0.44124
 Alpha  occ. eigenvalues --   -0.43780  -0.41870  -0.41507  -0.40049  -0.39433
 Alpha  occ. eigenvalues --   -0.38766  -0.38191  -0.37173  -0.35345  -0.34818
 Alpha  occ. eigenvalues --   -0.26759  -0.25478  -0.24846  -0.23351
 Alpha virt. eigenvalues --    0.01804   0.03093   0.07241   0.09366   0.11576
 Alpha virt. eigenvalues --    0.12853   0.14575   0.15342   0.15471   0.16193
 Alpha virt. eigenvalues --    0.17332   0.17962   0.18661   0.18742   0.20055

 Mulliken atomic charges:
              1
     1  H    0.186518
     2  C   -0.540396
     3  H    0.150354
     4  H    0.189323
     5  C    0.600305
     6  O   -0.523249
     7  N   -0.574991
     8  H    0.332996
     9  C   -0.046045
    10  H    0.163014
    11  C   -0.474113
    12  H    0.182866
    13  H    0.153936
    14  H    0.155894
    15  C    0.604942
    16  O   -0.528235
    17  N   -0.578216
    18  H    0.342661
    19  C   -0.305810
    20  H    0.190586
    21  H    0.150483
    22  H    0.167177
 Sum of Mulliken atomic charges =   0.00000

 Dipole moment (field-independent basis, Debye):
    X=              0.9566    Y=              1.6153    Z=             -0.1189  Tot=              1.8810
 Quadrupole moment (field-independent basis, Debye-Ang):
   XX=            -52.0093   YY=            -58.0875   ZZ=            -63.5956
   XY=             -0.8068   XZ=              9.2324   YZ=              1.7625

 Normal termination of Gaussian 09 at Sat Feb 11 02:33:23 2017.
