 Gaussian 09, Revision A.02,
 Gaussian 09:  EM64L-G09RevA.02 11-Jun-2009

 ----------------------------------------------------------------------
 # b3lyp/6-31G* Opt=(ModRedundant, maxcycles=1000, calcfc) geom=nocrowd
 ----------------------------------------------------------------------

 ------------------
 Phi Psi fixed scan
 ------------------
 Symbolic Z-matrix:
 Charge =  0 Multiplicity = 1

 SCF Done:  E(RB3LYP) =  -495.820656162     A.U. after   15 cycles

  Exact polarizability:   0.000   0.000   0.000   0.000   0.000   0.000
 Approx polarizability: 112.765   4.225 118.589  -3.549 -23.446 107.135

 SCF Done:  E(RB3LYP) =  -495.829878262     A.U. after   12 cycles
 SCF Done:  E(RB3LYP) =  -495.841725657     A.U. after   12 cycles
 SCF Done:  E(RB3LYP) =  -495.846524969     A.U. after   13 cycles
 SCF Done:  E(RB3LYP) =  -495.847919425     A.U. after   12 cycles
 SCF Done:  E(RB3LYP) =  -495.848930917     A.U. after   14 cycles
 SCF Done:  E(RB3LYP) =  -495.848617441     A.U. after   13 cycles
 SCF Done:  E(RB3LYP) =  -495.849008455     A.U. after   12 cycles
 SCF Done:  E(RB3LYP) =  -495.849256456     A.U. after   12 cycles
 SCF Done:  E(RB3LYP) =  -495.799663789     A.U. after   13 cycles
 SCF Done:  E(RB3LYP) =  -495.849841591     A.U. after   10 cycles
 SCF Done:  E(RB3LYP) =  -495.849845595     A.U. after   10 cycles
 SCF Done:  E(RB3LYP) =  -495.849846837     A.U. after   10 cycles
 SCF Done:  E(RB3LYP) =  -495.849848312     A.U. after    9 cycles
 SCF Done:  E(RB3LYP) =  -495.849826401     A.U. after   12 cycles
 SCF Done:  E(RB3LYP) =  -495.849848923     A.U. after   12 cycles
 SCF Done:  E(RB3LYP) =  -495.849849847     A.U. after    9 cycles
 SCF Done:  E(RB3LYP) =  -495.849850006     A.U. after    9 cycles
 SCF Done:  E(RB3LYP) =  -495.849849967     A.U. after    9 cycles
 SCF Done:  E(RB3LYP) =  -495.849849896     A.U. after    7 cycles
 Optimization completed on the basis of negligible forces.
    -- Stationary point found.

                         Standard orientation:
 ---------------------------------------------------------------------
 Center     Atomic      Atomic             Coordinates (Angstroms)
 Number     Number       Type             X           Y           Z
 ---------------------------------------------------------------------
      1          1           0       -3.886329   -0.856507    0.159130
      2          6           0       -3.134231   -0.760645   -0.629020
      3          1           0       -3.492590   -0.050868   -1.380702
      4          1           0       -3.023299   -1.745214   -1.095194
      5          6           0       -1.810812   -0.370698    0.011384
      6          8           0       -1.359095   -1.016231    0.960893
      7          7           0       -1.205465    0.728648   -0.515100
      8          1           0       -1.623739    1.108355   -1.352450
      9          6           0        0.121961    1.280801   -0.172114
     10          1           0        0.289645    2.086727   -0.888340
     11          6           0        0.130296    1.864742    1.250758
     12          1           0       -0.082964    1.091324    1.992207
     13          1           0        1.111518    2.299575    1.467305
     14          1           0       -0.626741    2.651011    1.340718
     15          6           0        1.339707    0.344237   -0.398300
     16          8           0        2.255613    0.730818   -1.120853
     17          7           0        1.347479   -0.823700    0.288845
     18          1           0        0.496058   -1.082375    0.785151
     19          6           0        2.436876   -1.776073    0.172843
     20          1           0        3.267233   -1.280892   -0.332257
     21          1           0        2.760073   -2.108642    1.165452
     22          1           0        2.142119   -2.658015   -0.410867
 ---------------------------------------------------------------------

 The electronic state is 1-A.
 Alpha  occ. eigenvalues --  -19.12650 -19.09894 -14.37820 -14.34116 -10.30462
 Alpha  occ. eigenvalues --  -10.27422 -10.24020 -10.20543 -10.20379 -10.18386
 Alpha  occ. eigenvalues --   -1.04475  -1.01708  -0.93509  -0.90347  -0.78471
 Alpha  occ. eigenvalues --   -0.73690  -0.69755  -0.65108  -0.59436  -0.56180
 Alpha  occ. eigenvalues --   -0.53357  -0.50793  -0.46992  -0.45788  -0.44136
 Alpha  occ. eigenvalues --   -0.43814  -0.42201  -0.41549  -0.41365  -0.40518
 Alpha  occ. eigenvalues --   -0.38519  -0.37548  -0.36834  -0.35881  -0.35100
 Alpha  occ. eigenvalues --   -0.28096  -0.26446  -0.23835  -0.23164
 Alpha virt. eigenvalues --    0.00889   0.03613   0.05561   0.11177   0.11930
 Alpha virt. eigenvalues --    0.12963   0.14040   0.16170   0.16434   0.16895
 Alpha virt. eigenvalues --    0.17418   0.17655   0.18025   0.18341   0.19967

 Mulliken atomic charges:
              1
     1  H    0.192658
     2  C   -0.532453
     3  H    0.148837
     4  H    0.189694
     5  C    0.603827
     6  O   -0.532831
     7  N   -0.592091
     8  H    0.334438
     9  C   -0.053690
    10  H    0.167437
    11  C   -0.449545
    12  H    0.179703
    13  H    0.165599
    14  H    0.149113
    15  C    0.587460
    16  O   -0.527703
    17  N   -0.602557
    18  H    0.378199
    19  C   -0.309843
    20  H    0.195385
    21  H    0.154483
    22  H    0.153879
 Sum of Mulliken atomic charges =   0.00000

 Dipole moment (field-independent basis, Debye):
    X=             -3.3464    Y=              0.2435    Z=             -0.6093  Tot=              3.4101
 Quadrupole moment (field-independent basis, Debye-Ang):
   XX=            -59.9261   YY=            -57.1414   ZZ=            -61.6481
   XY=             -6.3288   XZ=              9.9138   YZ=              1.9688

 Normal termination of Gaussian 09 at Sat Feb 11 02:42:31 2017.
