 Gaussian 09, Revision A.02,
 Gaussian 09:  EM64L-G09RevA.02 11-Jun-2009

 ----------------------------------------------------------------------
 # b3lyp/6-31G* Opt=(ModRedundant, maxcycles=1000, calcfc) geom=nocrowd
 ----------------------------------------------------------------------

 ------------------
 Phi Psi fixed scan
 ------------------
 Symbolic Z-matrix:
 Charge =  0 Multiplicity = 1

 SCF Done:  E(RB3LYP) =  -495.828503291     A.U. after   15 cycles

  Exact polarizability:   0.000   0.000   0.000   0.000   0.000   0.000
 Approx polarizability: 114.335  12.728 114.820   7.861  -8.011 107.397

 SCF Done:  E(RB3LYP) =  -495.834882978     A.U. after   13 cycles
 SCF Done:  E(RB3LYP) =  -495.842898200     A.U. after   14 cycles
 SCF Done:  E(RB3LYP) =  -495.844372218     A.U. after   12 cycles
 SCF Done:  E(RB3LYP) =  -495.844659397     A.U. after   13 cycles
 SCF Done:  E(RB3LYP) =  -495.845215966     A.U. after   12 cycles
 SCF Done:  E(RB3LYP) =  -495.845304816     A.U. after   12 cycles
 SCF Done:  E(RB3LYP) =  -495.781358764     A.U. after   16 cycles
 SCF Done:  E(RB3LYP) =  -495.808610739     A.U. after   14 cycles
 SCF Done:  E(RB3LYP) =  -495.826665773     A.U. after   13 cycles
 SCF Done:  E(RB3LYP) =  -495.845838752     A.U. after   14 cycles
 SCF Done:  E(RB3LYP) =  -495.846039462     A.U. after   13 cycles
 SCF Done:  E(RB3LYP) =  -495.846111184     A.U. after   11 cycles
 SCF Done:  E(RB3LYP) =  -495.846207744     A.U. after   11 cycles
 SCF Done:  E(RB3LYP) =  -495.846289725     A.U. after   12 cycles
 SCF Done:  E(RB3LYP) =  -495.846303769     A.U. after   11 cycles
 SCF Done:  E(RB3LYP) =  -495.846308438     A.U. after   10 cycles
 SCF Done:  E(RB3LYP) =  -495.846309549     A.U. after   10 cycles
 SCF Done:  E(RB3LYP) =  -495.846309690     A.U. after    7 cycles
 SCF Done:  E(RB3LYP) =  -495.846309705     A.U. after    6 cycles
 Optimization completed.
    -- Stationary point found.

                         Standard orientation:
 ---------------------------------------------------------------------
 Center     Atomic      Atomic             Coordinates (Angstroms)
 Number     Number       Type             X           Y           Z
 ---------------------------------------------------------------------
      1          1           0       -3.322681   -1.868714   -0.236461
      2          6           0       -3.214473   -0.782969   -0.302756
      3          1           0       -3.915869   -0.340244    0.412891
      4          1           0       -3.487903   -0.453702   -1.309972
      5          6           0       -1.798123   -0.406736    0.107003
      6          8           0       -1.274605   -0.880713    1.115972
      7          7           0       -1.158796    0.470287   -0.715569
      8          1           0       -1.673930    0.796358   -1.520908
      9          6           0        0.109545    1.170354   -0.450265
     10          1           0        0.340986    1.701826   -1.379001
     11          6           0       -0.047268    2.203226    0.679442
     12          1           0       -0.331524    1.702255    1.609506
     13          1           0        0.902451    2.720625    0.830948
     14          1           0       -0.820522    2.935409    0.423977
     15          6           0        1.380725    0.320972   -0.199670
     16          8           0        2.446736    0.918019   -0.090164
     17          7           0        1.278897   -1.035820   -0.233798
     18          1           0        0.393557   -1.409862    0.092917
     19          6           0        2.465631   -1.836985    0.036938
     20          1           0        3.295544   -1.458749   -0.562614
     21          1           0        2.764286   -1.797236    1.092812
     22          1           0        2.261627   -2.874852   -0.239153
 ---------------------------------------------------------------------

 The electronic state is 1-A.
 Alpha  occ. eigenvalues --  -19.12247 -19.10360 -14.37567 -14.34466 -10.30187
 Alpha  occ. eigenvalues --  -10.27750 -10.24235 -10.20647 -10.20366 -10.17838
 Alpha  occ. eigenvalues --   -1.04306  -1.02265  -0.93406  -0.90561  -0.78253
 Alpha  occ. eigenvalues --   -0.73502  -0.69895  -0.64710  -0.59579  -0.56182
 Alpha  occ. eigenvalues --   -0.53220  -0.50491  -0.46828  -0.46077  -0.44243
 Alpha  occ. eigenvalues --   -0.44044  -0.42313  -0.41374  -0.41012  -0.40077
 Alpha  occ. eigenvalues --   -0.38335  -0.38196  -0.36250  -0.36182  -0.34242
 Alpha  occ. eigenvalues --   -0.27498  -0.26424  -0.24788  -0.23379
 Alpha virt. eigenvalues --    0.01044   0.02898   0.05670   0.11195   0.11558
 Alpha virt. eigenvalues --    0.13325   0.14109   0.15719   0.15879   0.16216
 Alpha virt. eigenvalues --    0.17464   0.17668   0.17999   0.18726   0.20494

 Mulliken atomic charges:
              1
     1  H    0.188930
     2  C   -0.534206
     3  H    0.190615
     4  H    0.147963
     5  C    0.589545
     6  O   -0.528831
     7  N   -0.590933
     8  H    0.330015
     9  C   -0.044040
    10  H    0.168802
    11  C   -0.447829
    12  H    0.176667
    13  H    0.184504
    14  H    0.135791
    15  C    0.605248
    16  O   -0.524995
    17  N   -0.600090
    18  H    0.360338
    19  C   -0.302512
    20  H    0.183115
    21  H    0.163470
    22  H    0.148434
 Sum of Mulliken atomic charges =   0.00000

 Dipole moment (field-independent basis, Debye):
    X=             -3.7700    Y=             -0.3157    Z=             -2.5256  Tot=              4.5487
 Quadrupole moment (field-independent basis, Debye-Ang):
   XX=            -60.1665   YY=            -57.1257   ZZ=            -60.3207
   XY=             -6.9748   XZ=              4.7924   YZ=             -0.0941

 Normal termination of Gaussian 09 at Sat Feb 11 03:01:32 2017.
