 Gaussian 09, Revision A.02,
 Gaussian 09:  EM64L-G09RevA.02 11-Jun-2009

 ----------------------------------------------------------------------
 # b3lyp/6-31G* Opt=(ModRedundant, maxcycles=1000, calcfc) geom=nocrowd
 ----------------------------------------------------------------------

 ------------------
 Phi Psi fixed scan
 ------------------
 Symbolic Z-matrix:
 Charge =  0 Multiplicity = 1

 SCF Done:  E(RB3LYP) =  -495.829803960     A.U. after   14 cycles

  Exact polarizability:   0.000   0.000   0.000   0.000   0.000   0.000
 Approx polarizability: 111.201  -4.733 104.937  16.334  -1.121 118.968

 SCF Done:  E(RB3LYP) =  -495.835189315     A.U. after   12 cycles
 SCF Done:  E(RB3LYP) =  -495.841661294     A.U. after   12 cycles
 SCF Done:  E(RB3LYP) =  -495.843742128     A.U. after   12 cycles
 SCF Done:  E(RB3LYP) =  -495.844143297     A.U. after   13 cycles
 SCF Done:  E(RB3LYP) =  -495.805297967     A.U. after   14 cycles
 SCF Done:  E(RB3LYP) =  -495.844164955     A.U. after   14 cycles
 SCF Done:  E(RB3LYP) =  -495.844401709     A.U. after   13 cycles
 SCF Done:  E(RB3LYP) =  -495.841811295     A.U. after   16 cycles
 SCF Done:  E(RB3LYP) =  -495.844607621     A.U. after   16 cycles
 SCF Done:  E(RB3LYP) =  -495.844811439     A.U. after   15 cycles
 SCF Done:  E(RB3LYP) =  -495.844837976     A.U. after   10 cycles
 SCF Done:  E(RB3LYP) =  -495.844848272     A.U. after   10 cycles
 SCF Done:  E(RB3LYP) =  -495.844859840     A.U. after   10 cycles
 SCF Done:  E(RB3LYP) =  -495.844871742     A.U. after   11 cycles
 SCF Done:  E(RB3LYP) =  -495.844878814     A.U. after   10 cycles
 SCF Done:  E(RB3LYP) =  -495.844891317     A.U. after   10 cycles
 SCF Done:  E(RB3LYP) =  -495.844904836     A.U. after   15 cycles
 SCF Done:  E(RB3LYP) =  -495.844906424     A.U. after   10 cycles
 SCF Done:  E(RB3LYP) =  -495.844906513     A.U. after    7 cycles
 Optimization completed.
    -- Stationary point found.

                         Standard orientation:
 ---------------------------------------------------------------------
 Center     Atomic      Atomic             Coordinates (Angstroms)
 Number     Number       Type             X           Y           Z
 ---------------------------------------------------------------------
      1          1           0        3.646524   -1.120769   -0.993130
      2          6           0        3.059716   -1.071334   -0.073466
      3          1           0        3.669875   -0.641937    0.727486
      4          1           0        2.787315   -2.095408    0.208311
      5          6           0        1.790390   -0.278891   -0.342049
      6          8           0        1.216168   -0.305092   -1.424622
      7          7           0        1.331703    0.469888    0.714924
      8          1           0        1.677128    0.212088    1.629396
      9          6           0       -0.016114    1.046137    0.685378
     10          1           0       -0.183210    1.444155    1.693175
     11          6           0       -0.120886    2.210344   -0.306122
     12          1           0        0.050720    1.871909   -1.330435
     13          1           0       -1.102327    2.692346   -0.232912
     14          1           0        0.638714    2.961029   -0.067343
     15          6           0       -1.052748   -0.100274    0.557121
     16          8           0       -0.975946   -1.065753    1.308335
     17          7           0       -2.061825    0.069731   -0.341737
     18          1           0       -1.921141    0.743718   -1.080432
     19          6           0       -3.031523   -0.988829   -0.578871
     20          1           0       -3.239361   -1.482943    0.371182
     21          1           0       -3.954167   -0.556205   -0.976066
     22          1           0       -2.654001   -1.741483   -1.283202
 ---------------------------------------------------------------------

 The electronic state is 1-A.
 Alpha  occ. eigenvalues --  -19.11056 -19.10434 -14.35714 -14.35711 -10.28571
 Alpha  occ. eigenvalues --  -10.27901 -10.23722 -10.21304 -10.18918 -10.18447
 Alpha  occ. eigenvalues --   -1.03287  -1.02159  -0.91870  -0.91484  -0.77831
 Alpha  occ. eigenvalues --   -0.72750  -0.69993  -0.64850  -0.58654  -0.56482
 Alpha  occ. eigenvalues --   -0.52648  -0.50405  -0.45919  -0.45653  -0.44058
 Alpha  occ. eigenvalues --   -0.43730  -0.42050  -0.41482  -0.39791  -0.39257
 Alpha  occ. eigenvalues --   -0.38611  -0.38488  -0.37322  -0.35202  -0.34571
 Alpha  occ. eigenvalues --   -0.26361  -0.25288  -0.24721  -0.23634
 Alpha virt. eigenvalues --    0.02062   0.03310   0.07446   0.09044   0.11704
 Alpha virt. eigenvalues --    0.12843   0.14829   0.15124   0.15626   0.16130
 Alpha virt. eigenvalues --    0.17150   0.18154   0.18382   0.18973   0.19642

 Mulliken atomic charges:
              1
     1  H    0.185200
     2  C   -0.544603
     3  H    0.152695
     4  H    0.189729
     5  C    0.600687
     6  O   -0.516489
     7  N   -0.568414
     8  H    0.332150
     9  C   -0.049945
    10  H    0.162574
    11  C   -0.481275
    12  H    0.190630
    13  H    0.145770
    14  H    0.159887
    15  C    0.620981
    16  O   -0.534344
    17  N   -0.589987
    18  H    0.338176
    19  C   -0.305303
    20  H    0.193089
    21  H    0.150204
    22  H    0.168588
 Sum of Mulliken atomic charges =   0.00000

 Dipole moment (field-independent basis, Debye):
    X=              0.0467    Y=              2.0024    Z=              0.5449  Tot=              2.0757
 Quadrupole moment (field-independent basis, Debye-Ang):
   XX=            -50.3281   YY=            -59.4145   ZZ=            -62.5080
   XY=             -2.7133   XZ=              8.3844   YZ=              2.1513

 Normal termination of Gaussian 09 at Sat Feb 11 02:32:22 2017.
