 Gaussian 09, Revision A.02,
 Gaussian 09:  EM64L-G09RevA.02 11-Jun-2009

 ----------------------------------------------------------------------
 # b3lyp/6-31G* Opt=(ModRedundant, maxcycles=1000, calcfc) geom=nocrowd
 ----------------------------------------------------------------------

 ------------------
 Phi Psi fixed scan
 ------------------
 Symbolic Z-matrix:
 Charge =  0 Multiplicity = 1

 SCF Done:  E(RB3LYP) =  -495.834854962     A.U. after   15 cycles

  Exact polarizability:   0.000   0.000   0.000   0.000   0.000   0.000
 Approx polarizability: 110.409  12.008 114.064  10.963  -1.445 111.314

 SCF Done:  E(RB3LYP) =  -495.839506014     A.U. after   12 cycles
 SCF Done:  E(RB3LYP) =  -495.843781935     A.U. after   12 cycles
 SCF Done:  E(RB3LYP) =  -495.844281691     A.U. after   12 cycles
 SCF Done:  E(RB3LYP) =  -495.802786129     A.U. after   16 cycles
 SCF Done:  E(RB3LYP) =  -495.844312998     A.U. after   15 cycles
 SCF Done:  E(RB3LYP) =  -495.844678206     A.U. after   12 cycles
 SCF Done:  E(RB3LYP) =  -495.844838584     A.U. after   14 cycles
 SCF Done:  E(RB3LYP) =  -495.844896790     A.U. after   12 cycles
 SCF Done:  E(RB3LYP) =  -495.844921106     A.U. after   12 cycles
 SCF Done:  E(RB3LYP) =  -495.844939563     A.U. after   11 cycles
 SCF Done:  E(RB3LYP) =  -495.844955081     A.U. after   12 cycles
 SCF Done:  E(RB3LYP) =  -495.844961337     A.U. after   12 cycles
 SCF Done:  E(RB3LYP) =  -495.844967361     A.U. after   10 cycles
 SCF Done:  E(RB3LYP) =  -495.844969779     A.U. after   10 cycles
 SCF Done:  E(RB3LYP) =  -495.844969626     A.U. after   10 cycles
 SCF Done:  E(RB3LYP) =  -495.844970077     A.U. after    8 cycles
 SCF Done:  E(RB3LYP) =  -495.844970115     A.U. after    7 cycles
 SCF Done:  E(RB3LYP) =  -495.844970138     A.U. after    7 cycles
 Optimization completed.
    -- Stationary point found.

                         Standard orientation:
 ---------------------------------------------------------------------
 Center     Atomic      Atomic             Coordinates (Angstroms)
 Number     Number       Type             X           Y           Z
 ---------------------------------------------------------------------
      1          1           0       -3.268534   -1.927755    0.142387
      2          6           0       -3.147975   -0.901907   -0.213114
      3          1           0       -3.893408   -0.284058    0.300756
      4          1           0       -3.349871   -0.863900   -1.288534
      5          6           0       -1.755778   -0.413132    0.163951
      6          8           0       -1.224936   -0.715118    1.227739
      7          7           0       -1.144428    0.386170   -0.764477
      8          1           0       -1.665164    0.612289   -1.599885
      9          6           0        0.093479    1.145993   -0.539313
     10          1           0        0.340489    1.586064   -1.512923
     11          6           0       -0.109592    2.281706    0.474984
     12          1           0       -0.411381    1.870291    1.441991
     13          1           0        0.826941    2.827322    0.603110
     14          1           0       -0.886369    2.969400    0.124025
     15          6           0        1.353797    0.325805   -0.167290
     16          8           0        2.362750    0.927174    0.182989
     17          7           0        1.322139   -1.019476   -0.375717
     18          1           0        0.412998   -1.457151   -0.368074
     19          6           0        2.450982   -1.844903    0.027514
     20          1           0        3.371835   -1.304653   -0.195592
     21          1           0        2.434149   -2.069368    1.102171
     22          1           0        2.432343   -2.783144   -0.534287
 ---------------------------------------------------------------------

 The electronic state is 1-A.
 Alpha  occ. eigenvalues --  -19.11939 -19.10340 -14.37284 -14.35008 -10.29824
 Alpha  occ. eigenvalues --  -10.27864 -10.24097 -10.20862 -10.20230 -10.17360
 Alpha  occ. eigenvalues --   -1.04068  -1.02307  -0.93213  -0.90824  -0.78019
 Alpha  occ. eigenvalues --   -0.73284  -0.70178  -0.64374  -0.59452  -0.56768
 Alpha  occ. eigenvalues --   -0.53055  -0.50270  -0.46902  -0.45920  -0.44542
 Alpha  occ. eigenvalues --   -0.43967  -0.42038  -0.41411  -0.40634  -0.39842
 Alpha  occ. eigenvalues --   -0.38393  -0.37946  -0.36262  -0.35967  -0.34461
 Alpha  occ. eigenvalues --   -0.27388  -0.25980  -0.24708  -0.23411
 Alpha virt. eigenvalues --    0.01505   0.02876   0.05950   0.10559   0.11365
 Alpha virt. eigenvalues --    0.13564   0.13959   0.14773   0.15560   0.16231
 Alpha virt. eigenvalues --    0.17604   0.17823   0.17981   0.18491   0.19784

 Mulliken atomic charges:
              1
     1  H    0.188166
     2  C   -0.539180
     3  H    0.188853
     4  H    0.148653
     5  C    0.575378
     6  O   -0.510463
     7  N   -0.603554
     8  H    0.327935
     9  C   -0.045310
    10  H    0.166182
    11  C   -0.444688
    12  H    0.180169
    13  H    0.184364
    14  H    0.130775
    15  C    0.624992
    16  O   -0.527362
    17  N   -0.585588
    18  H    0.340791
    19  C   -0.306166
    20  H    0.191110
    21  H    0.167044
    22  H    0.147900
 Sum of Mulliken atomic charges =   0.00000

 Dipole moment (field-independent basis, Debye):
    X=             -3.5724    Y=             -0.9464    Z=             -3.4472  Tot=              5.0538
 Quadrupole moment (field-independent basis, Debye-Ang):
   XX=            -59.5572   YY=            -56.5704   ZZ=            -60.8576
   XY=             -6.1609   XZ=              3.5533   YZ=             -0.2975

 Normal termination of Gaussian 09 at Sat Feb 11 02:33:33 2017.
