 Gaussian 09, Revision A.02,
 Gaussian 09:  EM64L-G09RevA.02 11-Jun-2009

 -------------------------------------------
 # HF/6-31G* Opt=(ModRedundant) geom=nocrowd
 -------------------------------------------

 ------------------
 Phi Psi fixed scan
 ------------------
 Symbolic Z-matrix:
 Charge =  0 Multiplicity = 1

 SCF Done:  E(RHF) =  -492.833522439     A.U. after   15 cycles
 SCF Done:  E(RHF) =  -492.846896533     A.U. after   14 cycles
 SCF Done:  E(RHF) =  -492.850883356     A.U. after   13 cycles
 SCF Done:  E(RHF) =  -492.851961859     A.U. after   13 cycles
 SCF Done:  E(RHF) =  -492.852621959     A.U. after   14 cycles
 SCF Done:  E(RHF) =  -492.852825812     A.U. after   13 cycles
 SCF Done:  E(RHF) =  -492.853181621     A.U. after   12 cycles
 SCF Done:  E(RHF) =  -492.853283636     A.U. after   12 cycles
 SCF Done:  E(RHF) =  -492.853421988     A.U. after   12 cycles
 SCF Done:  E(RHF) =  -492.853569041     A.U. after   11 cycles
 SCF Done:  E(RHF) =  -492.853932043     A.U. after   14 cycles
 SCF Done:  E(RHF) =  -492.853978204     A.U. after   12 cycles
 SCF Done:  E(RHF) =  -492.854063732     A.U. after   11 cycles
 SCF Done:  E(RHF) =  -492.854071558     A.U. after   10 cycles
 SCF Done:  E(RHF) =  -492.854078350     A.U. after   11 cycles
 SCF Done:  E(RHF) =  -492.854080508     A.U. after   10 cycles
 SCF Done:  E(RHF) =  -492.854080828     A.U. after    8 cycles
 SCF Done:  E(RHF) =  -492.854081421     A.U. after    9 cycles
 SCF Done:  E(RHF) =  -492.854082100     A.U. after   10 cycles
 SCF Done:  E(RHF) =  -492.854082191     A.U. after    8 cycles
 Optimization completed.
    -- Stationary point found.

                         Standard orientation:
 ---------------------------------------------------------------------
 Center     Atomic      Atomic             Coordinates (Angstroms)
 Number     Number       Type             X           Y           Z
 ---------------------------------------------------------------------
      1          1           0        3.484916   -1.573471   -0.538103
      2          6           0        2.988261   -1.105478    0.299397
      3          1           0        3.665537   -0.415357    0.788770
      4          1           0        2.712412   -1.877700    1.011124
      5          6           0        1.732525   -0.423190   -0.195292
      6          8           0        1.166451   -0.778691   -1.195919
      7          7           0        1.290036    0.606533    0.567787
      8          1           0        1.693639    0.705504    1.471338
      9          6           0       -0.013246    1.235964    0.376017
     10          1           0       -0.138391    1.894196    1.224307
     11          6           0       -0.062471    2.081945   -0.895217
     12          1           0        0.141993    1.499835   -1.782614
     13          1           0       -1.035497    2.549256   -0.999202
     14          1           0        0.686709    2.862922   -0.829746
     15          6           0       -1.139923    0.203928    0.560280
     16          8           0       -1.446179   -0.127472    1.674779
     17          7           0       -1.766211   -0.249040   -0.545451
     18          1           0       -1.234387   -0.220212   -1.386247
     19          6           0       -2.740453   -1.315123   -0.432460
     20          1           0       -3.481639   -1.049763    0.306482
     21          1           0       -3.227463   -1.441145   -1.390467
     22          1           0       -2.284946   -2.255484   -0.139222
 ---------------------------------------------------------------------

 The electronic state is 1-A.
 Alpha  occ. eigenvalues --  -20.53412 -20.51890 -15.59432 -15.57273 -11.35821
 Alpha  occ. eigenvalues --  -11.33785 -11.28243 -11.24681 -11.23844 -11.22166
 Alpha  occ. eigenvalues --   -1.40278  -1.38544  -1.24497  -1.22304  -1.05709
 Alpha  occ. eigenvalues --   -0.99740  -0.94640  -0.88773  -0.80376  -0.76662
 Alpha  occ. eigenvalues --   -0.71982  -0.70178  -0.65222  -0.63904  -0.62516
 Alpha  occ. eigenvalues --   -0.61591  -0.59964  -0.58206  -0.57176  -0.56058
 Alpha  occ. eigenvalues --   -0.54673  -0.54154  -0.52402  -0.51696  -0.50815
 Alpha  occ. eigenvalues --   -0.43313  -0.42647  -0.39353  -0.37730
 Alpha virt. eigenvalues --    0.18702   0.19584   0.22239   0.24898   0.25846
 Alpha virt. eigenvalues --    0.27535   0.29589   0.29961   0.31080   0.32175
 Alpha virt. eigenvalues --    0.32824   0.33961   0.34140   0.35525   0.38717

 Mulliken atomic charges:
              1
     1  H    0.215832
     2  C   -0.588999
     3  H    0.180979
     4  H    0.206176
     5  C    0.751893
     6  O   -0.624617
     7  N   -0.790637
     8  H    0.392812
     9  C   -0.044109
    10  H    0.214185
    11  C   -0.492090
    12  H    0.196472
    13  H    0.176128
    14  H    0.174130
    15  C    0.750383
    16  O   -0.619015
    17  N   -0.773138
    18  H    0.411680
    19  C   -0.280123
    20  H    0.198355
    21  H    0.168791
    22  H    0.174911
 Sum of Mulliken atomic charges =   0.00000

 Dipole moment (field-independent basis, Debye):
    X=              2.1437    Y=              1.1488    Z=             -0.2501  Tot=              2.4449
 Quadrupole moment (field-independent basis, Debye-Ang):
   XX=            -54.3224   YY=            -57.6327   ZZ=            -65.8212
   XY=              0.9187   XZ=             10.5312   YZ=              0.4639

 Normal termination of Gaussian 09 at Thu Feb  9 18:55:52 2017.
