 Gaussian 09, Revision A.02,
 Gaussian 09:  EM64L-G09RevA.02 11-Jun-2009

 -------------------------------------------
 # HF/6-31G* Opt=(ModRedundant) geom=nocrowd
 -------------------------------------------

 ------------------
 Phi Psi fixed scan
 ------------------
 Symbolic Z-matrix:
 Charge =  0 Multiplicity = 1

 SCF Done:  E(RHF) =  -492.837276487     A.U. after   15 cycles
 SCF Done:  E(RHF) =  -492.846615205     A.U. after   14 cycles
 SCF Done:  E(RHF) =  -492.848168793     A.U. after   13 cycles
 SCF Done:  E(RHF) =  -492.848460350     A.U. after   12 cycles
 SCF Done:  E(RHF) =  -492.849089179     A.U. after   13 cycles
 SCF Done:  E(RHF) =  -492.849783864     A.U. after   14 cycles
 SCF Done:  E(RHF) =  -492.849995049     A.U. after   12 cycles
 SCF Done:  E(RHF) =  -492.850085416     A.U. after   13 cycles
 SCF Done:  E(RHF) =  -492.850164920     A.U. after   12 cycles
 SCF Done:  E(RHF) =  -492.850300253     A.U. after   11 cycles
 SCF Done:  E(RHF) =  -492.850638816     A.U. after   12 cycles
 SCF Done:  E(RHF) =  -492.850726075     A.U. after   11 cycles
 SCF Done:  E(RHF) =  -492.850789355     A.U. after   11 cycles
 SCF Done:  E(RHF) =  -492.850791654     A.U. after    9 cycles
 SCF Done:  E(RHF) =  -492.850795090     A.U. after   10 cycles
 SCF Done:  E(RHF) =  -492.850797513     A.U. after   10 cycles
 SCF Done:  E(RHF) =  -492.850798386     A.U. after   10 cycles
 SCF Done:  E(RHF) =  -492.850798660     A.U. after    9 cycles
 SCF Done:  E(RHF) =  -492.850798786     A.U. after    8 cycles
 SCF Done:  E(RHF) =  -492.850798804     A.U. after    7 cycles
 Optimization completed.
    -- Stationary point found.

                         Standard orientation:
 ---------------------------------------------------------------------
 Center     Atomic      Atomic             Coordinates (Angstroms)
 Number     Number       Type             X           Y           Z
 ---------------------------------------------------------------------
      1          1           0       -3.261702   -1.890048    0.681302
      2          6           0       -3.035308   -1.165586   -0.087066
      3          1           0       -3.810009   -0.404434   -0.084839
      4          1           0       -3.037684   -1.648477   -1.058040
      5          6           0       -1.700534   -0.522631    0.224269
      6          8           0       -1.211117   -0.552158    1.315553
      7          7           0       -1.088387    0.080443   -0.836698
      8          1           0       -1.640782    0.200273   -1.656299
      9          6           0        0.024787    1.015933   -0.687436
     10          1           0        0.352421    1.237209   -1.697521
     11          6           0       -0.377107    2.312084    0.008870
     12          1           0       -0.678204    2.118290    1.028546
     13          1           0        0.455430    3.003287    0.029742
     14          1           0       -1.200402    2.775755   -0.526682
     15          6           0        1.227056    0.357837    0.006617
     16          8           0        1.759674    0.850411    0.956646
     17          7           0        1.733699   -0.717301   -0.651229
     18          1           0        1.108243   -1.197051   -1.258730
     19          6           0        2.792857   -1.501751   -0.049741
     20          1           0        3.598429   -0.846910    0.246216
     21          1           0        2.454097   -2.046452    0.825614
     22          1           0        3.164018   -2.204780   -0.784489
 ---------------------------------------------------------------------

 The electronic state is 1-A.
 Alpha  occ. eigenvalues --  -20.53356 -20.51733 -15.59648 -15.57359 -11.35675
 Alpha  occ. eigenvalues --  -11.33719 -11.28296 -11.24744 -11.24109 -11.21105
 Alpha  occ. eigenvalues --   -1.40346  -1.38514  -1.24880  -1.21925  -1.05401
 Alpha  occ. eigenvalues --   -0.99593  -0.95312  -0.87409  -0.80754  -0.76751
 Alpha  occ. eigenvalues --   -0.71293  -0.69663  -0.64852  -0.64497  -0.62499
 Alpha  occ. eigenvalues --   -0.61219  -0.60173  -0.58782  -0.57568  -0.56147
 Alpha  occ. eigenvalues --   -0.54303  -0.52575  -0.52360  -0.51416  -0.50779
 Alpha  occ. eigenvalues --   -0.42985  -0.41876  -0.39270  -0.38239
 Alpha virt. eigenvalues --    0.18497   0.19202   0.22374   0.24635   0.26221
 Alpha virt. eigenvalues --    0.28057   0.28643   0.29873   0.31118   0.31633
 Alpha virt. eigenvalues --    0.32656   0.33409   0.34067   0.34658   0.37563

 Mulliken atomic charges:
              1
     1  H    0.219993
     2  C   -0.591143
     3  H    0.198050
     4  H    0.178547
     5  C    0.737842
     6  O   -0.579723
     7  N   -0.812648
     8  H    0.380524
     9  C   -0.063055
    10  H    0.200092
    11  C   -0.472580
    12  H    0.215213
    13  H    0.186047
    14  H    0.144328
    15  C    0.792795
    16  O   -0.600152
    17  N   -0.780034
    18  H    0.380463
    19  C   -0.281051
    20  H    0.203487
    21  H    0.179746
    22  H    0.163257
 Sum of Mulliken atomic charges =   0.00000

 Dipole moment (field-independent basis, Debye):
    X=             -2.9083    Y=             -1.4234    Z=             -5.6129  Tot=              6.4798
 Quadrupole moment (field-independent basis, Debye-Ang):
   XX=            -55.1200   YY=            -57.3063   ZZ=            -63.7199
   XY=             -4.1708   XZ=              1.1294   YZ=             -0.6403

 Normal termination of Gaussian 09 at Thu Feb  9 18:19:50 2017.
