 Gaussian 09, Revision A.02,
 Gaussian 09:  EM64L-G09RevA.02 11-Jun-2009

 -------------------------------------------
 # HF/6-31G* Opt=(ModRedundant) geom=nocrowd
 -------------------------------------------

 ------------------
 Phi Psi fixed scan
 ------------------
 Symbolic Z-matrix:
 Charge =  0 Multiplicity = 1

 SCF Done:  E(RHF) =  -492.818366197     A.U. after   15 cycles
 SCF Done:  E(RHF) =  -492.843324299     A.U. after   14 cycles
 SCF Done:  E(RHF) =  -492.845064795     A.U. after   14 cycles
 SCF Done:  E(RHF) =  -492.851519775     A.U. after   13 cycles
 SCF Done:  E(RHF) =  -492.852335993     A.U. after   13 cycles
 SCF Done:  E(RHF) =  -492.852916558     A.U. after   12 cycles
 SCF Done:  E(RHF) =  -492.852979071     A.U. after   12 cycles
 SCF Done:  E(RHF) =  -492.853105996     A.U. after   13 cycles
 SCF Done:  E(RHF) =  -492.853203911     A.U. after   11 cycles
 SCF Done:  E(RHF) =  -492.853599582     A.U. after   14 cycles
 SCF Done:  E(RHF) =  -492.854090801     A.U. after   10 cycles
 SCF Done:  E(RHF) =  -492.854096980     A.U. after   11 cycles
 SCF Done:  E(RHF) =  -492.854062253     A.U. after   12 cycles
 SCF Done:  E(RHF) =  -492.854103429     A.U. after   11 cycles
 SCF Done:  E(RHF) =  -492.854113345     A.U. after   11 cycles
 SCF Done:  E(RHF) =  -492.854113506     A.U. after   10 cycles
 SCF Done:  E(RHF) =  -492.854113454     A.U. after    8 cycles
 SCF Done:  E(RHF) =  -492.854113684     A.U. after    9 cycles
 SCF Done:  E(RHF) =  -492.854113710     A.U. after    8 cycles
 SCF Done:  E(RHF) =  -492.854113713     A.U. after    6 cycles
 Optimization completed.
    -- Stationary point found.

                         Standard orientation:
 ---------------------------------------------------------------------
 Center     Atomic      Atomic             Coordinates (Angstroms)
 Number     Number       Type             X           Y           Z
 ---------------------------------------------------------------------
      1          1           0       -3.300979   -1.841576   -0.266814
      2          6           0       -3.179545   -0.777991   -0.419218
      3          1           0       -3.928340   -0.268010    0.177358
      4          1           0       -3.346104   -0.539602   -1.462667
      5          6           0       -1.811231   -0.370051    0.083176
      6          8           0       -1.362499   -0.834103    1.103095
      7          7           0       -1.164725    0.549002   -0.659434
      8          1           0       -1.594105    0.811083   -1.516025
      9          6           0        0.124264    1.184448   -0.388125
     10          1           0        0.332493    1.785274   -1.262045
     11          6           0        0.042462    2.115987    0.828517
     12          1           0       -0.180502    1.552470    1.725922
     13          1           0        0.984128    2.631538    0.959906
     14          1           0       -0.742822    2.848674    0.678181
     15          6           0        1.375456    0.300466   -0.262977
     16          8           0        2.439600    0.853612   -0.365271
     17          7           0        1.250240   -1.028206   -0.099845
     18          1           0        0.404045   -1.352977    0.312728
     19          6           0        2.437942   -1.833798    0.098638
     20          1           0        3.135181   -1.663807   -0.708604
     21          1           0        2.937417   -1.602767    1.033775
     22          1           0        2.148087   -2.876317    0.100579
 ---------------------------------------------------------------------

 The electronic state is 1-A.
 Alpha  occ. eigenvalues --  -20.53768 -20.51437 -15.60371 -15.56821 -11.36669
 Alpha  occ. eigenvalues --  -11.33818 -11.28684 -11.24571 -11.24513 -11.21825
 Alpha  occ. eigenvalues --   -1.40733  -1.38378  -1.25357  -1.21908  -1.05974
 Alpha  occ. eigenvalues --   -1.00113  -0.94886  -0.88504  -0.81061  -0.77056
 Alpha  occ. eigenvalues --   -0.72694  -0.70447  -0.65193  -0.63587  -0.62322
 Alpha  occ. eigenvalues --   -0.61588  -0.60385  -0.59232  -0.57988  -0.56199
 Alpha  occ. eigenvalues --   -0.54561  -0.54258  -0.52153  -0.52072  -0.49484
 Alpha  occ. eigenvalues --   -0.43463  -0.43112  -0.39344  -0.37687
 Alpha virt. eigenvalues --    0.17976   0.19223   0.21291   0.25716   0.26358
 Alpha virt. eigenvalues --    0.28265   0.29377   0.31297   0.31446   0.32426
 Alpha virt. eigenvalues --    0.33389   0.33947   0.34591   0.35193   0.37846

 Mulliken atomic charges:
              1
     1  H    0.213664
     2  C   -0.576196
     3  H    0.211139
     4  H    0.171496
     5  C    0.754706
     6  O   -0.638030
     7  N   -0.813132
     8  H    0.391888
     9  C   -0.020488
    10  H    0.214147
    11  C   -0.495972
    12  H    0.200297
    13  H    0.204009
    14  H    0.163897
    15  C    0.753240
    16  O   -0.622782
    17  N   -0.812987
    18  H    0.440930
    19  C   -0.277271
    20  H    0.194784
    21  H    0.175670
    22  H    0.166991
 Sum of Mulliken atomic charges =   0.00000

 Dipole moment (field-independent basis, Debye):
    X=             -4.1469    Y=             -0.3061    Z=             -2.2861  Tot=              4.7452
 Quadrupole moment (field-independent basis, Debye-Ang):
   XX=            -62.1678   YY=            -57.7531   ZZ=            -60.9621
   XY=             -7.1250   XZ=              7.2788   YZ=              0.6254

 Normal termination of Gaussian 09 at Thu Feb  9 19:17:44 2017.
