 Gaussian 09, Revision A.02,
 Gaussian 09:  EM64L-G09RevA.02 11-Jun-2009

 -------------------------------------------
 # HF/6-31G* Opt=(ModRedundant) geom=nocrowd
 -------------------------------------------

 ------------------
 Phi Psi fixed scan
 ------------------
 Symbolic Z-matrix:
 Charge =  0 Multiplicity = 1

 SCF Done:  E(RHF) =  -492.830240543     A.U. after   15 cycles
 SCF Done:  E(RHF) =  -492.845407647     A.U. after   13 cycles
 SCF Done:  E(RHF) =  -492.852592767     A.U. after   13 cycles
 SCF Done:  E(RHF) =  -492.853871849     A.U. after   13 cycles
 SCF Done:  E(RHF) =  -492.854002066     A.U. after   13 cycles
 SCF Done:  E(RHF) =  -492.854329805     A.U. after   12 cycles
 SCF Done:  E(RHF) =  -492.854387652     A.U. after   12 cycles
 SCF Done:  E(RHF) =  -492.854512215     A.U. after   11 cycles
 SCF Done:  E(RHF) =  -492.854603804     A.U. after   12 cycles
 SCF Done:  E(RHF) =  -492.854722688     A.U. after   13 cycles
 SCF Done:  E(RHF) =  -492.855283711     A.U. after   11 cycles
 SCF Done:  E(RHF) =  -492.855308728     A.U. after   11 cycles
 SCF Done:  E(RHF) =  -492.855311291     A.U. after   10 cycles
 SCF Done:  E(RHF) =  -492.855311702     A.U. after   10 cycles
 SCF Done:  E(RHF) =  -492.855311980     A.U. after    9 cycles
 SCF Done:  E(RHF) =  -492.855312141     A.U. after    8 cycles
 SCF Done:  E(RHF) =  -492.855312274     A.U. after    8 cycles
 SCF Done:  E(RHF) =  -492.855312367     A.U. after    8 cycles
 SCF Done:  E(RHF) =  -492.855312459     A.U. after    8 cycles
 SCF Done:  E(RHF) =  -492.855312497     A.U. after    8 cycles
 Optimization completed.
    -- Stationary point found.

                         Standard orientation:
 ---------------------------------------------------------------------
 Center     Atomic      Atomic             Coordinates (Angstroms)
 Number     Number       Type             X           Y           Z
 ---------------------------------------------------------------------
      1          1           0       -3.649675   -1.408682    0.115048
      2          6           0       -3.042255   -0.898928   -0.618661
      3          1           0       -3.615281   -0.102117   -1.077869
      4          1           0       -2.766989   -1.612408   -1.389340
      5          6           0       -1.783652   -0.397951    0.055911
      6          8           0       -1.329414   -0.955375    1.023443
      7          7           0       -1.229149    0.701923   -0.501730
      8          1           0       -1.623031    1.002183   -1.364107
      9          6           0        0.081182    1.277405   -0.186869
     10          1           0        0.227986    2.056701   -0.918793
     11          6           0        0.106987    1.903998    1.208790
     12          1           0       -0.084439    1.172374    1.980823
     13          1           0        1.074816    2.357689    1.393969
     14          1           0       -0.651747    2.675934    1.273650
     15          6           0        1.266026    0.327234   -0.435938
     16          8           0        1.999463    0.538937   -1.367274
     17          7           0        1.466672   -0.668543    0.443570
     18          1           0        0.706003   -0.919567    1.036247
     19          6           0        2.528725   -1.628196    0.233749
     20          1           0        3.471164   -1.115324    0.104822
     21          1           0        2.591271   -2.266948    1.104635
     22          1           0        2.354794   -2.243361   -0.643214
 ---------------------------------------------------------------------

 The electronic state is 1-A.
 Alpha  occ. eigenvalues --  -20.53964 -20.51576 -15.60211 -15.56728 -11.36574
 Alpha  occ. eigenvalues --  -11.33543 -11.28412 -11.24602 -11.24366 -11.22186
 Alpha  occ. eigenvalues --   -1.40734  -1.38238  -1.25125  -1.21924  -1.06026
 Alpha  occ. eigenvalues --   -1.00105  -0.94699  -0.88810  -0.80846  -0.76801
 Alpha  occ. eigenvalues --   -0.72357  -0.70489  -0.65340  -0.63519  -0.62707
 Alpha  occ. eigenvalues --   -0.61620  -0.60384  -0.58414  -0.57640  -0.56584
 Alpha  occ. eigenvalues --   -0.54665  -0.54036  -0.52588  -0.51506  -0.50917
 Alpha  occ. eigenvalues --   -0.44083  -0.42937  -0.38810  -0.37492
 Alpha virt. eigenvalues --    0.18324   0.19603   0.21623   0.25559   0.26072
 Alpha virt. eigenvalues --    0.27759   0.29148   0.30401   0.31220   0.32604
 Alpha virt. eigenvalues --    0.32910   0.33781   0.34180   0.36048   0.37609

 Mulliken atomic charges:
              1
     1  H    0.218381
     2  C   -0.587507
     3  H    0.180004
     4  H    0.205566
     5  C    0.761626
     6  O   -0.635323
     7  N   -0.807440
     8  H    0.392662
     9  C   -0.047159
    10  H    0.221347
    11  C   -0.486032
    12  H    0.199583
    13  H    0.177628
    14  H    0.171070
    15  C    0.749219
    16  O   -0.622643
    17  N   -0.799932
    18  H    0.447196
    19  C   -0.272678
    20  H    0.194106
    21  H    0.169242
    22  H    0.171084
 Sum of Mulliken atomic charges =   0.00000

 Dipole moment (field-independent basis, Debye):
    X=             -3.2514    Y=              0.3458    Z=             -0.3289  Tot=              3.2862
 Quadrupole moment (field-independent basis, Debye-Ang):
   XX=            -59.0590   YY=            -57.3657   ZZ=            -64.2638
   XY=             -4.8486   XZ=             11.5881   YZ=              2.0604

 Normal termination of Gaussian 09 at Thu Feb  9 19:01:08 2017.
