 Gaussian 09, Revision A.02,
 Gaussian 09:  EM64L-G09RevA.02 11-Jun-2009

 -------------------------------------------
 # HF/6-31G* Opt=(ModRedundant) geom=nocrowd
 -------------------------------------------

 ------------------
 Phi Psi fixed scan
 ------------------
 Symbolic Z-matrix:
 Charge =  0 Multiplicity = 1

 SCF Done:  E(RHF) =  -492.807590624     A.U. after   15 cycles
 SCF Done:  E(RHF) =  -492.836404292     A.U. after   14 cycles
 SCF Done:  E(RHF) =  -492.839791258     A.U. after   14 cycles
 SCF Done:  E(RHF) =  -492.850098097     A.U. after   14 cycles
 SCF Done:  E(RHF) =  -492.851434162     A.U. after   13 cycles
 SCF Done:  E(RHF) =  -492.853195233     A.U. after   13 cycles
 SCF Done:  E(RHF) =  -492.853654287     A.U. after   12 cycles
 SCF Done:  E(RHF) =  -492.853729276     A.U. after   13 cycles
 SCF Done:  E(RHF) =  -492.853988321     A.U. after   12 cycles
 SCF Done:  E(RHF) =  -492.854084984     A.U. after   12 cycles
 SCF Done:  E(RHF) =  -492.854882709     A.U. after   11 cycles
 SCF Done:  E(RHF) =  -492.854900326     A.U. after   11 cycles
 SCF Done:  E(RHF) =  -492.854909559     A.U. after   11 cycles
 SCF Done:  E(RHF) =  -492.854926323     A.U. after   11 cycles
 SCF Done:  E(RHF) =  -492.854939285     A.U. after   11 cycles
 SCF Done:  E(RHF) =  -492.854959982     A.U. after   11 cycles
 SCF Done:  E(RHF) =  -492.854977552     A.U. after   11 cycles
 SCF Done:  E(RHF) =  -492.854977748     A.U. after   10 cycles
 SCF Done:  E(RHF) =  -492.854979145     A.U. after   10 cycles
 SCF Done:  E(RHF) =  -492.854979193     A.U. after    7 cycles
 Optimization completed.
    -- Stationary point found.

                         Standard orientation:
 ---------------------------------------------------------------------
 Center     Atomic      Atomic             Coordinates (Angstroms)
 Number     Number       Type             X           Y           Z
 ---------------------------------------------------------------------
      1          1           0       -3.822148   -1.031268    0.271993
      2          6           0       -3.143642   -0.776399   -0.529763
      3          1           0       -3.597075   -0.025652   -1.165595
      4          1           0       -2.968679   -1.670544   -1.119524
      5          6           0       -1.829260   -0.331213    0.074721
      6          8           0       -1.412795   -0.834116    1.090154
      7          7           0       -1.177371    0.634944   -0.602047
      8          1           0       -1.577595    0.906166   -1.470460
      9          6           0        0.136729    1.216180   -0.322705
     10          1           0        0.329442    1.888770   -1.144934
     11          6           0        0.123244    2.033500    0.976187
     12          1           0       -0.082756    1.399087    1.828638
     13          1           0        1.083966    2.512956    1.116029
     14          1           0       -0.644586    2.797086    0.922029
     15          6           0        1.365721    0.293441   -0.320772
     16          8           0        2.418994    0.784148   -0.637986
     17          7           0        1.232030   -0.994767    0.029667
     18          1           0        0.406496   -1.260703    0.520283
     19          6           0        2.403507   -1.837533    0.143537
     20          1           0        2.974750   -1.803343   -0.773045
     21          1           0        3.050029   -1.527478    0.957759
     22          1           0        2.078166   -2.854426    0.318911
 ---------------------------------------------------------------------

 The electronic state is 1-A.
 Alpha  occ. eigenvalues --  -20.53899 -20.51313 -15.60397 -15.56767 -11.36750
 Alpha  occ. eigenvalues --  -11.33685 -11.28621 -11.24582 -11.24545 -11.22029
 Alpha  occ. eigenvalues --   -1.40786  -1.38221  -1.25357  -1.21896  -1.06074
 Alpha  occ. eigenvalues --   -1.00156  -0.94898  -0.88631  -0.80986  -0.77148
 Alpha  occ. eigenvalues --   -0.72718  -0.70504  -0.65275  -0.63447  -0.62276
 Alpha  occ. eigenvalues --   -0.61618  -0.60452  -0.59216  -0.57864  -0.56384
 Alpha  occ. eigenvalues --   -0.54636  -0.54408  -0.52380  -0.51977  -0.49574
 Alpha  occ. eigenvalues --   -0.43834  -0.43002  -0.39036  -0.37628
 Alpha virt. eigenvalues --    0.17904   0.19855   0.20945   0.25598   0.26391
 Alpha virt. eigenvalues --    0.28224   0.29138   0.31291   0.31617   0.32704
 Alpha virt. eigenvalues --    0.33089   0.33788   0.34555   0.35502   0.38044

 Mulliken atomic charges:
              1
     1  H    0.218524
     2  C   -0.582800
     3  H    0.175772
     4  H    0.206886
     5  C    0.762659
     6  O   -0.641327
     7  N   -0.811381
     8  H    0.392100
     9  C   -0.026885
    10  H    0.216538
    11  C   -0.497113
    12  H    0.201892
    13  H    0.197261
    14  H    0.169428
    15  C    0.749845
    16  O   -0.624936
    17  N   -0.822495
    18  H    0.452600
    19  C   -0.272758
    20  H    0.193257
    21  H    0.175398
    22  H    0.167536
 Sum of Mulliken atomic charges =   0.00000

 Dipole moment (field-independent basis, Debye):
    X=             -3.9674    Y=             -0.2144    Z=             -1.7800  Tot=              4.3537
 Quadrupole moment (field-independent basis, Debye-Ang):
   XX=            -62.9356   YY=            -57.5149   ZZ=            -61.0998
   XY=             -6.7532   XZ=              9.2402   YZ=              1.2573

 Normal termination of Gaussian 09 at Thu Feb  9 19:12:10 2017.
