 Gaussian 09, Revision A.02,
 Gaussian 09:  EM64L-G09RevA.02 11-Jun-2009

 -------------------------------------------
 # HF/6-31G* Opt=(ModRedundant) geom=nocrowd
 -------------------------------------------

 ------------------
 Phi Psi fixed scan
 ------------------
 Symbolic Z-matrix:
 Charge =  0 Multiplicity = 1

 SCF Done:  E(RHF) =  -492.817186080     A.U. after   16 cycles
 SCF Done:  E(RHF) =  -492.835521113     A.U. after   14 cycles
 SCF Done:  E(RHF) =  -492.839642620     A.U. after   15 cycles
 SCF Done:  E(RHF) =  -492.840815275     A.U. after   13 cycles
 SCF Done:  E(RHF) =  -492.842069138     A.U. after   14 cycles
 SCF Done:  E(RHF) =  -492.842591509     A.U. after   13 cycles
 SCF Done:  E(RHF) =  -492.843001036     A.U. after   13 cycles
 SCF Done:  E(RHF) =  -492.843191284     A.U. after   12 cycles
 SCF Done:  E(RHF) =  -492.843246959     A.U. after   11 cycles
 SCF Done:  E(RHF) =  -492.843273857     A.U. after   11 cycles
 SCF Done:  E(RHF) =  -492.843504899     A.U. after   12 cycles
 SCF Done:  E(RHF) =  -492.843499436     A.U. after   13 cycles
 SCF Done:  E(RHF) =  -492.843582164     A.U. after   11 cycles
 SCF Done:  E(RHF) =  -492.843631162     A.U. after   11 cycles
 SCF Done:  E(RHF) =  -492.843658053     A.U. after   11 cycles
 SCF Done:  E(RHF) =  -492.843661994     A.U. after   10 cycles
 SCF Done:  E(RHF) =  -492.843663225     A.U. after   10 cycles
 SCF Done:  E(RHF) =  -492.843666032     A.U. after   10 cycles
 SCF Done:  E(RHF) =  -492.843666238     A.U. after    8 cycles
 SCF Done:  E(RHF) =  -492.843666252     A.U. after    7 cycles
 Optimization completed.
    -- Stationary point found.

                         Standard orientation:
 ---------------------------------------------------------------------
 Center     Atomic      Atomic             Coordinates (Angstroms)
 Number     Number       Type             X           Y           Z
 ---------------------------------------------------------------------
      1          1           0       -3.691908   -1.493708    0.234025
      2          6           0       -2.877920   -1.331509   -0.456750
      3          1           0       -3.273915   -1.110580   -1.442666
      4          1           0       -2.285745   -2.239447   -0.522490
      5          6           0       -2.005374   -0.209821    0.064690
      6          8           0       -2.085918    0.189299    1.185338
      7          7           0       -1.168872    0.343020   -0.887082
      8          1           0       -1.157209   -0.177400   -1.737676
      9          6           0        0.134785    0.914624   -0.586602
     10          1           0        0.538824    1.212950   -1.547852
     11          6           0        0.047029    2.162247    0.298645
     12          1           0       -0.324230    1.910116    1.279607
     13          1           0        1.027759    2.619517    0.394407
     14          1           0       -0.624772    2.881139   -0.154939
     15          6           0        1.088563   -0.111042    0.042203
     16          8           0        0.743771   -0.895332    0.879065
     17          7           0        2.342703   -0.103535   -0.472857
     18          1           0        2.609163    0.648883   -1.065066
     19          6           0        3.396440   -0.909768    0.107980
     20          1           0        3.038644   -1.918031    0.252540
     21          1           0        4.237124   -0.927499   -0.573151
     22          1           0        3.725489   -0.522462    1.066608
 ---------------------------------------------------------------------

 The electronic state is 1-A.
 Alpha  occ. eigenvalues --  -20.52504 -20.51728 -15.59076 -15.58052 -11.34471
 Alpha  occ. eigenvalues --  -11.34124 -11.28520 -11.26044 -11.22490 -11.21732
 Alpha  occ. eigenvalues --   -1.39720  -1.38283  -1.23837  -1.23089  -1.05254
 Alpha  occ. eigenvalues --   -0.98704  -0.95958  -0.87684  -0.79971  -0.77103
 Alpha  occ. eigenvalues --   -0.71234  -0.69482  -0.65343  -0.63284  -0.62477
 Alpha  occ. eigenvalues --   -0.61795  -0.59499  -0.58622  -0.56403  -0.55866
 Alpha  occ. eigenvalues --   -0.55604  -0.53352  -0.52637  -0.50673  -0.49912
 Alpha  occ. eigenvalues --   -0.44086  -0.40810  -0.39405  -0.37640
 Alpha virt. eigenvalues --    0.18574   0.19838   0.21958   0.23209   0.26138
 Alpha virt. eigenvalues --    0.28112   0.29179   0.30687   0.31331   0.31779
 Alpha virt. eigenvalues --    0.33615   0.33808   0.34186   0.34754   0.37113

 Mulliken atomic charges:
              1
     1  H    0.214529
     2  C   -0.600537
     3  H    0.175024
     4  H    0.200477
     5  C    0.764303
     6  O   -0.575133
     7  N   -0.777824
     8  H    0.369768
     9  C   -0.058094
    10  H    0.177858
    11  C   -0.487696
    12  H    0.240332
    13  H    0.149000
    14  H    0.181799
    15  C    0.758750
    16  O   -0.595817
    17  N   -0.794515
    18  H    0.380730
    19  C   -0.277318
    20  H    0.208031
    21  H    0.167942
    22  H    0.178389
 Sum of Mulliken atomic charges =   0.00000

 Dipole moment (field-independent basis, Debye):
    X=              3.0224    Y=              0.6676    Z=             -5.2163  Tot=              6.0655
 Quadrupole moment (field-independent basis, Debye-Ang):
   XX=            -52.1614   YY=            -59.1284   ZZ=            -62.7600
   XY=              5.4794   XZ=              3.4667   YZ=              1.4366

 Normal termination of Gaussian 09 at Thu Feb  9 18:33:45 2017.
