 Gaussian 09, Revision A.02,
 Gaussian 09:  EM64L-G09RevA.02 11-Jun-2009

 -------------------------------------------
 # HF/6-31G* Opt=(ModRedundant) geom=nocrowd
 -------------------------------------------

 ------------------
 Phi Psi fixed scan
 ------------------
 Symbolic Z-matrix:
 Charge =  0 Multiplicity = 1

 SCF Done:  E(RHF) =  -492.840401442     A.U. after   15 cycles
 SCF Done:  E(RHF) =  -492.849204408     A.U. after   14 cycles
 SCF Done:  E(RHF) =  -492.850911813     A.U. after   13 cycles
 SCF Done:  E(RHF) =  -492.851152186     A.U. after   13 cycles
 SCF Done:  E(RHF) =  -492.851920586     A.U. after   13 cycles
 SCF Done:  E(RHF) =  -492.852514888     A.U. after   13 cycles
 SCF Done:  E(RHF) =  -492.852654091     A.U. after   12 cycles
 SCF Done:  E(RHF) =  -492.852686398     A.U. after   12 cycles
 SCF Done:  E(RHF) =  -492.852761412     A.U. after   11 cycles
 SCF Done:  E(RHF) =  -492.852908818     A.U. after   11 cycles
 SCF Done:  E(RHF) =  -492.853290010     A.U. after   13 cycles
 SCF Done:  E(RHF) =  -492.853332666     A.U. after   11 cycles
 SCF Done:  E(RHF) =  -492.853385840     A.U. after   11 cycles
 SCF Done:  E(RHF) =  -492.853389491     A.U. after   10 cycles
 SCF Done:  E(RHF) =  -492.853398054     A.U. after   11 cycles
 SCF Done:  E(RHF) =  -492.853402139     A.U. after   10 cycles
 SCF Done:  E(RHF) =  -492.853403058     A.U. after    9 cycles
 SCF Done:  E(RHF) =  -492.853403295     A.U. after    8 cycles
 SCF Done:  E(RHF) =  -492.853403391     A.U. after    8 cycles
 SCF Done:  E(RHF) =  -492.853403422     A.U. after    7 cycles
 Optimization completed.
    -- Stationary point found.

                         Standard orientation:
 ---------------------------------------------------------------------
 Center     Atomic      Atomic             Coordinates (Angstroms)
 Number     Number       Type             X           Y           Z
 ---------------------------------------------------------------------
      1          1           0       -3.203079   -1.906283    0.653494
      2          6           0       -3.019360   -1.122491   -0.066651
      3          1           0       -3.793081   -0.367888    0.039509
      4          1           0       -3.075715   -1.526827   -1.071206
      5          6           0       -1.671770   -0.497113    0.222353
      6          8           0       -1.139087   -0.581966    1.291437
      7          7           0       -1.098649    0.161486   -0.825920
      8          1           0       -1.672540    0.323849   -1.622810
      9          6           0        0.032282    1.069968   -0.656733
     10          1           0        0.331600    1.347583   -1.662579
     11          6           0       -0.328294    2.331455    0.122580
     12          1           0       -0.607228    2.085824    1.137941
     13          1           0        0.516541    3.005261    0.158235
     14          1           0       -1.158500    2.836283   -0.362588
     15          6           0        1.256998    0.368075   -0.054397
     16          8           0        1.966089    0.925750    0.733037
     17          7           0        1.554505   -0.838141   -0.592625
     18          1           0        0.815121   -1.316464   -1.053166
     19          6           0        2.620448   -1.641954   -0.032010
     20          1           0        3.517989   -1.046878    0.044870
     21          1           0        2.370813   -2.017800    0.954764
     22          1           0        2.809245   -2.477984   -0.693292
 ---------------------------------------------------------------------

 The electronic state is 1-A.
 Alpha  occ. eigenvalues --  -20.53626 -20.51555 -15.59822 -15.57150 -11.35931
 Alpha  occ. eigenvalues --  -11.33690 -11.28301 -11.24618 -11.24324 -11.21096
 Alpha  occ. eigenvalues --   -1.40588  -1.38385  -1.25085  -1.21805  -1.05473
 Alpha  occ. eigenvalues --   -0.99732  -0.95249  -0.87505  -0.80849  -0.76890
 Alpha  occ. eigenvalues --   -0.71565  -0.69851  -0.65004  -0.64391  -0.62457
 Alpha  occ. eigenvalues --   -0.61258  -0.60164  -0.58894  -0.57735  -0.56098
 Alpha  occ. eigenvalues --   -0.54271  -0.52799  -0.52388  -0.51590  -0.50465
 Alpha  occ. eigenvalues --   -0.43064  -0.42140  -0.39327  -0.38077
 Alpha virt. eigenvalues --    0.18660   0.18985   0.22392   0.25007   0.26135
 Alpha virt. eigenvalues --    0.28219   0.28994   0.29657   0.30677   0.31745
 Alpha virt. eigenvalues --    0.32835   0.33356   0.34084   0.34788   0.37380

 Mulliken atomic charges:
              1
     1  H    0.219780
     2  C   -0.589966
     3  H    0.200614
     4  H    0.178093
     5  C    0.736343
     6  O   -0.584876
     7  N   -0.819018
     8  H    0.382777
     9  C   -0.054152
    10  H    0.203737
    11  C   -0.474254
    12  H    0.208927
    13  H    0.194624
    14  H    0.144685
    15  C    0.791765
    16  O   -0.611814
    17  N   -0.780533
    18  H    0.386744
    19  C   -0.279288
    20  H    0.201566
    21  H    0.181998
    22  H    0.162250
 Sum of Mulliken atomic charges =   0.00000

 Dipole moment (field-independent basis, Debye):
    X=             -3.6096    Y=             -1.4277    Z=             -5.0611  Tot=              6.3782
 Quadrupole moment (field-independent basis, Debye-Ang):
   XX=            -56.8035   YY=            -57.1588   ZZ=            -63.1693
   XY=             -4.7927   XZ=              1.3428   YZ=             -0.7968

 Normal termination of Gaussian 09 at Thu Feb  9 18:17:18 2017.
