 Gaussian 09, Revision A.02,
 Gaussian 09:  EM64L-G09RevA.02 11-Jun-2009

 -------------------------------------------
 # HF/6-31G* Opt=(ModRedundant) geom=nocrowd
 -------------------------------------------

 ------------------
 Phi Psi fixed scan
 ------------------
 Symbolic Z-matrix:
 Charge =  0 Multiplicity = 1

 SCF Done:  E(RHF) =  -492.806965568     A.U. after   15 cycles
 SCF Done:  E(RHF) =  -492.831802782     A.U. after   14 cycles
 SCF Done:  E(RHF) =  -492.846087640     A.U. after   14 cycles
 SCF Done:  E(RHF) =  -492.851572867     A.U. after   13 cycles
 SCF Done:  E(RHF) =  -492.852324769     A.U. after   14 cycles
 SCF Done:  E(RHF) =  -492.853655271     A.U. after   13 cycles
 SCF Done:  E(RHF) =  -492.854347038     A.U. after   12 cycles
 SCF Done:  E(RHF) =  -492.854469852     A.U. after   12 cycles
 SCF Done:  E(RHF) =  -492.854477219     A.U. after   12 cycles
 SCF Done:  E(RHF) =  -492.854548923     A.U. after   10 cycles
 SCF Done:  E(RHF) =  -492.855373045     A.U. after   12 cycles
 SCF Done:  E(RHF) =  -492.855402485     A.U. after   11 cycles
 SCF Done:  E(RHF) =  -492.855408029     A.U. after   10 cycles
 SCF Done:  E(RHF) =  -492.855410823     A.U. after   10 cycles
 SCF Done:  E(RHF) =  -492.855412313     A.U. after    9 cycles
 SCF Done:  E(RHF) =  -492.855413059     A.U. after    9 cycles
 SCF Done:  E(RHF) =  -492.855414349     A.U. after   10 cycles
 SCF Done:  E(RHF) =  -492.855416026     A.U. after   10 cycles
 SCF Done:  E(RHF) =  -492.855416289     A.U. after    9 cycles
 SCF Done:  E(RHF) =  -492.855416328     A.U. after    8 cycles
 Optimization completed.
    -- Stationary point found.

                         Standard orientation:
 ---------------------------------------------------------------------
 Center     Atomic      Atomic             Coordinates (Angstroms)
 Number     Number       Type             X           Y           Z
 ---------------------------------------------------------------------
      1          1           0       -3.794285   -1.132712    0.166841
      2          6           0       -3.122101   -0.777430   -0.601052
      3          1           0       -3.599960    0.013429   -1.166636
      4          1           0       -2.909607   -1.603136   -1.272880
      5          6           0       -1.829082   -0.340326    0.053281
      6          8           0       -1.421895   -0.890114    1.047585
      7          7           0       -1.192363    0.682852   -0.553161
      8          1           0       -1.581531    0.984028   -1.417023
      9          6           0        0.128755    1.240496   -0.253184
     10          1           0        0.305960    1.976463   -1.022059
     11          6           0        0.146171    1.946153    1.108560
     12          1           0       -0.051676    1.248890    1.911710
     13          1           0        1.114919    2.404522    1.270815
     14          1           0       -0.611958    2.720887    1.130664
     15          6           0        1.344644    0.306499   -0.363475
     16          8           0        2.339668    0.740208   -0.887295
     17          7           0        1.272244   -0.923380    0.160857
     18          1           0        0.464383   -1.176071    0.686331
     19          6           0        2.429935   -1.790378    0.167536
     20          1           0        2.821813   -1.906469   -0.833821
     21          1           0        3.221147   -1.397686    0.796446
     22          1           0        2.129511   -2.759278    0.543414
 ---------------------------------------------------------------------

 The electronic state is 1-A.
 Alpha  occ. eigenvalues --  -20.53977 -20.51199 -15.60391 -15.56710 -11.36766
 Alpha  occ. eigenvalues --  -11.33534 -11.28547 -11.24635 -11.24513 -11.22184
 Alpha  occ. eigenvalues --   -1.40802  -1.38054  -1.25321  -1.21860  -1.06116
 Alpha  occ. eigenvalues --   -1.00184  -0.94895  -0.88727  -0.80956  -0.77176
 Alpha  occ. eigenvalues --   -0.72656  -0.70542  -0.65281  -0.63403  -0.62320
 Alpha  occ. eigenvalues --   -0.61579  -0.60455  -0.59039  -0.57825  -0.56596
 Alpha  occ. eigenvalues --   -0.54644  -0.54414  -0.52547  -0.51887  -0.49822
 Alpha  occ. eigenvalues --   -0.44062  -0.42910  -0.38694  -0.37545
 Alpha virt. eigenvalues --    0.17980   0.19959   0.21183   0.25622   0.26321
 Alpha virt. eigenvalues --    0.28030   0.29102   0.30884   0.31616   0.32512
 Alpha virt. eigenvalues --    0.32946   0.33852   0.34417   0.35882   0.37752

 Mulliken atomic charges:
              1
     1  H    0.218690
     2  C   -0.584675
     3  H    0.177299
     4  H    0.206546
     5  C    0.766344
     6  O   -0.642198
     7  N   -0.811050
     8  H    0.392115
     9  C   -0.036027
    10  H    0.219444
    11  C   -0.496074
    12  H    0.202267
    13  H    0.189895
    14  H    0.172125
    15  C    0.751465
    16  O   -0.626725
    17  N   -0.825832
    18  H    0.459606
    19  C   -0.267690
    20  H    0.188923
    21  H    0.177614
    22  H    0.167937
 Sum of Mulliken atomic charges =   0.00000

 Dipole moment (field-independent basis, Debye):
    X=             -3.8076    Y=             -0.0498    Z=             -1.2249  Tot=              4.0001
 Quadrupole moment (field-independent basis, Debye-Ang):
   XX=            -62.4440   YY=            -57.5202   ZZ=            -61.6975
   XY=             -6.6466   XZ=             10.5907   YZ=              1.8512

 Normal termination of Gaussian 09 at Thu Feb  9 19:09:02 2017.
