 Gaussian 09, Revision A.02,
 Gaussian 09:  EM64L-G09RevA.02 11-Jun-2009

 -------------------------------------------
 # HF/6-31G* Opt=(ModRedundant) geom=nocrowd
 -------------------------------------------

 ------------------
 Phi Psi fixed scan
 ------------------
 Symbolic Z-matrix:
 Charge =  0 Multiplicity = 1

 SCF Done:  E(RHF) =  -492.833275391     A.U. after   15 cycles
 SCF Done:  E(RHF) =  -492.843422566     A.U. after   14 cycles
 SCF Done:  E(RHF) =  -492.844787097     A.U. after   13 cycles
 SCF Done:  E(RHF) =  -492.845074705     A.U. after   12 cycles
 SCF Done:  E(RHF) =  -492.845188252     A.U. after   13 cycles
 SCF Done:  E(RHF) =  -492.845496843     A.U. after   13 cycles
 SCF Done:  E(RHF) =  -492.845733221     A.U. after   14 cycles
 SCF Done:  E(RHF) =  -492.845964862     A.U. after   13 cycles
 SCF Done:  E(RHF) =  -492.846128524     A.U. after   12 cycles
 SCF Done:  E(RHF) =  -492.846216736     A.U. after   12 cycles
 SCF Done:  E(RHF) =  -492.846690841     A.U. after   12 cycles
 SCF Done:  E(RHF) =  -492.846704292     A.U. after   12 cycles
 SCF Done:  E(RHF) =  -492.846720870     A.U. after   12 cycles
 SCF Done:  E(RHF) =  -492.846722952     A.U. after   11 cycles
 SCF Done:  E(RHF) =  -492.846723802     A.U. after    9 cycles
 SCF Done:  E(RHF) =  -492.846723852     A.U. after    8 cycles
 SCF Done:  E(RHF) =  -492.846723874     A.U. after    7 cycles
 SCF Done:  E(RHF) =  -492.846723893     A.U. after    7 cycles
 SCF Done:  E(RHF) =  -492.846723925     A.U. after    8 cycles
 SCF Done:  E(RHF) =  -492.846723939     A.U. after    7 cycles
 Optimization completed.
    -- Stationary point found.

                         Standard orientation:
 ---------------------------------------------------------------------
 Center     Atomic      Atomic             Coordinates (Angstroms)
 Number     Number       Type             X           Y           Z
 ---------------------------------------------------------------------
      1          1           0       -3.366538   -1.850100    0.628314
      2          6           0       -3.076631   -1.177055   -0.165006
      3          1           0       -3.847206   -0.419889   -0.276798
      4          1           0       -3.001012   -1.723706   -1.098649
      5          6           0       -1.768255   -0.512696    0.212605
      6          8           0       -1.364131   -0.486573    1.337145
      7          7           0       -1.090301    0.042607   -0.833853
      8          1           0       -1.580150    0.095326   -1.698407
      9          6           0        0.041293    0.958087   -0.698739
     10          1           0        0.388916    1.133342   -1.710381
     11          6           0       -0.348889    2.287878   -0.060823
     12          1           0       -0.670448    2.136155    0.959195
     13          1           0        0.495768    2.966335   -0.051448
     14          1           0       -1.153418    2.745248   -0.628850
     15          6           0        1.213580    0.311294    0.059343
     16          8           0        1.567316    0.681362    1.138001
     17          7           0        1.915199   -0.595278   -0.674184
     18          1           0        1.433661   -1.019996   -1.434956
     19          6           0        2.966567   -1.375082   -0.052840
     20          1           0        3.647879   -0.710947    0.456944
     21          1           0        2.580110   -2.088441    0.668112
     22          1           0        3.506685   -1.907500   -0.825214
 ---------------------------------------------------------------------

 The electronic state is 1-A.
 Alpha  occ. eigenvalues --  -20.52821 -20.51890 -15.59401 -15.57735 -11.35277
 Alpha  occ. eigenvalues --  -11.33807 -11.28389 -11.24979 -11.23779 -11.21087
 Alpha  occ. eigenvalues --   -1.39904  -1.38635  -1.24589  -1.22173  -1.05334
 Alpha  occ. eigenvalues --   -0.99359  -0.95435  -0.87397  -0.80644  -0.76882
 Alpha  occ. eigenvalues --   -0.71084  -0.69480  -0.64714  -0.64462  -0.62443
 Alpha  occ. eigenvalues --   -0.61276  -0.60098  -0.58695  -0.57287  -0.56177
 Alpha  occ. eigenvalues --   -0.54482  -0.52789  -0.51980  -0.51216  -0.50913
 Alpha  occ. eigenvalues --   -0.42942  -0.41429  -0.38993  -0.38376
 Alpha virt. eigenvalues --    0.18330   0.19675   0.21987   0.24149   0.26243
 Alpha virt. eigenvalues --    0.27749   0.28688   0.30135   0.31366   0.31828
 Alpha virt. eigenvalues --    0.32555   0.33553   0.34196   0.34549   0.37643

 Mulliken atomic charges:
              1
     1  H    0.219498
     2  C   -0.591482
     3  H    0.195735
     4  H    0.176883
     5  C    0.739048
     6  O   -0.574900
     7  N   -0.813868
     8  H    0.379836
     9  C   -0.060359
    10  H    0.193763
    11  C   -0.475199
    12  H    0.223770
    13  H    0.177198
    14  H    0.146482
    15  C    0.792967
    16  O   -0.587455
    17  N   -0.782786
    18  H    0.374638
    19  C   -0.281617
    20  H    0.206056
    21  H    0.177468
    22  H    0.164325
 Sum of Mulliken atomic charges =   0.00000

 Dipole moment (field-independent basis, Debye):
    X=             -1.9373    Y=             -1.3101    Z=             -6.2152  Tot=              6.6407
 Quadrupole moment (field-independent basis, Debye-Ang):
   XX=            -53.9400   YY=            -57.3686   ZZ=            -63.9157
   XY=             -3.5076   XZ=              1.3092   YZ=             -0.1443

 Normal termination of Gaussian 09 at Thu Feb  9 18:22:33 2017.
