 Gaussian 09, Revision A.02,
 Gaussian 09:  EM64L-G09RevA.02 11-Jun-2009

 -------------------------------------------
 # HF/6-31G* Opt=(ModRedundant) geom=nocrowd
 -------------------------------------------

 ------------------
 Phi Psi fixed scan
 ------------------
 Symbolic Z-matrix:
 Charge =  0 Multiplicity = 1

 SCF Done:  E(RHF) =  -492.834178416     A.U. after   15 cycles
 SCF Done:  E(RHF) =  -492.845837285     A.U. after   14 cycles
 SCF Done:  E(RHF) =  -492.850011268     A.U. after   14 cycles
 SCF Done:  E(RHF) =  -492.850771300     A.U. after   13 cycles
 SCF Done:  E(RHF) =  -492.851508907     A.U. after   13 cycles
 SCF Done:  E(RHF) =  -492.852101366     A.U. after   13 cycles
 SCF Done:  E(RHF) =  -492.852591402     A.U. after   13 cycles
 SCF Done:  E(RHF) =  -492.852856324     A.U. after   11 cycles
 SCF Done:  E(RHF) =  -492.852917083     A.U. after   11 cycles
 SCF Done:  E(RHF) =  -492.852985225     A.U. after   11 cycles
 SCF Done:  E(RHF) =  -492.853066178     A.U. after   11 cycles
 SCF Done:  E(RHF) =  -492.853200526     A.U. after   11 cycles
 SCF Done:  E(RHF) =  -492.853414781     A.U. after   13 cycles
 SCF Done:  E(RHF) =  -492.853492636     A.U. after   11 cycles
 SCF Done:  E(RHF) =  -492.853569589     A.U. after   12 cycles
 SCF Done:  E(RHF) =  -492.853567629     A.U. after   12 cycles
 SCF Done:  E(RHF) =  -492.853593832     A.U. after   11 cycles
 SCF Done:  E(RHF) =  -492.853598437     A.U. after    9 cycles
 SCF Done:  E(RHF) =  -492.853604191     A.U. after   11 cycles
 SCF Done:  E(RHF) =  -492.853605090     A.U. after    9 cycles
 Optimization completed.
    -- Stationary point found.

                         Standard orientation:
 ---------------------------------------------------------------------
 Center     Atomic      Atomic             Coordinates (Angstroms)
 Number     Number       Type             X           Y           Z
 ---------------------------------------------------------------------
      1          1           0       -3.590982   -1.207776    0.987656
      2          6           0       -3.068818   -1.033909    0.058105
      3          1           0       -3.727954   -0.543301   -0.648967
      4          1           0       -2.770337   -1.991289   -0.358443
      5          6           0       -1.827816   -0.216998    0.333415
      6          8           0       -1.329513   -0.149476    1.422495
      7          7           0       -1.314367    0.440950   -0.747448
      8          1           0       -1.590726    0.080395   -1.633170
      9          6           0        0.035804    0.970940   -0.702229
     10          1           0        0.253175    1.297293   -1.714540
     11          6           0        0.149698    2.195884    0.206270
     12          1           0        0.029449    1.935801    1.248098
     13          1           0        1.104047    2.693010    0.062324
     14          1           0       -0.628158    2.901476   -0.058821
     15          6           0        1.031134   -0.177388   -0.461222
     16          8           0        0.821864   -1.255647   -0.948603
     17          7           0        2.168065    0.113467    0.203732
     18          1           0        2.179567    0.920695    0.781185
     19          6           0        3.127720   -0.930158    0.503281
     20          1           0        3.374367   -1.465588   -0.401317
     21          1           0        4.025189   -0.471915    0.897662
     22          1           0        2.741339   -1.638960    1.227479
 ---------------------------------------------------------------------

 The electronic state is 1-A.
 Alpha  occ. eigenvalues --  -20.52551 -20.51923 -15.58277 -15.58040 -11.34622
 Alpha  occ. eigenvalues --  -11.34155 -11.28201 -11.25321 -11.22799 -11.22348
 Alpha  occ. eigenvalues --   -1.39723  -1.38503  -1.23537  -1.23021  -1.05354
 Alpha  occ. eigenvalues --   -0.99073  -0.95099  -0.88630  -0.79793  -0.76957
 Alpha  occ. eigenvalues --   -0.71679  -0.69943  -0.64928  -0.63903  -0.61782
 Alpha  occ. eigenvalues --   -0.61507  -0.59732  -0.58432  -0.56456  -0.55744
 Alpha  occ. eigenvalues --   -0.55155  -0.54409  -0.53049  -0.51016  -0.49895
 Alpha  occ. eigenvalues --   -0.42268  -0.41660  -0.39460  -0.38688
 Alpha virt. eigenvalues --    0.19252   0.20443   0.22381   0.23782   0.26332
 Alpha virt. eigenvalues --    0.27454   0.29683   0.30707   0.31210   0.32241
 Alpha virt. eigenvalues --    0.33282   0.33779   0.34294   0.34848   0.37481

 Mulliken atomic charges:
              1
     1  H    0.211932
     2  C   -0.594386
     3  H    0.180659
     4  H    0.209038
     5  C    0.750265
     6  O   -0.609291
     7  N   -0.761576
     8  H    0.387064
     9  C   -0.054113
    10  H    0.207837
    11  C   -0.517936
    12  H    0.217960
    13  H    0.156279
    14  H    0.188912
    15  C    0.788911
    16  O   -0.631928
    17  N   -0.800087
    18  H    0.395826
    19  C   -0.277167
    20  H    0.201160
    21  H    0.166485
    22  H    0.184155
 Sum of Mulliken atomic charges =   0.00000

 Dipole moment (field-independent basis, Debye):
    X=              0.4094    Y=              2.2752    Z=             -1.3386  Tot=              2.6713
 Quadrupole moment (field-independent basis, Debye-Ang):
   XX=            -49.4573   YY=            -61.2076   ZZ=            -62.8259
   XY=              4.0941   XZ=              7.9554   YZ=             -1.8081

 Normal termination of Gaussian 09 at Thu Feb  9 18:48:42 2017.
