 Gaussian 09, Revision A.02,
 Gaussian 09:  EM64L-G09RevA.02 11-Jun-2009

 -------------------------------------------
 # HF/6-31G* Opt=(ModRedundant) geom=nocrowd
 -------------------------------------------

 ------------------
 Phi Psi fixed scan
 ------------------
 Symbolic Z-matrix:
 Charge =  0 Multiplicity = 1

 SCF Done:  E(RHF) =  -492.819491567     A.U. after   15 cycles
 SCF Done:  E(RHF) =  -492.838761138     A.U. after   13 cycles
 SCF Done:  E(RHF) =  -492.849556227     A.U. after   14 cycles
 SCF Done:  E(RHF) =  -492.852794417     A.U. after   13 cycles
 SCF Done:  E(RHF) =  -492.853696423     A.U. after   13 cycles
 SCF Done:  E(RHF) =  -492.854350524     A.U. after   13 cycles
 SCF Done:  E(RHF) =  -492.854473553     A.U. after   12 cycles
 SCF Done:  E(RHF) =  -492.854580974     A.U. after   12 cycles
 SCF Done:  E(RHF) =  -492.854681503     A.U. after   12 cycles
 SCF Done:  E(RHF) =  -492.854723722     A.U. after   11 cycles
 SCF Done:  E(RHF) =  -492.855411917     A.U. after   12 cycles
 SCF Done:  E(RHF) =  -492.855403110     A.U. after   11 cycles
 SCF Done:  E(RHF) =  -492.855420282     A.U. after   11 cycles
 SCF Done:  E(RHF) =  -492.855450930     A.U. after   11 cycles
 SCF Done:  E(RHF) =  -492.855465764     A.U. after   11 cycles
 SCF Done:  E(RHF) =  -492.855482387     A.U. after   11 cycles
 SCF Done:  E(RHF) =  -492.855484179     A.U. after    9 cycles
 SCF Done:  E(RHF) =  -492.855485212     A.U. after   10 cycles
 SCF Done:  E(RHF) =  -492.855485365     A.U. after    8 cycles
 SCF Done:  E(RHF) =  -492.855485361     A.U. after    7 cycles
 Optimization completed.
    -- Stationary point found.

                         Standard orientation:
 ---------------------------------------------------------------------
 Center     Atomic      Atomic             Coordinates (Angstroms)
 Number     Number       Type             X           Y           Z
 ---------------------------------------------------------------------
      1          1           0       -3.739250   -1.255918    0.104914
      2          6           0       -3.088845   -0.815582   -0.637032
      3          1           0       -3.605050   -0.007726   -1.141804
      4          1           0       -2.843355   -1.578561   -1.369252
      5          6           0       -1.813555   -0.365597    0.042730
      6          8           0       -1.394034   -0.939908    1.017149
      7          7           0       -1.208197    0.703464   -0.517814
      8          1           0       -1.597737    1.022300   -1.375329
      9          6           0        0.109818    1.261465   -0.201483
     10          1           0        0.272580    2.032814   -0.937979
     11          6           0        0.134006    1.900067    1.190964
     12          1           0       -0.060567    1.169538    1.963953
     13          1           0        1.103709    2.350751    1.372786
     14          1           0       -0.622110    2.674812    1.251521
     15          6           0        1.312970    0.322762   -0.394592
     16          8           0        2.203636    0.671474   -1.127871
     17          7           0        1.353509   -0.815070    0.310381
     18          1           0        0.557595   -1.077462    0.848851
     19          6           0        2.472433   -1.722729    0.187973
     20          1           0        3.398941   -1.229028    0.451182
     21          1           0        2.312836   -2.554390    0.860934
     22          1           0        2.567448   -2.100728   -0.823333
 ---------------------------------------------------------------------

 The electronic state is 1-A.
 Alpha  occ. eigenvalues --  -20.54015 -20.51266 -15.60354 -15.56678 -11.36726
 Alpha  occ. eigenvalues --  -11.33460 -11.28478 -11.24648 -11.24472 -11.22222
 Alpha  occ. eigenvalues --   -1.40799  -1.38034  -1.25258  -1.21850  -1.06102
 Alpha  occ. eigenvalues --   -1.00176  -0.94828  -0.88788  -0.80938  -0.77067
 Alpha  occ. eigenvalues --   -0.72527  -0.70543  -0.65304  -0.63417  -0.62499
 Alpha  occ. eigenvalues --   -0.61590  -0.60445  -0.58705  -0.57765  -0.56698
 Alpha  occ. eigenvalues --   -0.54679  -0.54242  -0.52622  -0.51736  -0.50281
 Alpha  occ. eigenvalues --   -0.44146  -0.42902  -0.38583  -0.37473
 Alpha virt. eigenvalues --    0.18127   0.19852   0.21437   0.25597   0.26222
 Alpha virt. eigenvalues --    0.27881   0.29067   0.30481   0.31434   0.32412
 Alpha virt. eigenvalues --    0.33018   0.33845   0.34308   0.36103   0.37445

 Mulliken atomic charges:
              1
     1  H    0.218699
     2  C   -0.586031
     3  H    0.178613
     4  H    0.206022
     5  C    0.765296
     6  O   -0.639923
     7  N   -0.810613
     8  H    0.392385
     9  C   -0.043501
    10  H    0.221582
    11  C   -0.491612
    12  H    0.201824
    13  H    0.182638
    14  H    0.171945
    15  C    0.752437
    16  O   -0.626299
    17  N   -0.818563
    18  H    0.458852
    19  C   -0.266632
    20  H    0.186628
    21  H    0.168403
    22  H    0.177851
 Sum of Mulliken atomic charges =   0.00000

 Dipole moment (field-independent basis, Debye):
    X=             -3.5971    Y=              0.1190    Z=             -0.7424  Tot=              3.6749
 Quadrupole moment (field-independent basis, Debye-Ang):
   XX=            -61.1081   YY=            -57.4564   ZZ=            -62.8223
   XY=             -6.0720   XZ=             11.4303   YZ=              2.1929

 Normal termination of Gaussian 09 at Thu Feb  9 19:05:31 2017.
