 Gaussian 09, Revision A.02,
 Gaussian 09:  EM64L-G09RevA.02 11-Jun-2009

 -------------------------------------------
 # HF/6-31G* Opt=(ModRedundant) geom=nocrowd
 -------------------------------------------

 ------------------
 Phi Psi fixed scan
 ------------------
 Symbolic Z-matrix:
 Charge =  0 Multiplicity = 1

 SCF Done:  E(RHF) =  -492.818380263     A.U. after   16 cycles
 SCF Done:  E(RHF) =  -492.835656890     A.U. after   14 cycles
 SCF Done:  E(RHF) =  -492.838881783     A.U. after   14 cycles
 SCF Done:  E(RHF) =  -492.839593137     A.U. after   13 cycles
 SCF Done:  E(RHF) =  -492.840481570     A.U. after   13 cycles
 SCF Done:  E(RHF) =  -492.841049314     A.U. after   14 cycles
 SCF Done:  E(RHF) =  -492.841073009     A.U. after   13 cycles
 SCF Done:  E(RHF) =  -492.841388615     A.U. after   13 cycles
 SCF Done:  E(RHF) =  -492.841433873     A.U. after   11 cycles
 SCF Done:  E(RHF) =  -492.841455545     A.U. after   11 cycles
 SCF Done:  E(RHF) =  -492.841788418     A.U. after   12 cycles
 SCF Done:  E(RHF) =  -492.841557323     A.U. after   13 cycles
 SCF Done:  E(RHF) =  -492.841820165     A.U. after   12 cycles
 SCF Done:  E(RHF) =  -492.841810086     A.U. after   12 cycles
 SCF Done:  E(RHF) =  -492.841818519     A.U. after   10 cycles
 SCF Done:  E(RHF) =  -492.841840369     A.U. after   11 cycles
 SCF Done:  E(RHF) =  -492.841849677     A.U. after   11 cycles
 SCF Done:  E(RHF) =  -492.841850587     A.U. after    9 cycles
 SCF Done:  E(RHF) =  -492.841850613     A.U. after    8 cycles
 SCF Done:  E(RHF) =  -492.841850625     A.U. after    7 cycles
 Optimization completed.
    -- Stationary point found.

                         Standard orientation:
 ---------------------------------------------------------------------
 Center     Atomic      Atomic             Coordinates (Angstroms)
 Number     Number       Type             X           Y           Z
 ---------------------------------------------------------------------
      1          1           0       -3.665058   -1.570528    0.261716
      2          6           0       -2.849329   -1.422518   -0.430108
      3          1           0       -3.243240   -1.233362   -1.423389
      4          1           0       -2.252522   -2.329197   -0.468645
      5          6           0       -1.991052   -0.274694    0.061965
      6          8           0       -2.094330    0.166453    1.164322
      7          7           0       -1.142094    0.237786   -0.897547
      8          1           0       -1.108928   -0.316529   -1.725353
      9          6           0        0.127991    0.902058   -0.627007
     10          1           0        0.529795    1.138126   -1.606065
     11          6           0       -0.047813    2.210230    0.146561
     12          1           0       -0.424663    2.015351    1.138240
     13          1           0        0.905346    2.725829    0.222946
     14          1           0       -0.746093    2.852072   -0.377639
     15          6           0        1.119895   -0.006938    0.113041
     16          8           0        0.880160   -0.503467    1.175615
     17          7           0        2.282388   -0.235263   -0.546207
     18          1           0        2.490350    0.302226   -1.355053
     19          6           0        3.362029   -0.973885    0.074857
     20          1           0        2.979974   -1.895268    0.488747
     21          1           0        4.103830   -1.205573   -0.678167
     22          1           0        3.832194   -0.410214    0.873596
 ---------------------------------------------------------------------

 The electronic state is 1-A.
 Alpha  occ. eigenvalues --  -20.52234 -20.51899 -15.59055 -15.58334 -11.34323
 Alpha  occ. eigenvalues --  -11.34281 -11.28546 -11.26014 -11.22757 -11.21369
 Alpha  occ. eigenvalues --   -1.39553  -1.38421  -1.23901  -1.23056  -1.05247
 Alpha  occ. eigenvalues --   -0.98784  -0.96020  -0.87534  -0.80069  -0.77196
 Alpha  occ. eigenvalues --   -0.71265  -0.69474  -0.65307  -0.63485  -0.62522
 Alpha  occ. eigenvalues --   -0.61633  -0.59676  -0.58712  -0.56300  -0.55826
 Alpha  occ. eigenvalues --   -0.55591  -0.53194  -0.52065  -0.50796  -0.50160
 Alpha  occ. eigenvalues --   -0.44119  -0.40928  -0.39305  -0.37444
 Alpha virt. eigenvalues --    0.18617   0.19574   0.21803   0.23434   0.26085
 Alpha virt. eigenvalues --    0.28156   0.29052   0.30776   0.31167   0.31784
 Alpha virt. eigenvalues --    0.33348   0.33712   0.34221   0.34981   0.37285

 Mulliken atomic charges:
              1
     1  H    0.216492
     2  C   -0.598109
     3  H    0.177077
     4  H    0.194549
     5  C    0.755459
     6  O   -0.566650
     7  N   -0.788254
     8  H    0.370334
     9  C   -0.044260
    10  H    0.172706
    11  C   -0.490950
    12  H    0.244058
    13  H    0.152499
    14  H    0.176983
    15  C    0.761856
    16  O   -0.591633
    17  N   -0.800082
    18  H    0.380916
    19  C   -0.275497
    20  H    0.206157
    21  H    0.166585
    22  H    0.179764
 Sum of Mulliken atomic charges =   0.00000

 Dipole moment (field-independent basis, Debye):
    X=              2.7297    Y=             -0.2503    Z=             -5.9542  Tot=              6.5549
 Quadrupole moment (field-independent basis, Debye-Ang):
   XX=            -53.0283   YY=            -57.9306   ZZ=            -63.3803
   XY=              4.4625   XZ=              1.8590   YZ=              1.1657

 Normal termination of Gaussian 09 at Thu Feb  9 18:30:53 2017.
