 Gaussian 09, Revision A.02,
 Gaussian 09:  EM64L-G09RevA.02 11-Jun-2009

 -------------------------------------------
 # HF/6-31G* Opt=(ModRedundant) geom=nocrowd
 -------------------------------------------

 ------------------
 Phi Psi fixed scan
 ------------------
 Symbolic Z-matrix:
 Charge =  0 Multiplicity = 1

 SCF Done:  E(RHF) =  -492.821375620     A.U. after   15 cycles
 SCF Done:  E(RHF) =  -492.837573099     A.U. after   14 cycles
 SCF Done:  E(RHF) =  -492.842206710     A.U. after   15 cycles
 SCF Done:  E(RHF) =  -492.843582222     A.U. after   13 cycles
 SCF Done:  E(RHF) =  -492.844955609     A.U. after   14 cycles
 SCF Done:  E(RHF) =  -492.845417116     A.U. after   13 cycles
 SCF Done:  E(RHF) =  -492.845831133     A.U. after   13 cycles
 SCF Done:  E(RHF) =  -492.845985836     A.U. after   12 cycles
 SCF Done:  E(RHF) =  -492.846027627     A.U. after   11 cycles
 SCF Done:  E(RHF) =  -492.846063447     A.U. after   12 cycles
 SCF Done:  E(RHF) =  -492.846113641     A.U. after   11 cycles
 SCF Done:  E(RHF) =  -492.846147062     A.U. after   11 cycles
 SCF Done:  E(RHF) =  -492.846210441     A.U. after   11 cycles
 SCF Done:  E(RHF) =  -492.846366278     A.U. after   12 cycles
 SCF Done:  E(RHF) =  -492.846402837     A.U. after   11 cycles
 SCF Done:  E(RHF) =  -492.846415146     A.U. after   12 cycles
 SCF Done:  E(RHF) =  -492.846419569     A.U. after   12 cycles
 SCF Done:  E(RHF) =  -492.846440231     A.U. after   11 cycles
 SCF Done:  E(RHF) =  -492.846442759     A.U. after   11 cycles
 SCF Done:  E(RHF) =  -492.846443626     A.U. after    9 cycles
 Optimization completed.
    -- Stationary point found.

                         Standard orientation:
 ---------------------------------------------------------------------
 Center     Atomic      Atomic             Coordinates (Angstroms)
 Number     Number       Type             X           Y           Z
 ---------------------------------------------------------------------
      1          1           0       -3.721669   -1.385454    0.326616
      2          6           0       -2.939978   -1.228229   -0.401717
      3          1           0       -3.378479   -0.956259   -1.356287
      4          1           0       -2.385927   -2.153128   -0.529775
      5          6           0       -1.995182   -0.163597    0.109531
      6          8           0       -1.983523    0.183976    1.251227
      7          7           0       -1.199643    0.406313   -0.865865
      8          1           0       -1.236660   -0.088032   -1.731076
      9          6           0        0.130955    0.915590   -0.589083
     10          1           0        0.522472    1.233050   -1.549877
     11          6           0        0.122954    2.136255    0.339902
     12          1           0       -0.209885    1.867308    1.330169
     13          1           0        1.117047    2.568851    0.403085
     14          1           0       -0.549707    2.885498   -0.059618
     15          6           0        1.061432   -0.183805   -0.054376
     16          8           0        0.659138   -1.158009    0.515405
     17          7           0        2.369648   -0.011771   -0.364970
     18          1           0        2.659408    0.870465   -0.720224
     19          6           0        3.390692   -0.887016    0.173268
     20          1           0        3.085250   -1.914461    0.045309
     21          1           0        4.312018   -0.722537   -0.369991
     22          1           0        3.565954   -0.710015    1.229310
 ---------------------------------------------------------------------

 The electronic state is 1-A.
 Alpha  occ. eigenvalues --  -20.52727 -20.51623 -15.58970 -15.57846 -11.34543
 Alpha  occ. eigenvalues --  -11.34021 -11.28468 -11.26009 -11.22270 -11.22014
 Alpha  occ. eigenvalues --   -1.39849  -1.38193  -1.23752  -1.23096  -1.05244
 Alpha  occ. eigenvalues --   -0.98626  -0.95821  -0.87880  -0.79866  -0.77036
 Alpha  occ. eigenvalues --   -0.71289  -0.69508  -0.65306  -0.63177  -0.62357
 Alpha  occ. eigenvalues --   -0.61898  -0.59375  -0.58525  -0.56465  -0.55898
 Alpha  occ. eigenvalues --   -0.55527  -0.53445  -0.53122  -0.50628  -0.49765
 Alpha  occ. eigenvalues --   -0.43821  -0.40786  -0.39400  -0.37969
 Alpha virt. eigenvalues --    0.18800   0.20151   0.21815   0.22898   0.26196
 Alpha virt. eigenvalues --    0.27861   0.29611   0.30759   0.31621   0.31947
 Alpha virt. eigenvalues --    0.33354   0.33872   0.34419   0.34847   0.37408

 Mulliken atomic charges:
              1
     1  H    0.212538
     2  C   -0.602160
     3  H    0.174055
     4  H    0.206081
     5  C    0.768473
     6  O   -0.584716
     7  N   -0.769518
     8  H    0.370993
     9  C   -0.068992
    10  H    0.185533
    11  C   -0.484512
    12  H    0.236583
    13  H    0.144263
    14  H    0.184791
    15  C    0.761510
    16  O   -0.600777
    17  N   -0.792690
    18  H    0.380984
    19  C   -0.276967
    20  H    0.207900
    21  H    0.168344
    22  H    0.178287
 Sum of Mulliken atomic charges =   0.00000

 Dipole moment (field-independent basis, Debye):
    X=              2.9280    Y=              1.2849    Z=             -4.4604  Tot=              5.4881
 Quadrupole moment (field-independent basis, Debye-Ang):
   XX=            -51.0900   YY=            -60.2453   ZZ=            -62.3423
   XY=              5.7407   XZ=              4.8648   YZ=              1.1028

 Normal termination of Gaussian 09 at Thu Feb  9 18:36:14 2017.
