 Gaussian 09, Revision A.02,
 Gaussian 09:  EM64L-G09RevA.02 11-Jun-2009

 -------------------------------------------
 # HF/6-31G* Opt=(ModRedundant) geom=nocrowd
 -------------------------------------------

 ------------------
 Phi Psi fixed scan
 ------------------
 Symbolic Z-matrix:
 Charge =  0 Multiplicity = 1

 SCF Done:  E(RHF) =  -492.833020506     A.U. after   15 cycles
 SCF Done:  E(RHF) =  -492.846931705     A.U. after   15 cycles
 SCF Done:  E(RHF) =  -492.851689569     A.U. after   13 cycles
 SCF Done:  E(RHF) =  -492.852900629     A.U. after   13 cycles
 SCF Done:  E(RHF) =  -492.853278204     A.U. after   13 cycles
 SCF Done:  E(RHF) =  -492.853576627     A.U. after   13 cycles
 SCF Done:  E(RHF) =  -492.853810386     A.U. after   13 cycles
 SCF Done:  E(RHF) =  -492.853942322     A.U. after   12 cycles
 SCF Done:  E(RHF) =  -492.854047923     A.U. after   11 cycles
 SCF Done:  E(RHF) =  -492.854292568     A.U. after   13 cycles
 SCF Done:  E(RHF) =  -492.854711264     A.U. after   12 cycles
 SCF Done:  E(RHF) =  -492.854729749     A.U. after   11 cycles
 SCF Done:  E(RHF) =  -492.854732753     A.U. after   11 cycles
 SCF Done:  E(RHF) =  -492.854739973     A.U. after   11 cycles
 SCF Done:  E(RHF) =  -492.854741372     A.U. after    9 cycles
 SCF Done:  E(RHF) =  -492.854742162     A.U. after    9 cycles
 SCF Done:  E(RHF) =  -492.854742557     A.U. after    8 cycles
 SCF Done:  E(RHF) =  -492.854743318     A.U. after    9 cycles
 SCF Done:  E(RHF) =  -492.854743820     A.U. after   10 cycles
 SCF Done:  E(RHF) =  -492.854743852     A.U. after    7 cycles
 Optimization completed.
    -- Stationary point found.

                         Standard orientation:
 ---------------------------------------------------------------------
 Center     Atomic      Atomic             Coordinates (Angstroms)
 Number     Number       Type             X           Y           Z
 ---------------------------------------------------------------------
      1          1           0        3.551302   -1.543198   -0.254686
      2          6           0        3.001626   -1.014074    0.510118
      3          1           0        3.635218   -0.259036    0.960473
      4          1           0        2.714459   -1.724223    1.279616
      5          6           0        1.751315   -0.426275   -0.106236
      6          8           0        1.241392   -0.912068   -1.083281
      7          7           0        1.259382    0.671018    0.516109
      8          1           0        1.660570    0.902076    1.396317
      9          6           0       -0.044006    1.275572    0.238811
     10          1           0       -0.175836    2.023361    1.006630
     11          6           0       -0.077165    1.968016   -1.123444
     12          1           0        0.117725    1.281281   -1.934582
     13          1           0       -1.045675    2.428761   -1.284759
     14          1           0        0.680133    2.743671   -1.148947
     15          6           0       -1.203284    0.296213    0.496031
     16          8           0       -1.733710    0.288118    1.575871
     17          7           0       -1.607775   -0.477326   -0.530818
     18          1           0       -0.931277   -0.652878   -1.240674
     19          6           0       -2.622095   -1.488088   -0.316758
     20          1           0       -3.493291   -1.039007    0.136893
     21          1           0       -2.899865   -1.905860   -1.275376
     22          1           0       -2.274511   -2.287380    0.330198
 ---------------------------------------------------------------------

 The electronic state is 1-A.
 Alpha  occ. eigenvalues --  -20.53753 -20.51840 -15.59898 -15.56934 -11.36261
 Alpha  occ. eigenvalues --  -11.33670 -11.28326 -11.24599 -11.24155 -11.22148
 Alpha  occ. eigenvalues --   -1.40551  -1.38456  -1.24864  -1.22079  -1.05882
 Alpha  occ. eigenvalues --   -0.99953  -0.94617  -0.88796  -0.80654  -0.76619
 Alpha  occ. eigenvalues --   -0.72164  -0.70348  -0.65327  -0.63720  -0.62710
 Alpha  occ. eigenvalues --   -0.61640  -0.60207  -0.58253  -0.57440  -0.56319
 Alpha  occ. eigenvalues --   -0.54662  -0.53974  -0.52421  -0.51514  -0.51163
 Alpha  occ. eigenvalues --   -0.43801  -0.42885  -0.39107  -0.37596
 Alpha virt. eigenvalues --    0.18556   0.19416   0.21909   0.25434   0.25842
 Alpha virt. eigenvalues --    0.27629   0.29320   0.30202   0.31132   0.32495
 Alpha virt. eigenvalues --    0.32826   0.33849   0.34099   0.35861   0.38172

 Mulliken atomic charges:
              1
     1  H    0.217367
     2  C   -0.588521
     3  H    0.180845
     4  H    0.205592
     5  C    0.756659
     6  O   -0.629878
     7  N   -0.800682
     8  H    0.392835
     9  C   -0.046300
    10  H    0.218418
    11  C   -0.484265
    12  H    0.196416
    13  H    0.175954
    14  H    0.171366
    15  C    0.745503
    16  O   -0.618756
    17  N   -0.781913
    18  H    0.429801
    19  C   -0.277667
    20  H    0.196685
    21  H    0.169400
    22  H    0.171142
 Sum of Mulliken atomic charges =   0.00000

 Dipole moment (field-independent basis, Debye):
    X=              2.7706    Y=              0.6574    Z=             -0.0456  Tot=              2.8479
 Quadrupole moment (field-independent basis, Debye-Ang):
   XX=            -56.6810   YY=            -57.2694   ZZ=            -65.5045
   XY=              3.0799   XZ=             11.2148   YZ=             -1.1666

 Normal termination of Gaussian 09 at Thu Feb  9 18:58:20 2017.
