 Gaussian 09, Revision A.02,
 Gaussian 09:  EM64L-G09RevA.02 11-Jun-2009

 -------------------------------------------
 # HF/6-31G* Opt=(ModRedundant) geom=nocrowd
 -------------------------------------------

 ------------------
 Phi Psi fixed scan
 ------------------
 Symbolic Z-matrix:
 Charge =  0 Multiplicity = 1

 SCF Done:  E(RHF) =  -492.834028925     A.U. after   15 cycles
 SCF Done:  E(RHF) =  -492.846685247     A.U. after   14 cycles
 SCF Done:  E(RHF) =  -492.850763740     A.U. after   13 cycles
 SCF Done:  E(RHF) =  -492.851508155     A.U. after   13 cycles
 SCF Done:  E(RHF) =  -492.851926247     A.U. after   16 cycles
 SCF Done:  E(RHF) =  -492.852486513     A.U. after   13 cycles
 SCF Done:  E(RHF) =  -492.852746769     A.U. after   13 cycles
 SCF Done:  E(RHF) =  -492.853038414     A.U. after   12 cycles
 SCF Done:  E(RHF) =  -492.853126607     A.U. after   10 cycles
 SCF Done:  E(RHF) =  -492.853343606     A.U. after   16 cycles
 SCF Done:  E(RHF) =  -492.853536545     A.U. after   12 cycles
 SCF Done:  E(RHF) =  -492.853715557     A.U. after   12 cycles
 SCF Done:  E(RHF) =  -492.853769513     A.U. after   12 cycles
 SCF Done:  E(RHF) =  -492.853807555     A.U. after   12 cycles
 SCF Done:  E(RHF) =  -492.853815182     A.U. after   11 cycles
 SCF Done:  E(RHF) =  -492.853816324     A.U. after   10 cycles
 SCF Done:  E(RHF) =  -492.853817333     A.U. after    9 cycles
 SCF Done:  E(RHF) =  -492.853818484     A.U. after   10 cycles
 SCF Done:  E(RHF) =  -492.853819077     A.U. after    9 cycles
 SCF Done:  E(RHF) =  -492.853819247     A.U. after    8 cycles
 Optimization completed.
    -- Stationary point found.

                         Standard orientation:
 ---------------------------------------------------------------------
 Center     Atomic      Atomic             Coordinates (Angstroms)
 Number     Number       Type             X           Y           Z
 ---------------------------------------------------------------------
      1          1           0        3.519576   -1.309881   -0.998486
      2          6           0        3.041394   -1.068893   -0.060256
      3          1           0        3.728603   -0.520293    0.573448
      4          1           0        2.776648   -1.994566    0.441986
      5          6           0        1.778548   -0.286109   -0.337425
      6          8           0        1.213446   -0.330019   -1.396246
      7          7           0        1.320842    0.467606    0.699912
      8          1           0        1.657575    0.221359    1.603200
      9          6           0       -0.013046    1.043919    0.664620
     10          1           0       -0.181792    1.443341    1.658364
     11          6           0       -0.114462    2.206097   -0.322060
     12          1           0        0.043002    1.884498   -1.342051
     13          1           0       -1.081605    2.691598   -0.240804
     14          1           0        0.646154    2.938957   -0.080477
     15          6           0       -1.051769   -0.085026    0.546634
     16          8           0       -0.975282   -1.025057    1.291856
     17          7           0       -2.055187    0.068888   -0.340189
     18          1           0       -1.907717    0.698661   -1.093901
     19          6           0       -3.006322   -1.002745   -0.555319
     20          1           0       -3.412358   -1.320357    0.393307
     21          1           0       -3.810913   -0.632275   -1.176930
     22          1           0       -2.548125   -1.859349   -1.037767
 ---------------------------------------------------------------------

 The electronic state is 1-A.
 Alpha  occ. eigenvalues --  -20.52801 -20.51763 -15.58414 -15.58017 -11.34957
 Alpha  occ. eigenvalues --  -11.34006 -11.28170 -11.25088 -11.23127 -11.22299
 Alpha  occ. eigenvalues --   -1.39826  -1.38486  -1.23776  -1.22816  -1.05447
 Alpha  occ. eigenvalues --   -0.99285  -0.94933  -0.88699  -0.79889  -0.76969
 Alpha  occ. eigenvalues --   -0.71737  -0.70040  -0.64929  -0.64000  -0.61942
 Alpha  occ. eigenvalues --   -0.61493  -0.59706  -0.58364  -0.56656  -0.55737
 Alpha  occ. eigenvalues --   -0.54915  -0.54551  -0.52904  -0.51245  -0.50118
 Alpha  occ. eigenvalues --   -0.42391  -0.41922  -0.39555  -0.38282
 Alpha virt. eigenvalues --    0.19041   0.20290   0.22600   0.23940   0.26205
 Alpha virt. eigenvalues --    0.27442   0.29738   0.30410   0.31182   0.32019
 Alpha virt. eigenvalues --    0.32856   0.34061   0.34506   0.34539   0.38050

 Mulliken atomic charges:
              1
     1  H    0.213045
     2  C   -0.591749
     3  H    0.181293
     4  H    0.207744
     5  C    0.748696
     6  O   -0.614607
     7  N   -0.768314
     8  H    0.390233
     9  C   -0.048415
    10  H    0.208372
    11  C   -0.516610
    12  H    0.210617
    13  H    0.166000
    14  H    0.184758
    15  C    0.781506
    16  O   -0.630418
    17  N   -0.791907
    18  H    0.397694
    19  C   -0.278850
    20  H    0.201019
    21  H    0.166893
    22  H    0.183000
 Sum of Mulliken atomic charges =   0.00000

 Dipole moment (field-independent basis, Debye):
    X=              0.4613    Y=              2.1457    Z=              0.5616  Tot=              2.2655
 Quadrupole moment (field-independent basis, Debye-Ang):
   XX=            -50.5253   YY=            -60.2693   ZZ=            -63.6908
   XY=             -3.0221   XZ=              8.7800   YZ=              2.2714

 Normal termination of Gaussian 09 at Thu Feb  9 18:51:13 2017.
