 Gaussian 09, Revision A.02,
 Gaussian 09:  EM64L-G09RevA.02 11-Jun-2009

 -------------------------------------------
 # HF/6-31G* Opt=(ModRedundant) geom=nocrowd
 -------------------------------------------

 ------------------
 Phi Psi fixed scan
 ------------------
 Symbolic Z-matrix:
 Charge =  0 Multiplicity = 1

 SCF Done:  E(RHF) =  -492.828275648     A.U. after   15 cycles
 SCF Done:  E(RHF) =  -492.840934236     A.U. after   14 cycles
 SCF Done:  E(RHF) =  -492.845333625     A.U. after   14 cycles
 SCF Done:  E(RHF) =  -492.846693927     A.U. after   13 cycles
 SCF Done:  E(RHF) =  -492.847650403     A.U. after   14 cycles
 SCF Done:  E(RHF) =  -492.848331219     A.U. after   12 cycles
 SCF Done:  E(RHF) =  -492.848430527     A.U. after   12 cycles
 SCF Done:  E(RHF) =  -492.848683770     A.U. after   12 cycles
 SCF Done:  E(RHF) =  -492.848732517     A.U. after   12 cycles
 SCF Done:  E(RHF) =  -492.848755409     A.U. after   11 cycles
 SCF Done:  E(RHF) =  -492.848900681     A.U. after   13 cycles
 SCF Done:  E(RHF) =  -492.849004548     A.U. after   12 cycles
 SCF Done:  E(RHF) =  -492.849097985     A.U. after   11 cycles
 SCF Done:  E(RHF) =  -492.849149001     A.U. after   11 cycles
 SCF Done:  E(RHF) =  -492.849108554     A.U. after   11 cycles
 SCF Done:  E(RHF) =  -492.849165625     A.U. after   11 cycles
 SCF Done:  E(RHF) =  -492.849167703     A.U. after    9 cycles
 SCF Done:  E(RHF) =  -492.849171266     A.U. after   10 cycles
 SCF Done:  E(RHF) =  -492.849171543     A.U. after   10 cycles
 SCF Done:  E(RHF) =  -492.849171659     A.U. after    8 cycles
 Optimization completed.
    -- Stationary point found.

                         Standard orientation:
 ---------------------------------------------------------------------
 Center     Atomic      Atomic             Coordinates (Angstroms)
 Number     Number       Type             X           Y           Z
 ---------------------------------------------------------------------
      1          1           0       -3.733270   -1.282125    0.492076
      2          6           0       -3.006712   -1.136908   -0.293721
      3          1           0       -3.505811   -0.804911   -1.197954
      4          1           0       -2.515764   -2.083071   -0.499295
      5          6           0       -1.965075   -0.145727    0.172617
      6          8           0       -1.822573    0.139279    1.324303
      7          7           0       -1.232032    0.432240   -0.841448
      8          1           0       -1.326481   -0.043662   -1.712227
      9          6           0        0.115563    0.916314   -0.617953
     10          1           0        0.478116    1.229204   -1.592159
     11          6           0        0.161593    2.138476    0.308716
     12          1           0       -0.094479    1.871833    1.322175
     13          1           0        1.146986    2.594099    0.298613
     14          1           0       -0.549444    2.875531   -0.043722
     15          6           0        1.042209   -0.221050   -0.155606
     16          8           0        0.629545   -1.306529    0.142656
     17          7           0        2.365625    0.055536   -0.228020
     18          1           0        2.649487    0.999824   -0.349673
     19          6           0        3.355595   -0.889959    0.245865
     20          1           0        3.152290   -1.865190   -0.170622
     21          1           0        4.333016   -0.562829   -0.083585
     22          1           0        3.355390   -0.972009    1.327471
 ---------------------------------------------------------------------

 The electronic state is 1-A.
 Alpha  occ. eigenvalues --  -20.52711 -20.51674 -15.58789 -15.57723 -11.34506
 Alpha  occ. eigenvalues --  -11.34002 -11.28401 -11.25905 -11.22206 -11.22186
 Alpha  occ. eigenvalues --   -1.39849  -1.38204  -1.23595  -1.23119  -1.05215
 Alpha  occ. eigenvalues --   -0.98603  -0.95637  -0.88109  -0.79805  -0.76988
 Alpha  occ. eigenvalues --   -0.71402  -0.69550  -0.65223  -0.63220  -0.62208
 Alpha  occ. eigenvalues --   -0.61797  -0.59407  -0.58424  -0.56369  -0.56016
 Alpha  occ. eigenvalues --   -0.55425  -0.53577  -0.53321  -0.50607  -0.49705
 Alpha  occ. eigenvalues --   -0.43340  -0.40901  -0.39304  -0.38366
 Alpha virt. eigenvalues --    0.19207   0.20543   0.21254   0.23030   0.26219
 Alpha virt. eigenvalues --    0.27686   0.30137   0.30778   0.31818   0.32120
 Alpha virt. eigenvalues --    0.33032   0.33896   0.34355   0.35178   0.37345

 Mulliken atomic charges:
              1
     1  H    0.211159
     2  C   -0.601684
     3  H    0.174703
     4  H    0.209578
     5  C    0.766425
     6  O   -0.593009
     7  N   -0.763296
     8  H    0.373807
     9  C   -0.071809
    10  H    0.193968
    11  C   -0.485325
    12  H    0.232604
    13  H    0.139557
    14  H    0.187015
    15  C    0.769134
    16  O   -0.609377
    17  N   -0.795832
    18  H    0.384103
    19  C   -0.274338
    20  H    0.204664
    21  H    0.167421
    22  H    0.180532
 Sum of Mulliken atomic charges =   0.00000

 Dipole moment (field-independent basis, Debye):
    X=              2.5426    Y=              1.7193    Z=             -3.7548  Tot=              4.8497
 Quadrupole moment (field-independent basis, Debye-Ang):
   XX=            -49.9468   YY=            -61.0015   ZZ=            -62.2029
   XY=              5.5629   XZ=              5.7884   YZ=              0.5012

 Normal termination of Gaussian 09 at Thu Feb  9 18:39:02 2017.
