 Gaussian 09, Revision A.02,
 Gaussian 09:  EM64L-G09RevA.02 11-Jun-2009

 -------------------------------------------
 # HF/6-31G* Opt=(ModRedundant) geom=nocrowd
 -------------------------------------------

 ------------------
 Phi Psi fixed scan
 ------------------
 Symbolic Z-matrix:
 Charge =  0 Multiplicity = 1

 SCF Done:  E(RHF) =  -492.838968207     A.U. after   15 cycles
 SCF Done:  E(RHF) =  -492.849248716     A.U. after   13 cycles
 SCF Done:  E(RHF) =  -492.850861773     A.U. after   13 cycles
 SCF Done:  E(RHF) =  -492.851098816     A.U. after   13 cycles
 SCF Done:  E(RHF) =  -492.851482489     A.U. after   12 cycles
 SCF Done:  E(RHF) =  -492.851688324     A.U. after   13 cycles
 SCF Done:  E(RHF) =  -492.851669536     A.U. after   14 cycles
 SCF Done:  E(RHF) =  -492.851933118     A.U. after   12 cycles
 SCF Done:  E(RHF) =  -492.852019112     A.U. after   11 cycles
 SCF Done:  E(RHF) =  -492.852163134     A.U. after   12 cycles
 SCF Done:  E(RHF) =  -492.852306219     A.U. after   11 cycles
 SCF Done:  E(RHF) =  -492.852728633     A.U. after   14 cycles
 SCF Done:  E(RHF) =  -492.852707293     A.U. after   13 cycles
 SCF Done:  E(RHF) =  -492.852759987     A.U. after   11 cycles
 SCF Done:  E(RHF) =  -492.852760831     A.U. after    9 cycles
 SCF Done:  E(RHF) =  -492.852762327     A.U. after   10 cycles
 SCF Done:  E(RHF) =  -492.852763150     A.U. after    9 cycles
 SCF Done:  E(RHF) =  -492.852764099     A.U. after   10 cycles
 SCF Done:  E(RHF) =  -492.852764385     A.U. after    9 cycles
 SCF Done:  E(RHF) =  -492.852764445     A.U. after    8 cycles
 Optimization completed.
    -- Stationary point found.

                         Standard orientation:
 ---------------------------------------------------------------------
 Center     Atomic      Atomic             Coordinates (Angstroms)
 Number     Number       Type             X           Y           Z
 ---------------------------------------------------------------------
      1          1           0       -3.336471   -1.824012    0.326861
      2          6           0       -3.127611   -0.915286   -0.218710
      3          1           0       -3.862999   -0.168497    0.064305
      4          1           0       -3.221223   -1.098002   -1.283252
      5          6           0       -1.750118   -0.418310    0.165979
      6          8           0       -1.238921   -0.705756    1.214778
      7          7           0       -1.143189    0.375077   -0.749119
      8          1           0       -1.642425    0.577456   -1.584242
      9          6           0        0.086243    1.129757   -0.531113
     10          1           0        0.331678    1.557229   -1.497035
     11          6           0       -0.118204    2.272744    0.466802
     12          1           0       -0.372854    1.881386    1.443478
     13          1           0        0.784559    2.859304    0.552500
     14          1           0       -0.926440    2.912318    0.127200
     15          6           0        1.340120    0.320647   -0.168035
     16          8           0        2.324038    0.921052    0.170946
     17          7           0        1.332461   -1.013325   -0.366134
     18          1           0        0.451843   -1.468210   -0.336289
     19          6           0        2.480193   -1.800405    0.037565
     20          1           0        3.375159   -1.389808   -0.405134
     21          1           0        2.605050   -1.814953    1.115104
     22          1           0        2.344547   -2.813734   -0.317454
 ---------------------------------------------------------------------

 The electronic state is 1-A.
 Alpha  occ. eigenvalues --  -20.53653 -20.51583 -15.60005 -15.57250 -11.36239
 Alpha  occ. eigenvalues --  -11.33939 -11.28589 -11.24624 -11.24494 -11.21233
 Alpha  occ. eigenvalues --   -1.40640  -1.38546  -1.25189  -1.22009  -1.05690
 Alpha  occ. eigenvalues --   -0.99881  -0.95113  -0.88012  -0.80965  -0.77288
 Alpha  occ. eigenvalues --   -0.72291  -0.70122  -0.65208  -0.63975  -0.62420
 Alpha  occ. eigenvalues --   -0.61529  -0.60300  -0.59071  -0.57869  -0.55940
 Alpha  occ. eigenvalues --   -0.54463  -0.53693  -0.52138  -0.51910  -0.49837
 Alpha  occ. eigenvalues --   -0.43217  -0.42703  -0.39520  -0.37855
 Alpha virt. eigenvalues --    0.18689   0.18789   0.21584   0.25461   0.26073
 Alpha virt. eigenvalues --    0.28584   0.29334   0.30139   0.30492   0.31898
 Alpha virt. eigenvalues --    0.33293   0.33531   0.34315   0.34959   0.37065

 Mulliken atomic charges:
              1
     1  H    0.217102
     2  C   -0.585886
     3  H    0.205505
     4  H    0.175985
     5  C    0.730822
     6  O   -0.608226
     7  N   -0.819951
     8  H    0.388697
     9  C   -0.027542
    10  H    0.209928
    11  C   -0.486639
    12  H    0.200699
    13  H    0.208111
    14  H    0.152668
    15  C    0.779159
    16  O   -0.621043
    17  N   -0.783956
    18  H    0.400910
    19  C   -0.280371
    20  H    0.198970
    21  H    0.180729
    22  H    0.164330
 Sum of Mulliken atomic charges =   0.00000

 Dipole moment (field-independent basis, Debye):
    X=             -4.1269    Y=             -0.9846    Z=             -3.6957  Tot=              5.6266
 Quadrupole moment (field-independent basis, Debye-Ang):
   XX=            -60.2509   YY=            -57.2606   ZZ=            -61.9089
   XY=             -6.2502   XZ=              3.9744   YZ=             -0.2897

 Normal termination of Gaussian 09 at Thu Feb  9 18:11:58 2017.
