 Gaussian 09, Revision A.02,
 Gaussian 09:  EM64L-G09RevA.02 11-Jun-2009

 -------------------------------------------
 # HF/6-31G* Opt=(ModRedundant) geom=nocrowd
 -------------------------------------------

 ------------------
 Phi Psi fixed scan
 ------------------
 Symbolic Z-matrix:
 Charge =  0 Multiplicity = 1

 SCF Done:  E(RHF) =  -492.834185981     A.U. after   15 cycles
 SCF Done:  E(RHF) =  -492.847084525     A.U. after   14 cycles
 SCF Done:  E(RHF) =  -492.850796210     A.U. after   13 cycles
 SCF Done:  E(RHF) =  -492.851685654     A.U. after   13 cycles
 SCF Done:  E(RHF) =  -492.852332941     A.U. after   13 cycles
 SCF Done:  E(RHF) =  -492.852254842     A.U. after   14 cycles
 SCF Done:  E(RHF) =  -492.852931610     A.U. after   13 cycles
 SCF Done:  E(RHF) =  -492.853008787     A.U. after   12 cycles
 SCF Done:  E(RHF) =  -492.853186089     A.U. after   12 cycles
 SCF Done:  E(RHF) =  -492.853330585     A.U. after   11 cycles
 SCF Done:  E(RHF) =  -492.853615419     A.U. after   14 cycles
 SCF Done:  E(RHF) =  -492.853743520     A.U. after   12 cycles
 SCF Done:  E(RHF) =  -492.853794642     A.U. after   11 cycles
 SCF Done:  E(RHF) =  -492.853810808     A.U. after   10 cycles
 SCF Done:  E(RHF) =  -492.853820742     A.U. after   11 cycles
 SCF Done:  E(RHF) =  -492.853822823     A.U. after   10 cycles
 SCF Done:  E(RHF) =  -492.853822900     A.U. after    8 cycles
 Optimization completed.
    -- Stationary point found.

                         Standard orientation:
 ---------------------------------------------------------------------
 Center     Atomic      Atomic             Coordinates (Angstroms)
 Number     Number       Type             X           Y           Z
 ---------------------------------------------------------------------
      1          1           0        3.474942   -1.464997   -0.842026
      2          6           0        3.007259   -1.114482    0.066542
      3          1           0        3.702639   -0.497775    0.623948
      4          1           0        2.748128   -1.975202    0.675731
      5          6           0        1.741740   -0.367682   -0.289085
      6          8           0        1.151355   -0.559804   -1.318605
      7          7           0        1.312059    0.527014    0.638056
      8          1           0        1.696298    0.447505    1.552025
      9          6           0       -0.002877    1.146712    0.548765
     10          1           0       -0.138611    1.669367    1.486987
     11          6           0       -0.078760    2.177123   -0.576451
     12          1           0        0.116176    1.737167   -1.544584
     13          1           0       -1.053774    2.652235   -0.590437
     14          1           0        0.668203    2.943195   -0.403301
     15          6           0       -1.087996    0.056506    0.587331
     16          8           0       -1.183539   -0.627778    1.571056
     17          7           0       -1.920580   -0.046777   -0.468291
     18          1           0       -1.581633    0.301149   -1.335756
     19          6           0       -2.870896   -1.138392   -0.533638
     20          1           0       -3.446858   -1.169431    0.378985
     21          1           0       -3.539617   -0.965999   -1.366738
     22          1           0       -2.379587   -2.096924   -0.663577
 ---------------------------------------------------------------------

 The electronic state is 1-A.
 Alpha  occ. eigenvalues --  -20.53070 -20.51787 -15.58900 -15.57664 -11.35358
 Alpha  occ. eigenvalues --  -11.33882 -11.28186 -11.24855 -11.23482 -11.22236
 Alpha  occ. eigenvalues --   -1.40013  -1.38509  -1.24107  -1.22565  -1.05560
 Alpha  occ. eigenvalues --   -0.99508  -0.94762  -0.88748  -0.80088  -0.76852
 Alpha  occ. eigenvalues --   -0.71835  -0.70088  -0.65052  -0.63996  -0.62224
 Alpha  occ. eigenvalues --   -0.61508  -0.59773  -0.58261  -0.56900  -0.55861
 Alpha  occ. eigenvalues --   -0.54681  -0.54492  -0.52684  -0.51483  -0.50437
 Alpha  occ. eigenvalues --   -0.42773  -0.42270  -0.39503  -0.37940
 Alpha virt. eigenvalues --    0.18844   0.19979   0.22511   0.24271   0.26017
 Alpha virt. eigenvalues --    0.27476   0.29800   0.30017   0.31093   0.31964
 Alpha virt. eigenvalues --    0.32799   0.34048   0.34281   0.35033   0.38604

 Mulliken atomic charges:
              1
     1  H    0.214326
     2  C   -0.589860
     3  H    0.181147
     4  H    0.206875
     5  C    0.749168
     6  O   -0.619844
     7  N   -0.778784
     8  H    0.392091
     9  C   -0.044314
    10  H    0.210404
    11  C   -0.506747
    12  H    0.202327
    13  H    0.173536
    14  H    0.179318
    15  C    0.765541
    16  O   -0.624638
    17  N   -0.778968
    18  H    0.401110
    19  C   -0.280204
    20  H    0.199990
    21  H    0.167726
    22  H    0.179802
 Sum of Mulliken atomic charges =   0.00000

 Dipole moment (field-independent basis, Debye):
    X=              1.3530    Y=              1.7433    Z=             -0.0492  Tot=              2.2073
 Quadrupole moment (field-independent basis, Debye-Ang):
   XX=            -52.2075   YY=            -58.8398   ZZ=            -64.9320
   XY=             -1.2916   XZ=              9.6979   YZ=              1.8994

 Normal termination of Gaussian 09 at Thu Feb  9 18:53:24 2017.
