 Gaussian 09, Revision A.02,
 Gaussian 09:  EM64L-G09RevA.02 11-Jun-2009

 -------------------------------------------
 # HF/6-31G* Opt=(ModRedundant) geom=nocrowd
 -------------------------------------------

 ------------------
 Phi Psi fixed scan
 ------------------
 Symbolic Z-matrix:
 Charge =  0 Multiplicity = 1

 SCF Done:  E(RHF) =  -492.823198558     A.U. after   15 cycles
 SCF Done:  E(RHF) =  -492.837488660     A.U. after   14 cycles
 SCF Done:  E(RHF) =  -492.839815490     A.U. after   13 cycles
 SCF Done:  E(RHF) =  -492.840186308     A.U. after   13 cycles
 SCF Done:  E(RHF) =  -492.840493989     A.U. after   13 cycles
 SCF Done:  E(RHF) =  -492.840675967     A.U. after   13 cycles
 SCF Done:  E(RHF) =  -492.840841135     A.U. after   13 cycles
 SCF Done:  E(RHF) =  -492.841011671     A.U. after   12 cycles
 SCF Done:  E(RHF) =  -492.841089887     A.U. after   12 cycles
 SCF Done:  E(RHF) =  -492.841112884     A.U. after   11 cycles
 SCF Done:  E(RHF) =  -492.841131758     A.U. after   11 cycles
 SCF Done:  E(RHF) =  -492.841143008     A.U. after   11 cycles
 SCF Done:  E(RHF) =  -492.841146233     A.U. after   11 cycles
 SCF Done:  E(RHF) =  -492.841146705     A.U. after    9 cycles
 SCF Done:  E(RHF) =  -492.841146789     A.U. after    8 cycles
 Optimization completed.
    -- Stationary point found.

                         Standard orientation:
 ---------------------------------------------------------------------
 Center     Atomic      Atomic             Coordinates (Angstroms)
 Number     Number       Type             X           Y           Z
 ---------------------------------------------------------------------
      1          1           0       -3.627950   -1.611419    0.409928
      2          6           0       -2.833331   -1.503452   -0.313146
      3          1           0       -3.257328   -1.347787   -1.299699
      4          1           0       -2.252387   -2.421016   -0.335089
      5          6           0       -1.946223   -0.346798    0.105318
      6          8           0       -2.012864    0.142651    1.190402
      7          7           0       -1.110268    0.097248   -0.891443
      8          1           0       -1.089624   -0.490897   -1.694686
      9          6           0        0.113418    0.874197   -0.705571
     10          1           0        0.511577    1.004590   -1.705560
     11          6           0       -0.160462    2.255184   -0.113550
     12          1           0       -0.532314    2.164563    0.894650
     13          1           0        0.754332    2.840051   -0.100648
     14          1           0       -0.893647    2.772903   -0.721322
     15          6           0        1.151135    0.132722    0.153002
     16          8           0        1.049276    0.028310    1.340640
     17          7           0        2.192138   -0.382759   -0.547646
     18          1           0        2.225834   -0.244330   -1.530313
     19          6           0        3.280165   -1.106430    0.072507
     20          1           0        3.133354   -1.087158    1.140073
     21          1           0        3.303698   -2.138655   -0.261064
     22          1           0        4.231848   -0.642490   -0.162336
 ---------------------------------------------------------------------

 The electronic state is 1-A.
 Alpha  occ. eigenvalues --  -20.52060 -20.51931 -15.58995 -15.58672 -11.34490
 Alpha  occ. eigenvalues --  -11.34324 -11.28542 -11.25818 -11.23034 -11.20943
 Alpha  occ. eigenvalues --   -1.39395  -1.38513  -1.24085  -1.22974  -1.05233
 Alpha  occ. eigenvalues --   -0.98878  -0.96106  -0.87376  -0.80182  -0.77331
 Alpha  occ. eigenvalues --   -0.71385  -0.69524  -0.65169  -0.63923  -0.62203
 Alpha  occ. eigenvalues --   -0.61760  -0.59870  -0.58805  -0.56387  -0.55850
 Alpha  occ. eigenvalues --   -0.55081  -0.52978  -0.51616  -0.51171  -0.50527
 Alpha  occ. eigenvalues --   -0.43892  -0.41058  -0.38924  -0.37488
 Alpha virt. eigenvalues --    0.18608   0.19763   0.21640   0.23830   0.26343
 Alpha virt. eigenvalues --    0.28247   0.28709   0.30765   0.31848   0.32109
 Alpha virt. eigenvalues --    0.32345   0.33241   0.34062   0.35377   0.37115

 Mulliken atomic charges:
              1
     1  H    0.218087
     2  C   -0.596134
     3  H    0.178581
     4  H    0.190406
     5  C    0.748594
     6  O   -0.563373
     7  N   -0.800413
     8  H    0.371262
     9  C   -0.037905
    10  H    0.171634
    11  C   -0.489735
    12  H    0.246003
    13  H    0.157207
    14  H    0.169971
    15  C    0.776465
    16  O   -0.589970
    17  N   -0.808871
    18  H    0.377315
    19  C   -0.289005
    20  H    0.233454
    21  H    0.167467
    22  H    0.168961
 Sum of Mulliken atomic charges =   0.00000

 Dipole moment (field-independent basis, Debye):
    X=              1.9936    Y=             -1.7087    Z=             -6.4151  Tot=              6.9317
 Quadrupole moment (field-independent basis, Debye-Ang):
   XX=            -54.5796   YY=            -57.1502   ZZ=            -63.5297
   XY=              2.3050   XZ=              1.0265   YZ=              0.3908

 Normal termination of Gaussian 09 at Thu Feb  9 18:27:41 2017.
