 Gaussian 09, Revision A.02,
 Gaussian 09:  EM64L-G09RevA.02 11-Jun-2009

 -------------------------------------------
 # HF/6-31G* Opt=(ModRedundant) geom=nocrowd
 -------------------------------------------

 ------------------
 Phi Psi fixed scan
 ------------------
 Symbolic Z-matrix:
 Charge =  0 Multiplicity = 1

 SCF Done:  E(RHF) =  -492.835016105     A.U. after   15 cycles
 SCF Done:  E(RHF) =  -492.845737414     A.U. after   14 cycles
 SCF Done:  E(RHF) =  -492.848777835     A.U. after   13 cycles
 SCF Done:  E(RHF) =  -492.849684334     A.U. after   13 cycles
 SCF Done:  E(RHF) =  -492.850655931     A.U. after   13 cycles
 SCF Done:  E(RHF) =  -492.851338052     A.U. after   13 cycles
 SCF Done:  E(RHF) =  -492.851903612     A.U. after   13 cycles
 SCF Done:  E(RHF) =  -492.852101656     A.U. after   12 cycles
 SCF Done:  E(RHF) =  -492.852147245     A.U. after   11 cycles
 SCF Done:  E(RHF) =  -492.852181830     A.U. after   11 cycles
 SCF Done:  E(RHF) =  -492.852665805     A.U. after   11 cycles
 SCF Done:  E(RHF) =  -492.852619905     A.U. after   11 cycles
 SCF Done:  E(RHF) =  -492.852623029     A.U. after   12 cycles
 SCF Done:  E(RHF) =  -492.852766274     A.U. after   13 cycles
 SCF Done:  E(RHF) =  -492.852787017     A.U. after   11 cycles
 SCF Done:  E(RHF) =  -492.852801146     A.U. after   11 cycles
 SCF Done:  E(RHF) =  -492.852802866     A.U. after    9 cycles
 SCF Done:  E(RHF) =  -492.852804505     A.U. after    9 cycles
 SCF Done:  E(RHF) =  -492.852804653     A.U. after    8 cycles
 SCF Done:  E(RHF) =  -492.852804679     A.U. after    7 cycles
 Optimization completed.
    -- Stationary point found.

                         Standard orientation:
 ---------------------------------------------------------------------
 Center     Atomic      Atomic             Coordinates (Angstroms)
 Number     Number       Type             X           Y           Z
 ---------------------------------------------------------------------
      1          1           0       -3.659050   -1.179322    0.869552
      2          6           0       -3.074039   -1.035968   -0.027111
      3          1           0       -3.691235   -0.598658   -0.803947
      4          1           0       -2.720162   -2.002510   -0.372870
      5          6           0       -1.877221   -0.172070    0.295169
      6          8           0       -1.475048   -0.019954    1.413483
      7          7           0       -1.294866    0.435318   -0.785520
      8          1           0       -1.508372    0.008472   -1.659619
      9          6           0        0.062877    0.933560   -0.690828
     10          1           0        0.334210    1.231992   -1.699396
     11          6           0        0.170353    2.176546    0.197473
     12          1           0        0.062568    1.931385    1.243537
     13          1           0        1.116241    2.685696    0.038644
     14          1           0       -0.616954    2.868762   -0.073851
     15          6           0        1.023899   -0.222107   -0.359963
     16          8           0        0.714260   -1.358896   -0.592473
     17          7           0        2.259405    0.118978    0.065544
     18          1           0        2.398946    1.027652    0.439082
     19          6           0        3.224665   -0.903150    0.416989
     20          1           0        3.318047   -1.609253   -0.394699
     21          1           0        4.183327   -0.430013    0.584422
     22          1           0        2.933769   -1.444340    1.310527
 ---------------------------------------------------------------------

 The electronic state is 1-A.
 Alpha  occ. eigenvalues --  -20.52246 -20.52209 -15.58451 -15.57797 -11.34329
 Alpha  occ. eigenvalues --  -11.34297 -11.28261 -11.25531 -11.22503 -11.22380
 Alpha  occ. eigenvalues --   -1.39714  -1.38463  -1.23401  -1.23153  -1.05275
 Alpha  occ. eigenvalues --   -0.98868  -0.95257  -0.88518  -0.79756  -0.76926
 Alpha  occ. eigenvalues --   -0.71624  -0.69793  -0.65018  -0.63695  -0.61833
 Alpha  occ. eigenvalues --   -0.61507  -0.59723  -0.58428  -0.56299  -0.55898
 Alpha  occ. eigenvalues --   -0.55273  -0.54166  -0.53158  -0.50797  -0.49761
 Alpha  occ. eigenvalues --   -0.42428  -0.41414  -0.39193  -0.39026
 Alpha virt. eigenvalues --    0.19452   0.20532   0.21842   0.23602   0.26350
 Alpha virt. eigenvalues --    0.27509   0.29735   0.30940   0.31258   0.32330
 Alpha virt. eigenvalues --    0.33322   0.33909   0.34342   0.35075   0.37014

 Mulliken atomic charges:
              1
     1  H    0.211052
     2  C   -0.597109
     3  H    0.178980
     4  H    0.210443
     5  C    0.754014
     6  O   -0.604638
     7  N   -0.758408
     8  H    0.382722
     9  C   -0.060099
    10  H    0.206629
    11  C   -0.509973
    12  H    0.223361
    13  H    0.146601
    14  H    0.190998
    15  C    0.785937
    16  O   -0.628062
    17  N   -0.801395
    18  H    0.392941
    19  C   -0.275377
    20  H    0.201008
    21  H    0.166359
    22  H    0.184016
 Sum of Mulliken atomic charges =   0.00000

 Dipole moment (field-independent basis, Debye):
    X=              1.2124    Y=              2.2159    Z=             -2.1488  Tot=              3.3162
 Quadrupole moment (field-independent basis, Debye-Ang):
   XX=            -49.0275   YY=            -61.5336   ZZ=            -62.3992
   XY=              4.7619   XZ=              7.2594   YZ=             -1.0087

 Normal termination of Gaussian 09 at Thu Feb  9 18:46:07 2017.
