 Gaussian 09, Revision A.02,
 Gaussian 09:  EM64L-G09RevA.02 11-Jun-2009

 -------------------------------------------
 # HF/6-31G* Opt=(ModRedundant) geom=nocrowd
 -------------------------------------------

 ------------------
 Phi Psi fixed scan
 ------------------
 Symbolic Z-matrix:
 Charge =  0 Multiplicity = 1

 SCF Done:  E(RHF) =  -492.833528780     A.U. after   15 cycles
 SCF Done:  E(RHF) =  -492.844059541     A.U. after   14 cycles
 SCF Done:  E(RHF) =  -492.847591683     A.U. after   14 cycles
 SCF Done:  E(RHF) =  -492.848744363     A.U. after   13 cycles
 SCF Done:  E(RHF) =  -492.849460636     A.U. after   13 cycles
 SCF Done:  E(RHF) =  -492.850430385     A.U. after   13 cycles
 SCF Done:  E(RHF) =  -492.850686951     A.U. after   12 cycles
 SCF Done:  E(RHF) =  -492.850723632     A.U. after   12 cycles
 SCF Done:  E(RHF) =  -492.850748041     A.U. after   12 cycles
 SCF Done:  E(RHF) =  -492.850774276     A.U. after   11 cycles
 SCF Done:  E(RHF) =  -492.851033306     A.U. after   13 cycles
 SCF Done:  E(RHF) =  -492.850754858     A.U. after   13 cycles
 SCF Done:  E(RHF) =  -492.851211253     A.U. after   12 cycles
 SCF Done:  E(RHF) =  -492.851257863     A.U. after   12 cycles
 SCF Done:  E(RHF) =  -492.851293443     A.U. after   11 cycles
 SCF Done:  E(RHF) =  -492.851297993     A.U. after   10 cycles
 SCF Done:  E(RHF) =  -492.851300001     A.U. after   10 cycles
 SCF Done:  E(RHF) =  -492.851301059     A.U. after   10 cycles
 SCF Done:  E(RHF) =  -492.851301254     A.U. after    8 cycles
 SCF Done:  E(RHF) =  -492.851301392     A.U. after    8 cycles
 Optimization completed.
    -- Stationary point found.

                         Standard orientation:
 ---------------------------------------------------------------------
 Center     Atomic      Atomic             Coordinates (Angstroms)
 Number     Number       Type             X           Y           Z
 ---------------------------------------------------------------------
      1          1           0       -3.709100   -1.210781    0.689895
      2          6           0       -3.052456   -1.072873   -0.156530
      3          1           0       -3.615218   -0.687034   -0.999582
      4          1           0       -2.630912   -2.033793   -0.435049
      5          6           0       -1.923312   -0.149535    0.237891
      6          8           0       -1.643435    0.072296    1.379897
      7          7           0       -1.265308    0.436902   -0.816173
      8          1           0       -1.417858   -0.022791   -1.686927
      9          6           0        0.090996    0.920240   -0.656926
     10          1           0        0.412299    1.220644   -1.649940
     11          6           0        0.173705    2.156339    0.247020
     12          1           0        0.017843    1.901314    1.283913
     13          1           0        1.132138    2.655212    0.139567
     14          1           0       -0.592801    2.860214   -0.052325
     15          6           0        1.028761   -0.232964   -0.257115
     16          8           0        0.648794   -1.370834   -0.228571
     17          7           0        2.327460    0.098933   -0.079131
     18          1           0        2.563578    1.053965    0.052756
     19          6           0        3.299079   -0.896346    0.326757
     20          1           0        3.240727   -1.751189   -0.330625
     21          1           0        4.288118   -0.463384    0.254545
     22          1           0        3.132601   -1.234076    1.343711
 ---------------------------------------------------------------------

 The electronic state is 1-A.
 Alpha  occ. eigenvalues --  -20.52509 -20.51912 -15.58608 -15.57690 -11.34417
 Alpha  occ. eigenvalues --  -11.34104 -11.28331 -11.25732 -11.22345 -11.22273
 Alpha  occ. eigenvalues --   -1.39781  -1.38328  -1.23433  -1.23162  -1.05218
 Alpha  occ. eigenvalues --   -0.98690  -0.95439  -0.88339  -0.79766  -0.76942
 Alpha  occ. eigenvalues --   -0.71528  -0.69641  -0.65126  -0.63429  -0.62004
 Alpha  occ. eigenvalues --   -0.61625  -0.59582  -0.58395  -0.56165  -0.56134
 Alpha  occ. eigenvalues --   -0.55343  -0.53865  -0.53252  -0.50648  -0.49706
 Alpha  occ. eigenvalues --   -0.42821  -0.41140  -0.39222  -0.38792
 Alpha virt. eigenvalues --    0.19494   0.20739   0.21143   0.23326   0.26276
 Alpha virt. eigenvalues --    0.27593   0.29956   0.31028   0.31492   0.32292
 Alpha virt. eigenvalues --    0.33014   0.34068   0.34285   0.35245   0.37051

 Mulliken atomic charges:
              1
     1  H    0.210666
     2  C   -0.599693
     3  H    0.176675
     4  H    0.210953
     5  C    0.760185
     6  O   -0.599540
     7  N   -0.759011
     8  H    0.377892
     9  C   -0.067373
    10  H    0.202059
    11  C   -0.494984
    12  H    0.227806
    13  H    0.139540
    14  H    0.189978
    15  C    0.777948
    16  O   -0.619655
    17  N   -0.799505
    18  H    0.388647
    19  C   -0.273768
    20  H    0.201655
    21  H    0.166577
    22  H    0.182949
 Sum of Mulliken atomic charges =   0.00000

 Dipole moment (field-independent basis, Debye):
    X=              1.9472    Y=              2.0285    Z=             -2.9724  Tot=              4.0916
 Quadrupole moment (field-independent basis, Debye-Ang):
   XX=            -49.1869   YY=            -61.4114   ZZ=            -62.2472
   XY=              5.2395   XZ=              6.5557   YZ=             -0.2075

 Normal termination of Gaussian 09 at Thu Feb  9 18:43:05 2017.
