 Gaussian 09, Revision A.02,
 Gaussian 09:  EM64L-G09RevA.02 11-Jun-2009

 -------------------------------------------
 # HF/6-31G* Opt=(ModRedundant) geom=nocrowd
 -------------------------------------------

 ------------------
 Phi Psi fixed scan
 ------------------
 Symbolic Z-matrix:
 Charge =  0 Multiplicity = 1

 SCF Done:  E(RHF) =  -492.830756730     A.U. after   15 cycles
 SCF Done:  E(RHF) =  -492.846654512     A.U. after   14 cycles
 SCF Done:  E(RHF) =  -492.850064599     A.U. after   13 cycles
 SCF Done:  E(RHF) =  -492.850439484     A.U. after   13 cycles
 SCF Done:  E(RHF) =  -492.851128783     A.U. after   13 cycles
 SCF Done:  E(RHF) =  -492.851552492     A.U. after   13 cycles
 SCF Done:  E(RHF) =  -492.851754289     A.U. after   13 cycles
 SCF Done:  E(RHF) =  -492.852153555     A.U. after   13 cycles
 SCF Done:  E(RHF) =  -492.852272701     A.U. after   11 cycles
 SCF Done:  E(RHF) =  -492.852403978     A.U. after   11 cycles
 SCF Done:  E(RHF) =  -492.853124383     A.U. after   12 cycles
 SCF Done:  E(RHF) =  -492.853129988     A.U. after   10 cycles
 SCF Done:  E(RHF) =  -492.853134582     A.U. after   10 cycles
 SCF Done:  E(RHF) =  -492.853146070     A.U. after   11 cycles
 SCF Done:  E(RHF) =  -492.853159190     A.U. after   11 cycles
 SCF Done:  E(RHF) =  -492.853161096     A.U. after    9 cycles
 SCF Done:  E(RHF) =  -492.853161962     A.U. after   10 cycles
 SCF Done:  E(RHF) =  -492.853162180     A.U. after    8 cycles
 SCF Done:  E(RHF) =  -492.853162395     A.U. after    9 cycles
 SCF Done:  E(RHF) =  -492.853162440     A.U. after    8 cycles
 Optimization completed.
    -- Stationary point found.

                         Standard orientation:
 ---------------------------------------------------------------------
 Center     Atomic      Atomic             Coordinates (Angstroms)
 Number     Number       Type             X           Y           Z
 ---------------------------------------------------------------------
      1          1           0       -3.371773   -1.814296    0.072868
      2          6           0       -3.171381   -0.828370   -0.321180
      3          1           0       -3.899867   -0.140554    0.096335
      4          1           0       -3.286312   -0.835683   -1.398810
      5          6           0       -1.788914   -0.397916    0.120435
      6          8           0       -1.305369   -0.792613    1.151351
      7          7           0       -1.156232    0.461831   -0.704784
      8          1           0       -1.618898    0.698701   -1.551542
      9          6           0        0.105557    1.154278   -0.456515
     10          1           0        0.332861    1.667657   -1.382022
     11          6           0       -0.039732    2.201801    0.653544
     12          1           0       -0.284273    1.725058    1.594686
     13          1           0        0.884106    2.750605    0.767536
     14          1           0       -0.835012    2.895079    0.401213
     15          6           0        1.364424    0.308206   -0.209068
     16          8           0        2.406685    0.898592   -0.103721
     17          7           0        1.282358   -1.037233   -0.225424
     18          1           0        0.417588   -1.428777    0.070134
     19          6           0        2.470877   -1.816496    0.060625
     20          1           0        3.266724   -1.525155   -0.608537
     21          1           0        2.815013   -1.679726    1.080470
     22          1           0        2.241445   -2.861937   -0.098968
 ---------------------------------------------------------------------

 The electronic state is 1-A.
 Alpha  occ. eigenvalues --  -20.53759 -20.51614 -15.60175 -15.56987 -11.36497
 Alpha  occ. eigenvalues --  -11.33935 -11.28684 -11.24546 -11.24517 -11.21552
 Alpha  occ. eigenvalues --   -1.40720  -1.38557  -1.25275  -1.21950  -1.05859
 Alpha  occ. eigenvalues --   -1.00012  -0.94931  -0.88295  -0.81039  -0.77040
 Alpha  occ. eigenvalues --   -0.72528  -0.70314  -0.65187  -0.63809  -0.62419
 Alpha  occ. eigenvalues --   -0.61569  -0.60381  -0.59139  -0.57945  -0.56025
 Alpha  occ. eigenvalues --   -0.54522  -0.54025  -0.52104  -0.52036  -0.49596
 Alpha  occ. eigenvalues --   -0.43277  -0.43059  -0.39568  -0.37789
 Alpha virt. eigenvalues --    0.18285   0.18896   0.21482   0.25758   0.26210
 Alpha virt. eigenvalues --    0.28567   0.29215   0.30731   0.31125   0.32067
 Alpha virt. eigenvalues --    0.33427   0.33781   0.34383   0.35124   0.37408

 Mulliken atomic charges:
              1
     1  H    0.215877
     2  C   -0.581442
     3  H    0.207751
     4  H    0.174982
     5  C    0.743183
     6  O   -0.627118
     7  N   -0.813022
     8  H    0.390451
     9  C   -0.020209
    10  H    0.212406
    11  C   -0.492843
    12  H    0.199160
    13  H    0.208137
    14  H    0.158370
    15  C    0.762235
    16  O   -0.619854
    17  N   -0.798760
    18  H    0.421932
    19  C   -0.280806
    20  H    0.196189
    21  H    0.177283
    22  H    0.166097
 Sum of Mulliken atomic charges =   0.00000

 Dipole moment (field-independent basis, Debye):
    X=             -4.1744    Y=             -0.5583    Z=             -2.9015  Tot=              5.1143
 Quadrupole moment (field-independent basis, Debye-Ang):
   XX=            -61.2560   YY=            -57.7016   ZZ=            -61.2794
   XY=             -6.8740   XZ=              5.6173   YZ=              0.0479

 Normal termination of Gaussian 09 at Thu Feb  9 18:09:27 2017.
