 Gaussian 09, Revision A.02,
 Gaussian 09:  EM64L-G09RevA.02 11-Jun-2009

 -------------------------------------------
 # HF/6-31G* Opt=(ModRedundant) geom=nocrowd
 -------------------------------------------

 ------------------
 Phi Psi fixed scan
 ------------------
 Symbolic Z-matrix:
 Charge =  0 Multiplicity = 1

 SCF Done:  E(RHF) =  -492.841625476     A.U. after   15 cycles
 SCF Done:  E(RHF) =  -492.850347876     A.U. after   14 cycles
 SCF Done:  E(RHF) =  -492.851858079     A.U. after   13 cycles
 SCF Done:  E(RHF) =  -492.851946611     A.U. after   13 cycles
 SCF Done:  E(RHF) =  -492.852493680     A.U. after   12 cycles
 SCF Done:  E(RHF) =  -492.852810017     A.U. after   13 cycles
 SCF Done:  E(RHF) =  -492.852930473     A.U. after   13 cycles
 SCF Done:  E(RHF) =  -492.852973912     A.U. after   11 cycles
 SCF Done:  E(RHF) =  -492.853033309     A.U. after   12 cycles
 SCF Done:  E(RHF) =  -492.853146737     A.U. after   12 cycles
 SCF Done:  E(RHF) =  -492.853416313     A.U. after   13 cycles
 SCF Done:  E(RHF) =  -492.853580118     A.U. after   12 cycles
 SCF Done:  E(RHF) =  -492.853604015     A.U. after   11 cycles
 SCF Done:  E(RHF) =  -492.853611246     A.U. after   10 cycles
 SCF Done:  E(RHF) =  -492.853629356     A.U. after   12 cycles
 SCF Done:  E(RHF) =  -492.853631363     A.U. after   10 cycles
 SCF Done:  E(RHF) =  -492.853632239     A.U. after    9 cycles
 SCF Done:  E(RHF) =  -492.853632672     A.U. after    9 cycles
 SCF Done:  E(RHF) =  -492.853632900     A.U. after    8 cycles
 SCF Done:  E(RHF) =  -492.853632953     A.U. after    7 cycles
 Optimization completed.
    -- Stationary point found.

                         Standard orientation:
 ---------------------------------------------------------------------
 Center     Atomic      Atomic             Coordinates (Angstroms)
 Number     Number       Type             X           Y           Z
 ---------------------------------------------------------------------
      1          1           0       -3.227574   -1.882749    0.528137
      2          6           0       -3.050915   -1.034107   -0.116517
      3          1           0       -3.814390   -0.287802    0.081265
      4          1           0       -3.134293   -1.338332   -1.153911
      5          6           0       -1.692647   -0.448212    0.205454
      6          8           0       -1.161002   -0.608723    1.267715
      7          7           0       -1.118011    0.272834   -0.795616
      8          1           0       -1.667471    0.455292   -1.604201
      9          6           0        0.062111    1.109523   -0.606345
     10          1           0        0.330681    1.454112   -1.600281
     11          6           0       -0.216332    2.326451    0.274944
     12          1           0       -0.477411    2.017708    1.278297
     13          1           0        0.658616    2.957913    0.328505
     14          1           0       -1.039338    2.898000   -0.143059
     15          6           0        1.301042    0.345813   -0.119091
     16          8           0        2.170280    0.928575    0.467741
     17          7           0        1.408588   -0.945075   -0.496319
     18          1           0        0.580447   -1.406210   -0.788555
     19          6           0        2.491278   -1.764617    0.005140
     20          1           0        3.431583   -1.256979   -0.149127
     21          1           0        2.381978   -1.974927    1.063769
     22          1           0        2.501686   -2.698273   -0.542447
 ---------------------------------------------------------------------

 The electronic state is 1-A.
 Alpha  occ. eigenvalues --  -20.53614 -20.51449 -15.59925 -15.57209 -11.36047
 Alpha  occ. eigenvalues --  -11.33773 -11.28408 -11.24642 -11.24422 -11.21071
 Alpha  occ. eigenvalues --   -1.40601  -1.38363  -1.25162  -1.21887  -1.05542
 Alpha  occ. eigenvalues --   -0.99784  -0.95249  -0.87699  -0.80910  -0.77234
 Alpha  occ. eigenvalues --   -0.71910  -0.69984  -0.65138  -0.64147  -0.62407
 Alpha  occ. eigenvalues --   -0.61394  -0.60152  -0.59015  -0.57797  -0.56018
 Alpha  occ. eigenvalues --   -0.54373  -0.53247  -0.52229  -0.51718  -0.50119
 Alpha  occ. eigenvalues --   -0.43105  -0.42349  -0.39310  -0.37911
 Alpha virt. eigenvalues --    0.18714   0.18896   0.22065   0.25209   0.26044
 Alpha virt. eigenvalues --    0.28438   0.29410   0.29516   0.30415   0.31872
 Alpha virt. eigenvalues --    0.33104   0.33399   0.34228   0.34899   0.37152

 Mulliken atomic charges:
              1
     1  H    0.218573
     2  C   -0.588154
     3  H    0.203411
     4  H    0.176080
     5  C    0.731250
     6  O   -0.591604
     7  N   -0.825257
     8  H    0.386126
     9  C   -0.041411
    10  H    0.206272
    11  C   -0.478745
    12  H    0.204902
    13  H    0.202203
    14  H    0.147325
    15  C    0.791426
    16  O   -0.620548
    17  N   -0.781366
    18  H    0.391180
    19  C   -0.277904
    20  H    0.200783
    21  H    0.183193
    22  H    0.162266
 Sum of Mulliken atomic charges =   0.00000

 Dipole moment (field-independent basis, Debye):
    X=             -3.9919    Y=             -1.3240    Z=             -4.5243  Tot=              6.1772
 Quadrupole moment (field-independent basis, Debye-Ang):
   XX=            -58.8024   YY=            -56.9722   ZZ=            -62.4659
   XY=             -5.4701   XZ=              2.2964   YZ=             -0.5724

 Normal termination of Gaussian 09 at Thu Feb  9 18:14:45 2017.
