 Gaussian 09, Revision A.02,
 Gaussian 09:  EM64L-G09RevA.02 11-Jun-2009

 -------------------------------------------
 # HF/6-31G* Opt=(ModRedundant) geom=nocrowd
 -------------------------------------------

 ------------------
 Phi Psi fixed scan
 ------------------
 Symbolic Z-matrix:
 Charge =  0 Multiplicity = 1

 SCF Done:  E(RHF) =  -492.828572252     A.U. after   15 cycles
 SCF Done:  E(RHF) =  -492.840226574     A.U. after   14 cycles
 SCF Done:  E(RHF) =  -492.841845510     A.U. after   13 cycles
 SCF Done:  E(RHF) =  -492.842087440     A.U. after   12 cycles
 SCF Done:  E(RHF) =  -492.842050342     A.U. after   12 cycles
 SCF Done:  E(RHF) =  -492.842179906     A.U. after   12 cycles
 SCF Done:  E(RHF) =  -492.842214130     A.U. after   12 cycles
 SCF Done:  E(RHF) =  -492.842270316     A.U. after   13 cycles
 SCF Done:  E(RHF) =  -492.842310037     A.U. after   11 cycles
 SCF Done:  E(RHF) =  -492.842359135     A.U. after   12 cycles
 SCF Done:  E(RHF) =  -492.842783756     A.U. after   13 cycles
 SCF Done:  E(RHF) =  -492.842784922     A.U. after   12 cycles
 SCF Done:  E(RHF) =  -492.842785070     A.U. after    8 cycles
 SCF Done:  E(RHF) =  -492.842785156     A.U. after    8 cycles
 SCF Done:  E(RHF) =  -492.842785315     A.U. after    8 cycles
 SCF Done:  E(RHF) =  -492.842785646     A.U. after    9 cycles
 SCF Done:  E(RHF) =  -492.842785954     A.U. after   10 cycles
 SCF Done:  E(RHF) =  -492.842786034     A.U. after   10 cycles
 SCF Done:  E(RHF) =  -492.842786040     A.U. after    8 cycles
 SCF Done:  E(RHF) =  -492.842786041     A.U. after    8 cycles
 Optimization completed on the basis of negligible forces.
    -- Stationary point found.

                         Standard orientation:
 ---------------------------------------------------------------------
 Center     Atomic      Atomic             Coordinates (Angstroms)
 Number     Number       Type             X           Y           Z
 ---------------------------------------------------------------------
      1          1           0       -3.619385   -1.554545    0.612400
      2          6           0       -3.006158   -1.326099   -0.246342
      3          1           0       -3.614912   -0.848671   -1.007622
      4          1           0       -2.614857   -2.250833   -0.659520
      5          6           0       -1.869019   -0.423873    0.194831
      6          8           0       -1.673058   -0.157431    1.342453
      7          7           0       -1.103204    0.042819   -0.832385
      8          1           0       -1.370604   -0.228755   -1.749993
      9          6           0        0.079546    0.893395   -0.727602
     10          1           0        0.441684    0.998473   -1.743629
     11          6           0       -0.245834    2.277473   -0.172624
     12          1           0       -0.587446    2.198934    0.848170
     13          1           0        0.636658    2.907923   -0.192688
     14          1           0       -1.017239    2.741683   -0.777886
     15          6           0        1.199973    0.238284    0.099907
     16          8           0        1.359410    0.448147    1.264656
     17          7           0        2.067928   -0.513428   -0.629394
     18          1           0        1.783458   -0.805071   -1.536182
     19          6           0        3.104947   -1.285732    0.022523
     20          1           0        3.636596   -0.654098    0.718019
     21          1           0        2.704202   -2.133579    0.568999
     22          1           0        3.797238   -1.643613   -0.728638
 ---------------------------------------------------------------------

 The electronic state is 1-A.
 Alpha  occ. eigenvalues --  -20.52177 -20.51975 -15.59071 -15.58314 -11.34803
 Alpha  occ. eigenvalues --  -11.33919 -11.28546 -11.25435 -11.23382 -11.20867
 Alpha  occ. eigenvalues --   -1.39442  -1.38606  -1.24271  -1.22551  -1.05310
 Alpha  occ. eigenvalues --   -0.99044  -0.95685  -0.87410  -0.80505  -0.77306
 Alpha  occ. eigenvalues --   -0.71274  -0.69435  -0.64747  -0.64302  -0.62178
 Alpha  occ. eigenvalues --   -0.61480  -0.59994  -0.58707  -0.56596  -0.56098
 Alpha  occ. eigenvalues --   -0.54909  -0.52924  -0.51507  -0.51231  -0.50732
 Alpha  occ. eigenvalues --   -0.43242  -0.41076  -0.38724  -0.37980
 Alpha virt. eigenvalues --    0.18290   0.20227   0.21149   0.23925   0.26191
 Alpha virt. eigenvalues --    0.27488   0.28684   0.30672   0.31241   0.32534
 Alpha virt. eigenvalues --    0.32912   0.33263   0.34181   0.34967   0.37466

 Mulliken atomic charges:
              1
     1  H    0.220107
     2  C   -0.591640
     3  H    0.180095
     4  H    0.186324
     5  C    0.745248
     6  O   -0.570997
     7  N   -0.825097
     8  H    0.379480
     9  C   -0.037384
    10  H    0.182820
    11  C   -0.481735
    12  H    0.237122
    13  H    0.166307
    14  H    0.155911
    15  C    0.783242
    16  O   -0.579107
    17  N   -0.792951
    18  H    0.371546
    19  C   -0.278329
    20  H    0.208817
    21  H    0.175259
    22  H    0.164962
 Sum of Mulliken atomic charges =   0.00000

 Dipole moment (field-independent basis, Debye):
    X=             -0.2408    Y=             -1.9488    Z=             -6.8033  Tot=              7.0810
 Quadrupole moment (field-independent basis, Debye-Ang):
   XX=            -54.6491   YY=            -56.9875   ZZ=            -63.5516
   XY=             -1.3329   XZ=              1.6153   YZ=              0.3233

 Normal termination of Gaussian 09 at Thu Feb  9 18:25:49 2017.
