 Gaussian 09, Revision A.02,
 Gaussian 09:  EM64L-G09RevA.02 11-Jun-2009

 -------------------
 #SP MP2/aug-cc-pVDZ
 -------------------

 -------------------------------
 Single Point calculation at MP2
 -------------------------------
 Symbolic Z-matrix:
 Charge =  0 Multiplicity = 1

                         Standard orientation:
 ---------------------------------------------------------------------
 Center     Atomic      Atomic             Coordinates (Angstroms)
 Number     Number       Type             X           Y           Z
 ---------------------------------------------------------------------
      1          1           0       -3.650915   -1.672184    0.617601
      2          6           0       -2.978415   -1.526188   -0.231299
      3          1           0       -3.599514   -1.437384   -1.129699
      4          1           0       -2.334520   -2.405392   -0.335799
      5          6           0       -2.215806   -0.220893   -0.024699
      6          8           0       -2.779200    0.789111    0.368501
      7          7           0       -0.870707   -0.298501   -0.318399
      8          1           0       -0.588112   -1.117503   -0.841899
      9          6           0        0.072400    0.826693   -0.391899
     10          1           0       -0.039197    1.357994   -1.345299
     11          6           0       -0.079894    1.838294    0.758301
     12          1           0        0.017403    1.338893    1.728801
     13          1           0        0.716511    2.582689    0.665901
     14          1           0       -1.052091    2.326500    0.720501
     15          6           0        1.522997    0.309084   -0.372899
     16          8           0        2.417401    0.936479   -0.924199
     17          7           0        1.725090   -0.857217    0.311601
     18          1           0        0.952787   -1.209712    0.861201
     19          6           0        3.058286   -1.383425    0.552601
     20          1           0        3.721989   -0.963729   -0.204399
     21          1           0        3.436988   -1.101228    1.543501
     22          1           0        3.054980   -2.475025    0.472101
 ---------------------------------------------------------------------

 SCF Done:  E(RHF) =  -492.917826104     A.U. after   14 cycles
 E2 =    -0.1602125995D+01 EUMP2 =    -0.49451995209854D+03

 The electronic state is 1-A.
 Alpha  occ. eigenvalues --  -20.53974 -20.53620 -15.60890 -15.60263 -11.37439
 Alpha  occ. eigenvalues --  -11.36531 -11.29745 -11.27444 -11.25592 -11.22929
 Alpha  occ. eigenvalues --   -1.39506  -1.38929  -1.25688  -1.22994  -1.05994
 Alpha  occ. eigenvalues --   -0.99694  -0.96282  -0.88489  -0.80106  -0.77919
 Alpha  occ. eigenvalues --   -0.73520  -0.68900  -0.67623  -0.63549  -0.63005
 Alpha  occ. eigenvalues --   -0.62379  -0.60150  -0.59841  -0.57188  -0.56262
 Alpha  occ. eigenvalues --   -0.55459  -0.54094  -0.53040  -0.51784  -0.50386
 Alpha  occ. eigenvalues --   -0.44145  -0.42103  -0.40674  -0.39861
 Alpha virt. eigenvalues --    0.02279   0.03723   0.04225   0.04586   0.05593
 Alpha virt. eigenvalues --    0.06061   0.06360   0.06745   0.06998   0.08126
 Alpha virt. eigenvalues --    0.08492   0.08885   0.10954   0.11921   0.12877

 Mulliken atomic charges:
              1
     1  H    0.019418
     2  C    0.364952
     3  H    0.056185
     4  H   -0.151486
     5  C    0.655603
     6  O   -0.830655
     7  N   -0.280644
     8  H   -0.063024
     9  C   -0.056893
    10  H   -0.215228
    11  C    0.707290
    12  H   -0.056776
    13  H   -0.046851
    14  H    0.008531
    15  C    1.012669
    16  O   -0.855127
    17  N   -0.636616
    18  H   -0.045423
    19  C    0.745178
    20  H   -0.121166
    21  H   -0.074644
    22  H   -0.135293
 Sum of Mulliken atomic charges =   0.00000

 Dipole moment (field-independent basis, Debye):
    X=             -0.2488    Y=             -4.9555    Z=              0.7466  Tot=              5.0176
 Quadrupole moment (field-independent basis, Debye-Ang):
   XX=            -72.6553   YY=            -59.0307   ZZ=            -61.1716
   XY=              1.1875   XZ=              9.1040   YZ=              0.8862

 Normal termination of Gaussian 09 at Mon Feb 13 00:00:54 2017.
