 Gaussian 09, Revision A.02,
 Gaussian 09:  EM64L-G09RevA.02 11-Jun-2009

 -------------------
 #SP MP2/aug-cc-pVDZ
 -------------------

 -------------------------------
 Single Point calculation at MP2
 -------------------------------
 Symbolic Z-matrix:
 Charge =  0 Multiplicity = 1

                         Standard orientation:
 ---------------------------------------------------------------------
 Center     Atomic      Atomic             Coordinates (Angstroms)
 Number     Number       Type             X           Y           Z
 ---------------------------------------------------------------------
      1          1           0       -3.547795   -1.517397   -1.109296
      2          6           0       -2.968395   -1.551498   -0.179696
      3          1           0       -2.317897   -2.431800   -0.204196
      4          1           0       -3.678495   -1.651797    0.644704
      5          6           0       -2.217893   -0.233300   -0.013096
      6          8           0       -2.796491    0.789201    0.318004
      7          7           0       -0.861393   -0.322002   -0.262196
      8          1           0       -0.584294   -1.148503   -0.778396
      9          6           0        0.071309    0.805896   -0.407096
     10          1           0       -0.022490    1.252796   -1.405796
     11          6           0       -0.129089    1.911196    0.644804
     12          1           0       -0.066990    1.495096    1.656704
     13          1           0        0.670013    2.646295    0.517304
     14          1           0       -1.100588    2.388298    0.531204
     15          6           0        1.533208    0.326893   -0.304996
     16          8           0        2.443910    1.045092   -0.694496
     17          7           0        1.729606   -0.928807    0.203904
     18          1           0        0.960805   -1.331106    0.724504
     19          6           0        3.072405   -1.422610    0.470204
     20          1           0        3.740406   -1.015311   -0.289796
     21          1           0        3.441806   -1.109710    1.455604
     22          1           0        3.079403   -2.515010    0.416704
 ---------------------------------------------------------------------

 SCF Done:  E(RHF) =  -492.916995597     A.U. after   14 cycles
 E2 =    -0.1602131210D+01 EUMP2 =    -0.49451912680697D+03

 The electronic state is 1-A.
 Alpha  occ. eigenvalues --  -20.54100 -20.53638 -15.60878 -15.60339 -11.37493
 Alpha  occ. eigenvalues --  -11.36537 -11.29779 -11.27449 -11.25627 -11.22620
 Alpha  occ. eigenvalues --   -1.39594  -1.39012  -1.25721  -1.22970  -1.05882
 Alpha  occ. eigenvalues --   -0.99636  -0.96299  -0.88252  -0.80202  -0.77520
 Alpha  occ. eigenvalues --   -0.73568  -0.69015  -0.67663  -0.63648  -0.62872
 Alpha  occ. eigenvalues --   -0.62420  -0.60388  -0.59797  -0.57188  -0.55924
 Alpha  occ. eigenvalues --   -0.55505  -0.53698  -0.52822  -0.51784  -0.50219
 Alpha  occ. eigenvalues --   -0.44141  -0.42572  -0.40508  -0.40105
 Alpha virt. eigenvalues --    0.02240   0.03722   0.04170   0.04627   0.05594
 Alpha virt. eigenvalues --    0.06068   0.06500   0.06641   0.06992   0.08166
 Alpha virt. eigenvalues --    0.08583   0.08860   0.10883   0.11993   0.12862

 Mulliken atomic charges:
              1
     1  H    0.057220
     2  C    0.364862
     3  H   -0.145190
     4  H    0.016100
     5  C    0.647700
     6  O   -0.821968
     7  N   -0.325887
     8  H   -0.051022
     9  C   -0.151045
    10  H   -0.148865
    11  C    0.693736
    12  H   -0.041768
    13  H   -0.045367
    14  H    0.010506
    15  C    1.043708
    16  O   -0.870697
    17  N   -0.623176
    18  H   -0.045544
    19  C    0.766637
    20  H   -0.108196
    21  H   -0.063880
    22  H   -0.157864
 Sum of Mulliken atomic charges =   0.00000

 Dipole moment (field-independent basis, Debye):
    X=             -0.2824    Y=             -5.2023    Z=              0.3692  Tot=              5.2231
 Quadrupole moment (field-independent basis, Debye-Ang):
   XX=            -72.9344   YY=            -59.3282   ZZ=            -60.4099
   XY=              0.5453   XZ=              7.4882   YZ=              0.4583

 Normal termination of Gaussian 09 at Mon Feb 13 00:09:24 2017.
