 Gaussian 09, Revision A.02,
 Gaussian 09:  EM64L-G09RevA.02 11-Jun-2009

 -------------------
 #SP MP2/aug-cc-pVDZ
 -------------------

 -------------------------------
 Single Point calculation at MP2
 -------------------------------
 Symbolic Z-matrix:
 Charge =  0 Multiplicity = 1

                         Standard orientation:
 ---------------------------------------------------------------------
 Center     Atomic      Atomic             Coordinates (Angstroms)
 Number     Number       Type             X           Y           Z
 ---------------------------------------------------------------------
      1          1           0        3.588104   -1.323705   -1.329809
      2          6           0        3.021504   -1.467004   -0.405909
      3          1           0        3.745804   -1.621505    0.401291
      4          1           0        2.402203   -2.364403   -0.500509
      5          6           0        2.231005   -0.193403   -0.121909
      6          8           0        2.755706    0.910096   -0.195809
      7          7           0        0.917205   -0.406302    0.211791
      8          1           0        0.652504   -1.359302    0.425691
      9          6           0       -0.052394    0.604799    0.662791
     10          1           0        0.069906    0.779099    1.739491
     11          6           0        0.066007    1.944799   -0.074109
     12          1           0        0.078907    1.813699   -1.162709
     13          1           0       -0.782693    2.582699    0.196091
     14          1           0        0.996007    2.445298    0.189691
     15          6           0       -1.435895   -0.072500    0.527891
     16          8           0       -1.872196   -0.768600    1.439491
     17          7           0       -2.069595    0.082601   -0.666609
     18          1           0       -1.637794    0.662000   -1.370909
     19          6           0       -3.345995   -0.542698   -0.965609
     20          1           0       -3.655296   -1.094898   -0.077509
     21          1           0       -4.106595    0.209102   -1.206409
     22          1           0       -3.257796   -1.238098   -1.809009
 ---------------------------------------------------------------------

 SCF Done:  E(RHF) =  -492.915789701     A.U. after   14 cycles
 E2 =    -0.1601910843D+01 EUMP2 =    -0.49451770054395D+03

 The electronic state is 1-A.
 Alpha  occ. eigenvalues --  -20.53885 -20.53254 -15.60373 -15.60324 -11.36826
 Alpha  occ. eigenvalues --  -11.36678 -11.29871 -11.27437 -11.24931 -11.23622
 Alpha  occ. eigenvalues --   -1.39341  -1.38540  -1.24760  -1.23517  -1.05961
 Alpha  occ. eigenvalues --   -0.99375  -0.95956  -0.89519  -0.79931  -0.77970
 Alpha  occ. eigenvalues --   -0.72935  -0.68734  -0.66949  -0.64944  -0.62487
 Alpha  occ. eigenvalues --   -0.62041  -0.59440  -0.58990  -0.56843  -0.56037
 Alpha  occ. eigenvalues --   -0.55763  -0.54287  -0.53813  -0.52237  -0.50614
 Alpha  occ. eigenvalues --   -0.43806  -0.42025  -0.40350  -0.39261
 Alpha virt. eigenvalues --    0.02774   0.03667   0.04372   0.04686   0.05597
 Alpha virt. eigenvalues --    0.05965   0.06290   0.06913   0.07017   0.07848
 Alpha virt. eigenvalues --    0.08980   0.09902   0.11011   0.11856   0.12907

 Mulliken atomic charges:
              1
     1  H    0.021783
     2  C    0.395500
     3  H    0.054888
     4  H   -0.145666
     5  C    0.605321
     6  O   -0.847325
     7  N   -0.458555
     8  H   -0.082870
     9  C    0.395697
    10  H   -0.154187
    11  C    0.670657
    12  H    0.033844
    13  H   -0.090989
    14  H   -0.037791
    15  C    0.844068
    16  O   -0.900974
    17  N   -0.598267
    18  H   -0.095039
    19  C    0.736059
    20  H   -0.151522
    21  H   -0.097465
    22  H   -0.097166
 Sum of Mulliken atomic charges =   0.00000

 Dipole moment (field-independent basis, Debye):
    X=             -1.3269    Y=             -1.1255    Z=             -2.7540  Tot=              3.2576
 Quadrupole moment (field-independent basis, Debye-Ang):
   XX=            -65.9534   YY=            -59.9426   ZZ=            -63.0744
   XY=            -11.7348   XZ=              8.6413   YZ=              2.9950

 Normal termination of Gaussian 09 at Sun Feb 12 23:58:21 2017.
