 Gaussian 09, Revision A.02,
 Gaussian 09:  EM64L-G09RevA.02 11-Jun-2009

 -------------------
 #SP MP2/aug-cc-pVDZ
 -------------------

 -------------------------------
 Single Point calculation at MP2
 -------------------------------
 Symbolic Z-matrix:
 Charge =  0 Multiplicity = 1

                         Standard orientation:
 ---------------------------------------------------------------------
 Center     Atomic      Atomic             Coordinates (Angstroms)
 Number     Number       Type             X           Y           Z
 ---------------------------------------------------------------------
      1          1           0       -3.899991   -1.595881    0.139205
      2          6           0       -2.881990   -1.512284    0.523405
      3          1           0       -2.347493   -2.452785    0.353205
      4          1           0       -2.940690   -1.342584    1.605805
      5          6           0       -2.203487   -0.322186   -0.142995
      6          8           0       -2.831784    0.628316   -0.579695
      7          7           0       -0.823287   -0.432690   -0.249495
      8          1           0       -0.447489   -1.104891    0.412805
      9          6           0        0.039416    0.763108   -0.372595
     10          1           0       -0.022183    1.107708   -1.412895
     11          6           0       -0.356180    1.926409    0.550405
     12          1           0       -0.341281    1.606109    1.598905
     13          1           0        0.368322    2.734507    0.434305
     14          1           0       -1.355679    2.281612    0.300505
     15          6           0        1.513615    0.394503   -0.099195
     16          8           0        2.342118    1.252301    0.166905
     17          7           0        1.825011   -0.945398   -0.116095
     18          1           0        1.219610   -1.543996   -0.664095
     19          6           0        3.215010   -1.363402    0.022205
     20          1           0        3.666112   -0.807103    0.845005
     21          1           0        3.246007   -2.433002    0.245305
     22          1           0        3.801711   -1.164904   -0.883995
 ---------------------------------------------------------------------

 SCF Done:  E(RHF) =  -492.915106343     A.U. after   14 cycles
 E2 =    -0.1602985488D+01 EUMP2 =    -0.49451809183141D+03

 The electronic state is 1-A.
 Alpha  occ. eigenvalues --  -20.54418 -20.54228 -15.60577 -15.60466 -11.37199
 Alpha  occ. eigenvalues --  -11.36978 -11.29749 -11.27596 -11.25576 -11.22154
 Alpha  occ. eigenvalues --   -1.39886  -1.39421  -1.25612  -1.22877  -1.05466
 Alpha  occ. eigenvalues --   -0.99528  -0.96496  -0.87819  -0.80091  -0.77980
 Alpha  occ. eigenvalues --   -0.73653  -0.67762  -0.65573  -0.65371  -0.63243
 Alpha  occ. eigenvalues --   -0.62700  -0.60081  -0.59362  -0.57669  -0.56267
 Alpha  occ. eigenvalues --   -0.55553  -0.54270  -0.52498  -0.51462  -0.49787
 Alpha  occ. eigenvalues --   -0.44195  -0.42923  -0.41004  -0.40526
 Alpha virt. eigenvalues --    0.02272   0.03784   0.04233   0.04677   0.05487
 Alpha virt. eigenvalues --    0.05952   0.06566   0.06880   0.07108   0.08592
 Alpha virt. eigenvalues --    0.08661   0.08801   0.10676   0.11915   0.13362

 Mulliken atomic charges:
              1
     1  H   -0.037132
     2  C    0.327439
     3  H   -0.049158
     4  H    0.053862
     5  C    0.531906
     6  O   -0.841179
     7  N   -0.342114
     8  H    0.064141
     9  C   -0.262647
    10  H   -0.092560
    11  C    0.617484
    12  H   -0.033921
    13  H   -0.049595
    14  H    0.021054
    15  C    1.024645
    16  O   -0.822687
    17  N   -0.532908
    18  H   -0.080196
    19  C    0.808645
    20  H   -0.091989
    21  H   -0.174137
    22  H   -0.038953
 Sum of Mulliken atomic charges =   0.00000

 Dipole moment (field-independent basis, Debye):
    X=              0.5120    Y=             -5.1676    Z=              0.7903  Tot=              5.2527
 Quadrupole moment (field-independent basis, Debye-Ang):
   XX=            -71.4411   YY=            -59.6930   ZZ=            -60.6276
   XY=             -1.5376   XZ=             -6.4750   YZ=             -0.2135

 Normal termination of Gaussian 09 at Sun Feb 12 23:48:58 2017.
