 Gaussian 09, Revision A.02,
 Gaussian 09:  EM64L-G09RevA.02 11-Jun-2009

 -------------------
 #SP MP2/aug-cc-pVDZ
 -------------------

 -------------------------------
 Single Point calculation at MP2
 -------------------------------
 Symbolic Z-matrix:
 Charge =  0 Multiplicity = 1

                         Standard orientation:
 ---------------------------------------------------------------------
 Center     Atomic      Atomic             Coordinates (Angstroms)
 Number     Number       Type             X           Y           Z
 ---------------------------------------------------------------------
      1          1           0       -3.626712   -1.695400    0.614496
      2          6           0       -2.985312   -1.518100   -0.252604
      3          1           0       -3.638612   -1.397900   -1.123804
      4          1           0       -2.346012   -2.392500   -0.411704
      5          6           0       -2.216713   -0.219500   -0.027604
      6          8           0       -2.770513    0.780900    0.404196
      7          7           0       -0.881413   -0.285699   -0.354804
      8          1           0       -0.592312   -1.105399   -0.872304
      9          6           0        0.069587    0.835401   -0.381804
     10          1           0       -0.050413    1.412001   -1.306704
     11          6           0       -0.057114    1.788901    0.818796
     12          1           0        0.042387    1.245201    1.764596
     13          1           0        0.746086    2.530402    0.757796
     14          1           0       -1.023214    2.290901    0.813896
     15          6           0        1.507787    0.284302   -0.426804
     16          8           0        2.356287    0.779802   -1.156504
     17          7           0        1.756588   -0.741198    0.440896
     18          1           0        1.001188   -1.041798    1.041596
     19          6           0        3.081288   -1.306097    0.627396
     20          1           0        3.723888   -0.893997   -0.151904
     21          1           0        3.497188   -1.040397    1.607096
     22          1           0        3.056988   -2.397897    0.538496
 ---------------------------------------------------------------------

 SCF Done:  E(RHF) =  -492.917425058     A.U. after   14 cycles
 E2 =    -0.1602027920D+01 EUMP2 =    -0.49451945297797D+03

 The electronic state is 1-A.
 Alpha  occ. eigenvalues --  -20.53824 -20.53723 -15.60879 -15.60183 -11.37347
 Alpha  occ. eigenvalues --  -11.36547 -11.29735 -11.27444 -11.25519 -11.23149
 Alpha  occ. eigenvalues --   -1.39421  -1.38905  -1.25563  -1.23054  -1.06052
 Alpha  occ. eigenvalues --   -0.99702  -0.96211  -0.88740  -0.79983  -0.78215
 Alpha  occ. eigenvalues --   -0.73386  -0.68799  -0.67525  -0.63774  -0.63010
 Alpha  occ. eigenvalues --   -0.62299  -0.59839  -0.59769  -0.57188  -0.56435
 Alpha  occ. eigenvalues --   -0.55361  -0.54396  -0.53262  -0.51842  -0.50585
 Alpha  occ. eigenvalues --   -0.44132  -0.41818  -0.40790  -0.39596
 Alpha virt. eigenvalues --    0.02328   0.03715   0.04305   0.04548   0.05568
 Alpha virt. eigenvalues --    0.06062   0.06233   0.06833   0.07020   0.08055
 Alpha virt. eigenvalues --    0.08409   0.08924   0.11022   0.11866   0.12901

 Mulliken atomic charges:
              1
     1  H    0.021894
     2  C    0.371129
     3  H    0.054407
     4  H   -0.154822
     5  C    0.656747
     6  O   -0.835745
     7  N   -0.258562
     8  H   -0.075562
     9  C    0.082137
    10  H   -0.256298
    11  C    0.741807
    12  H   -0.074407
    13  H   -0.051930
    14  H    0.000302
    15  C    0.863328
    16  O   -0.825312
    17  N   -0.599550
    18  H   -0.051403
    19  C    0.727428
    20  H   -0.141020
    21  H   -0.081725
    22  H   -0.112843
 Sum of Mulliken atomic charges =   0.00000

 Dipole moment (field-independent basis, Debye):
    X=             -0.0773    Y=             -4.6126    Z=              1.1821  Tot=              4.7623
 Quadrupole moment (field-independent basis, Debye-Ang):
   XX=            -71.9603   YY=            -58.5784   ZZ=            -62.2134
   XY=              2.1778   XZ=             10.4556   YZ=              1.0317

 Normal termination of Gaussian 09 at Mon Feb 13 00:07:37 2017.
