 Gaussian 09, Revision A.02,
 Gaussian 09:  EM64L-G09RevA.02 11-Jun-2009

 -------------------
 #SP MP2/aug-cc-pVDZ
 -------------------

 -------------------------------
 Single Point calculation at MP2
 -------------------------------
 Symbolic Z-matrix:
 Charge =  0 Multiplicity = 1

                         Standard orientation:
 ---------------------------------------------------------------------
 Center     Atomic      Atomic             Coordinates (Angstroms)
 Number     Number       Type             X           Y           Z
 ---------------------------------------------------------------------
      1          1           0       -3.829499   -1.709083    0.206199
      2          6           0       -2.867899   -1.490584    0.674499
      3          1           0       -2.269300   -2.406385    0.723599
      4          1           0       -3.061499   -1.151084    1.699399
      5          6           0       -2.186498   -0.374285   -0.107601
      6          8           0       -2.819097    0.486716   -0.699701
      7          7           0       -0.806198   -0.440086   -0.118701
      8          1           0       -0.413699   -1.064987    0.576299
      9          6           0        0.049403    0.729713   -0.421601
     10          1           0        0.052403    0.865813   -1.511901
     11          6           0       -0.406595    2.032413    0.240799
     12          1           0       -0.414295    1.927213    1.330499
     13          1           0        0.297005    2.830413   -0.008201
     14          1           0       -1.405095    2.298814   -0.105401
     15          6           0        1.490903    0.392711    0.024299
     16          8           0        2.186904    1.177111    0.651299
     17          7           0        1.915402   -0.857989   -0.342301
     18          1           0        1.326501   -1.388889   -0.970201
     19          6           0        3.275901   -1.315291   -0.110601
     20          1           0        3.711902   -0.679591    0.660999
     21          1           0        3.276100   -2.355691    0.230399
     22          1           0        3.891301   -1.238691   -1.016201
 ---------------------------------------------------------------------

 SCF Done:  E(RHF) =  -492.916665149     A.U. after   14 cycles
 E2 =    -0.1602567116D+01 EUMP2 =    -0.49451923226530D+03

 The electronic state is 1-A.
 Alpha  occ. eigenvalues --  -20.54197 -20.54021 -15.60512 -15.60389 -11.37038
 Alpha  occ. eigenvalues --  -11.36938 -11.29776 -11.27598 -11.25408 -11.21748
 Alpha  occ. eigenvalues --   -1.39726  -1.39153  -1.25446  -1.22946  -1.05451
 Alpha  occ. eigenvalues --   -0.99371  -0.96698  -0.87610  -0.79863  -0.78389
 Alpha  occ. eigenvalues --   -0.73430  -0.67478  -0.66505  -0.65391  -0.62641
 Alpha  occ. eigenvalues --   -0.62544  -0.60645  -0.59324  -0.57393  -0.55733
 Alpha  occ. eigenvalues --   -0.55463  -0.53759  -0.52602  -0.51612  -0.49842
 Alpha  occ. eigenvalues --   -0.44085  -0.42504  -0.40913  -0.39928
 Alpha virt. eigenvalues --    0.02327   0.03698   0.04205   0.04625   0.05513
 Alpha virt. eigenvalues --    0.05917   0.06582   0.06945   0.07096   0.08415
 Alpha virt. eigenvalues --    0.08571   0.08927   0.10852   0.11841   0.13183

 Mulliken atomic charges:
              1
     1  H   -0.015664
     2  C    0.320581
     3  H   -0.082335
     4  H    0.055776
     5  C    0.487462
     6  O   -0.833180
     7  N   -0.335347
     8  H    0.031169
     9  C   -0.145339
    10  H   -0.154754
    11  C    0.659044
    12  H   -0.029281
    13  H   -0.057384
    14  H    0.017578
    15  C    1.057699
    16  O   -0.791408
    17  N   -0.501712
    18  H   -0.092444
    19  C    0.757669
    20  H   -0.129236
    21  H   -0.132713
    22  H   -0.086181
 Sum of Mulliken atomic charges =   0.00000

 Dipole moment (field-independent basis, Debye):
    X=              0.9635    Y=             -4.8179    Z=              0.1649  Tot=              4.9161
 Quadrupole moment (field-independent basis, Debye-Ang):
   XX=            -70.0485   YY=            -59.5476   ZZ=            -61.1724
   XY=             -1.4141   XZ=             -9.9002   YZ=             -1.6705

 Normal termination of Gaussian 09 at Mon Feb 13 00:29:48 2017.
