 Gaussian 09, Revision A.02,
 Gaussian 09:  EM64L-G09RevA.02 11-Jun-2009

 -------------------
 #SP MP2/aug-cc-pVDZ
 -------------------

 -------------------------------
 Single Point calculation at MP2
 -------------------------------
 Symbolic Z-matrix:
 Charge =  0 Multiplicity = 1

                         Standard orientation:
 ---------------------------------------------------------------------
 Center     Atomic      Atomic             Coordinates (Angstroms)
 Number     Number       Type             X           Y           Z
 ---------------------------------------------------------------------
      1          1           0       -3.737293   -1.616604    0.652190
      2          6           0       -2.958593   -1.583503   -0.113110
      3          1           0       -3.453593   -1.636604   -1.089810
      4          1           0       -2.306992   -2.456502   -0.003910
      5          6           0       -2.223496   -0.251001    0.003190
      6          8           0       -2.819198    0.782697    0.257190
      7          7           0       -0.856096   -0.347099   -0.194710
      8          1           0       -0.581794   -1.189098   -0.688410
      9          6           0        0.067202    0.777403   -0.418110
     10          1           0       -0.000098    1.119203   -1.461110
     11          6           0       -0.190200    1.978902    0.505990
     12          1           0       -0.180999    1.664602    1.555490
     13          1           0        0.615899    2.699304    0.348090
     14          1           0       -1.154501    2.437200    0.296490
     15          6           0        1.536403    0.340505   -0.227810
     16          8           0        2.442702    1.127207   -0.463310
     17          7           0        1.758706   -0.971394    0.106390
     18          1           0        1.008806   -1.435696    0.603090
     19          6           0        3.115906   -1.428892    0.375690
     20          1           0        3.778606   -1.010291   -0.383010
     21          1           0        3.478306   -1.105291    1.360090
     22          1           0        3.144008   -2.520492    0.322990
 ---------------------------------------------------------------------

 SCF Done:  E(RHF) =  -492.914981103     A.U. after   14 cycles
 E2 =    -0.1602111937D+01 EUMP2 =    -0.49451709304055D+03

 The electronic state is 1-A.
 Alpha  occ. eigenvalues --  -20.54201 -20.53803 -15.60857 -15.60384 -11.37508
 Alpha  occ. eigenvalues --  -11.36579 -11.29848 -11.27436 -11.25633 -11.22254
 Alpha  occ. eigenvalues --   -1.39675  -1.39165  -1.25684  -1.22961  -1.05758
 Alpha  occ. eigenvalues --   -0.99553  -0.96261  -0.88039  -0.80253  -0.77110
 Alpha  occ. eigenvalues --   -0.73542  -0.69125  -0.67653  -0.63891  -0.62866
 Alpha  occ. eigenvalues --   -0.62354  -0.60525  -0.59699  -0.57184  -0.55746
 Alpha  occ. eigenvalues --   -0.55182  -0.53364  -0.52596  -0.51804  -0.50182
 Alpha  occ. eigenvalues --   -0.44184  -0.42984  -0.40376  -0.40342
 Alpha virt. eigenvalues --    0.02204   0.03723   0.04132   0.04680   0.05563
 Alpha virt. eigenvalues --    0.06024   0.06576   0.06669   0.06989   0.08210
 Alpha virt. eigenvalues --    0.08639   0.08839   0.10833   0.12061   0.12884

 Mulliken atomic charges:
              1
     1  H    0.004910
     2  C    0.362969
     3  H    0.059456
     4  H   -0.122954
     5  C    0.622431
     6  O   -0.813587
     7  N   -0.380795
     8  H   -0.039905
     9  C   -0.180046
    10  H   -0.078526
    11  C    0.721660
    12  H   -0.033896
    13  H   -0.053463
    14  H    0.009702
    15  C    0.939253
    16  O   -0.851763
    17  N   -0.561592
    18  H   -0.056624
    19  C    0.783256
    20  H   -0.104004
    21  H   -0.052515
    22  H   -0.173970
 Sum of Mulliken atomic charges =   0.00000

 Dipole moment (field-independent basis, Debye):
    X=             -0.1957    Y=             -5.3924    Z=              0.0285  Tot=              5.3960
 Quadrupole moment (field-independent basis, Debye-Ang):
   XX=            -72.8307   YY=            -59.5063   ZZ=            -59.9832
   XY=              0.1961   XZ=              5.6851   YZ=             -0.0929

 Normal termination of Gaussian 09 at Sun Feb 12 22:44:50 2017.
