 Gaussian 09, Revision A.02,
 Gaussian 09:  EM64L-G09RevA.02 11-Jun-2009

 -------------------
 #SP MP2/aug-cc-pVDZ
 -------------------

 -------------------------------
 Single Point calculation at MP2
 -------------------------------
 Symbolic Z-matrix:
 Charge =  0 Multiplicity = 1

                         Standard orientation:
 ---------------------------------------------------------------------
 Center     Atomic      Atomic             Coordinates (Angstroms)
 Number     Number       Type             X           Y           Z
 ---------------------------------------------------------------------
      1          1           0       -4.152294   -1.167708   -0.536117
      2          6           0       -3.231294   -1.283407    0.039383
      3          1           0       -2.779492   -2.254806   -0.184717
      4          1           0       -3.496194   -1.262807    1.103283
      5          6           0       -2.309896   -0.111005   -0.270717
      6          8           0       -2.740198    1.010694   -0.510417
      7          7           0       -0.971495   -0.421603   -0.290717
      8          1           0       -0.703294   -1.293102    0.156583
      9          6           0        0.078903    0.593199   -0.192417
     10          1           0        0.159702    1.109599   -1.157017
     11          6           0       -0.153499    1.635598    0.919983
     12          1           0       -0.195098    1.135498    1.892783
     13          1           0        0.671900    2.356900    0.936783
     14          1           0       -1.088900    2.166997    0.742683
     15          6           0        1.372504   -0.170899    0.130283
     16          8           0        1.380306   -1.064699    0.973183
     17          7           0        2.467304    0.200003   -0.585517
     18          1           0        2.366802    0.938803   -1.266817
     19          6           0        3.787704   -0.362995   -0.356917
     20          1           0        3.678606   -1.162395    0.376883
     21          1           0        4.198505   -0.777494   -1.284017
     22          1           0        4.481703    0.390806    0.033583
 ---------------------------------------------------------------------

 SCF Done:  E(RHF) =  -492.923651781     A.U. after   14 cycles
 E2 =    -0.1601638089D+01 EUMP2 =    -0.49452528987033D+03

 The electronic state is 1-A.
 Alpha  occ. eigenvalues --  -20.54237 -20.52973 -15.61008 -15.59098 -11.37145
 Alpha  occ. eigenvalues --  -11.36031 -11.29605 -11.27769 -11.24334 -11.22945
 Alpha  occ. eigenvalues --   -1.39808  -1.38124  -1.24630  -1.23418  -1.05465
 Alpha  occ. eigenvalues --   -0.99006  -0.96481  -0.88297  -0.80412  -0.77631
 Alpha  occ. eigenvalues --   -0.73090  -0.67538  -0.66339  -0.63904  -0.63499
 Alpha  occ. eigenvalues --   -0.61943  -0.60474  -0.58416  -0.56511  -0.56314
 Alpha  occ. eigenvalues --   -0.55696  -0.54673  -0.52271  -0.51981  -0.49692
 Alpha  occ. eigenvalues --   -0.43694  -0.42197  -0.40518  -0.39443
 Alpha virt. eigenvalues --    0.02738   0.04015   0.04355   0.04427   0.05738
 Alpha virt. eigenvalues --    0.05982   0.06419   0.06851   0.07863   0.08020
 Alpha virt. eigenvalues --    0.08928   0.09308   0.11374   0.11960   0.12660

 Mulliken atomic charges:
              1
     1  H   -0.009695
     2  C    0.322122
     3  H   -0.085574
     4  H    0.058989
     5  C    0.612764
     6  O   -0.849737
     7  N   -0.291603
     8  H   -0.000282
     9  C   -0.282757
    10  H   -0.298057
    11  C    0.703747
    12  H    0.009247
    13  H   -0.075181
    14  H   -0.006221
    15  C    1.292614
    16  O   -0.887069
    17  N   -0.503189
    18  H   -0.105827
    19  C    0.729775
    20  H   -0.142927
    21  H   -0.102649
    22  H   -0.088489
 Sum of Mulliken atomic charges =   0.00000

 Dipole moment (field-independent basis, Debye):
    X=              3.0226    Y=             -0.3614    Z=             -1.2302  Tot=              3.2833
 Quadrupole moment (field-independent basis, Debye-Ang):
   XX=            -57.6595   YY=            -62.5074   ZZ=            -62.6848
   XY=             12.9025   XZ=             -8.5171   YZ=              2.0203

 Normal termination of Gaussian 09 at Sun Feb 12 23:38:50 2017.
