 Gaussian 09, Revision A.02,
 Gaussian 09:  EM64L-G09RevA.02 11-Jun-2009

 -------------------
 #SP MP2/aug-cc-pVDZ
 -------------------

 -------------------------------
 Single Point calculation at MP2
 -------------------------------
 Symbolic Z-matrix:
 Charge =  0 Multiplicity = 1

                         Standard orientation:
 ---------------------------------------------------------------------
 Center     Atomic      Atomic             Coordinates (Angstroms)
 Number     Number       Type             X           Y           Z
 ---------------------------------------------------------------------
      1          1           0        4.137089   -1.042827   -0.126903
      2          6           0        3.119087   -1.314420    0.156997
      3          1           0        3.117084   -1.705220    1.180497
      4          1           0        2.771782   -2.110618   -0.512703
      5          6           0        2.223596   -0.090814   -0.010103
      6          8           0        2.529702    0.834884   -0.746003
      7          7           0        1.077795   -0.144306    0.754597
      8          1           0        0.906389   -1.048105    1.176397
      9          6           0       -0.137699    0.648802    0.608797
     10          1           0       -0.463597    0.921204    1.624797
     11          6           0        0.011410    1.952001   -0.193003
     12          1           0        0.258908    1.753899   -1.235603
     13          1           0       -0.938287    2.497808   -0.146803
     14          1           0        0.798914    2.580496    0.225997
     15          6           0       -1.243305   -0.239190   -0.014803
     16          8           0       -0.983912   -1.172492   -0.762703
     17          7           0       -2.512803    0.095519    0.362797
     18          1           0       -2.641498    0.900620    0.959597
     19          6           0       -3.691608   -0.546373   -0.193603
     20          1           0       -3.350314   -1.407176   -0.770003
     21          1           0       -4.361110   -0.887069    0.603997
     22          1           0       -4.245503    0.129331   -0.857103
 ---------------------------------------------------------------------

 SCF Done:  E(RHF) =  -492.915333649     A.U. after   14 cycles
 E2 =    -0.1600459288D+01 EUMP2 =    -0.49451579293627D+03

 The electronic state is 1-A.
 Alpha  occ. eigenvalues --  -20.53745 -20.52425 -15.60345 -15.59129 -11.36407
 Alpha  occ. eigenvalues --  -11.35866 -11.29997 -11.27427 -11.23895 -11.23336
 Alpha  occ. eigenvalues --   -1.39226  -1.37710  -1.24077  -1.23358  -1.05613
 Alpha  occ. eigenvalues --   -0.98619  -0.95972  -0.88426  -0.80134  -0.76406
 Alpha  occ. eigenvalues --   -0.72461  -0.69361  -0.66089  -0.63182  -0.62948
 Alpha  occ. eigenvalues --   -0.61956  -0.59430  -0.58462  -0.56411  -0.55464
 Alpha  occ. eigenvalues --   -0.55294  -0.53506  -0.52951  -0.51602  -0.50339
 Alpha  occ. eigenvalues --   -0.43604  -0.41315  -0.39918  -0.39001
 Alpha virt. eigenvalues --    0.02453   0.03794   0.04195   0.04532   0.05790
 Alpha virt. eigenvalues --    0.06062   0.06277   0.06837   0.07715   0.08118
 Alpha virt. eigenvalues --    0.08679   0.08840   0.11027   0.11599   0.13292

 Mulliken atomic charges:
              1
     1  H   -0.050085
     2  C    0.293789
     3  H   -0.038163
     4  H    0.075924
     5  C    0.687843
     6  O   -0.807552
     7  N   -0.483752
     8  H   -0.067505
     9  C   -0.183255
    10  H   -0.206844
    11  C    0.734940
    12  H    0.054477
    13  H   -0.140952
    14  H    0.007736
    15  C    1.212313
    16  O   -0.856403
    17  N   -0.492316
    18  H   -0.116482
    19  C    0.730882
    20  H   -0.144639
    21  H   -0.117597
    22  H   -0.092358
 Sum of Mulliken atomic charges =   0.00000

 Dipole moment (field-independent basis, Debye):
    X=             -3.4146    Y=              0.0165    Z=              3.9223  Tot=              5.2004
 Quadrupole moment (field-independent basis, Debye-Ang):
   XX=            -55.5103   YY=            -61.4717   ZZ=            -62.6149
   XY=            -10.5231   XZ=              1.9013   YZ=             -0.4920

 Normal termination of Gaussian 09 at Sun Feb 12 15:52:00 2017.
