 Gaussian 09, Revision A.02,
 Gaussian 09:  EM64L-G09RevA.02 11-Jun-2009

 -------------------
 #SP MP2/aug-cc-pVDZ
 -------------------

 -------------------------------
 Single Point calculation at MP2
 -------------------------------
 Symbolic Z-matrix:
 Charge =  0 Multiplicity = 1

                         Standard orientation:
 ---------------------------------------------------------------------
 Center     Atomic      Atomic             Coordinates (Angstroms)
 Number     Number       Type             X           Y           Z
 ---------------------------------------------------------------------
      1          1           0       -4.119098   -0.801086    0.511612
      2          6           0       -3.126498   -1.206788    0.304712
      3          1           0       -3.161199   -1.809188   -0.608288
      4          1           0       -2.850699   -1.860489    1.140712
      5          6           0       -2.135696   -0.049190    0.229912
      6          8           0       -2.254094    0.939310    0.942812
      7          7           0       -1.144097   -0.230092   -0.703688
      8          1           0       -1.020198   -1.180392   -1.033388
      9          6           0        0.094105    0.540006   -0.844688
     10          1           0        0.289405    0.592406   -1.926988
     11          6           0        0.031507    1.982406   -0.333288
     12          1           0       -0.032293    2.041806    0.753712
     13          1           0        0.914908    2.527805   -0.688788
     14          1           0       -0.849692    2.486708   -0.734088
     15          6           0        1.250203   -0.343696   -0.305688
     16          8           0        1.197201   -1.562096   -0.454288
     17          7           0        2.315504    0.297202    0.243612
     18          1           0        2.245206    1.288102    0.419312
     19          6           0        3.475403   -0.414900    0.755312
     20          1           0        3.397001   -1.451300    0.425512
     21          1           0        4.399504    0.023899    0.363912
     22          1           0        3.508303   -0.392800    1.851512
 ---------------------------------------------------------------------

 SCF Done:  E(RHF) =  -492.917303349     A.U. after   14 cycles
 E2 =    -0.1600907130D+01 EUMP2 =    -0.49451821047946D+03

 The electronic state is 1-A.
 Alpha  occ. eigenvalues --  -20.53655 -20.52578 -15.60467 -15.59058 -11.36644
 Alpha  occ. eigenvalues --  -11.36065 -11.30029 -11.27389 -11.24060 -11.23852
 Alpha  occ. eigenvalues --   -1.39298  -1.37814  -1.24158  -1.23367  -1.05704
 Alpha  occ. eigenvalues --   -0.98809  -0.95853  -0.89399  -0.80450  -0.76053
 Alpha  occ. eigenvalues --   -0.72650  -0.69294  -0.65853  -0.64807  -0.62208
 Alpha  occ. eigenvalues --   -0.61805  -0.59468  -0.58733  -0.56421  -0.55790
 Alpha  occ. eigenvalues --   -0.55410  -0.54461  -0.52914  -0.51543  -0.50471
 Alpha  occ. eigenvalues --   -0.43728  -0.41741  -0.40189  -0.38804
 Alpha virt. eigenvalues --    0.02874   0.03982   0.04220   0.04796   0.05587
 Alpha virt. eigenvalues --    0.06019   0.06268   0.06897   0.07519   0.07792
 Alpha virt. eigenvalues --    0.09321   0.09925   0.10734   0.11288   0.13405

 Mulliken atomic charges:
              1
     1  H   -0.010964
     2  C    0.343534
     3  H   -0.086154
     4  H    0.059157
     5  C    0.624824
     6  O   -0.819787
     7  N   -0.511258
     8  H   -0.014494
     9  C   -0.084658
    10  H   -0.059007
    11  C    0.821925
    12  H    0.066665
    13  H   -0.058012
    14  H   -0.117340
    15  C    0.996329
    16  O   -0.871498
    17  N   -0.529596
    18  H   -0.117867
    19  C    0.723501
    20  H   -0.145712
    21  H   -0.131435
    22  H   -0.078154
 Sum of Mulliken atomic charges =   0.00000

 Dipole moment (field-independent basis, Debye):
    X=              2.2471    Y=              0.7635    Z=             -1.0408  Tot=              2.5915
 Quadrupole moment (field-independent basis, Debye-Ang):
   XX=            -55.6437   YY=            -64.0374   ZZ=            -62.0405
   XY=             12.0666   XZ=              6.6972   YZ=             -3.5929

 Normal termination of Gaussian 09 at Sun Feb 12 13:59:36 2017.
