 Gaussian 09, Revision A.02,
 Gaussian 09:  EM64L-G09RevA.02 11-Jun-2009

 -------------------
 #SP MP2/aug-cc-pVDZ
 -------------------

 -------------------------------
 Single Point calculation at MP2
 -------------------------------
 Symbolic Z-matrix:
 Charge =  0 Multiplicity = 1

                         Standard orientation:
 ---------------------------------------------------------------------
 Center     Atomic      Atomic             Coordinates (Angstroms)
 Number     Number       Type             X           Y           Z
 ---------------------------------------------------------------------
      1          1           0       -3.651782   -1.625631    0.523406
      2          6           0       -3.152785   -1.144727   -0.319794
      3          1           0       -3.875190   -0.477332   -0.805494
      4          1           0       -2.851279   -1.906525   -1.046994
      5          6           0       -1.980891   -0.324918    0.210506
      6          8           0       -1.972195    0.137882    1.339206
      7          7           0       -0.937992   -0.180011   -0.687694
      8          1           0       -1.142490   -0.517112   -1.619694
      9          6           0        0.108200    0.863797   -0.642794
     10          1           0        0.292098    1.122798   -1.694194
     11          6           0       -0.276710    2.156794    0.082306
     12          1           0       -0.477908    1.978293    1.137806
     13          1           0        0.557485    2.854600   -0.013094
     14          1           0       -1.169913    2.596988   -0.372594
     15          6           0        1.478904    0.336107   -0.149994
     16          8           0        2.388598    1.117914    0.100306
     17          7           0        1.616014   -1.018392   -0.140294
     18          1           0        0.763118   -1.556598   -0.208894
     19          6           0        2.829019   -1.664583    0.327406
     20          1           0        3.626913   -0.920777    0.311106
     21          1           0        2.721822   -2.041984    1.352706
     22          1           0        3.095325   -2.499081   -0.330094
 ---------------------------------------------------------------------

 SCF Done:  E(RHF) =  -492.917125831     A.U. after   14 cycles
 E2 =    -0.1602244633D+01 EUMP2 =    -0.49451937046434D+03

 The electronic state is 1-A.
 Alpha  occ. eigenvalues --  -20.54374 -20.52641 -15.61017 -15.59186 -11.37559
 Alpha  occ. eigenvalues --  -11.35626 -11.29996 -11.26583 -11.25849 -11.22089
 Alpha  occ. eigenvalues --   -1.39734  -1.38064  -1.25240  -1.22451  -1.05624
 Alpha  occ. eigenvalues --   -0.99699  -0.95848  -0.87888  -0.80200  -0.77010
 Alpha  occ. eigenvalues --   -0.72129  -0.70448  -0.66349  -0.63425  -0.62424
 Alpha  occ. eigenvalues --   -0.61814  -0.60480  -0.59386  -0.57295  -0.55054
 Alpha  occ. eigenvalues --   -0.54655  -0.54051  -0.51894  -0.51789  -0.50080
 Alpha  occ. eigenvalues --   -0.44591  -0.42905  -0.39552  -0.39048
 Alpha virt. eigenvalues --    0.02127   0.03637   0.03975   0.04695   0.05628
 Alpha virt. eigenvalues --    0.06188   0.06225   0.06448   0.07600   0.08082
 Alpha virt. eigenvalues --    0.08459   0.09215   0.11342   0.12275   0.12427

 Mulliken atomic charges:
              1
     1  H   -0.011801
     2  C    0.359830
     3  H    0.049502
     4  H   -0.088029
     5  C    0.745584
     6  O   -0.821726
     7  N   -0.257993
     8  H   -0.087187
     9  C   -0.524698
    10  H   -0.022923
    11  C    0.726863
    12  H    0.039172
    13  H   -0.069283
    14  H   -0.020825
    15  C    1.011716
    16  O   -0.842421
    17  N   -0.477954
    18  H   -0.066550
    19  C    0.710888
    20  H   -0.140540
    21  H   -0.076607
    22  H   -0.135019
 Sum of Mulliken atomic charges =   0.00000

 Dipole moment (field-independent basis, Debye):
    X=             -2.5605    Y=             -3.7009    Z=             -4.0825  Tot=              6.0761
 Quadrupole moment (field-independent basis, Debye-Ang):
   XX=            -64.8986   YY=            -58.6137   ZZ=            -62.5310
   XY=             -4.4093   XZ=              7.0926   YZ=             -1.3221

 Normal termination of Gaussian 09 at Sun Feb 12 16:48:50 2017.
