 Gaussian 09, Revision A.02,
 Gaussian 09:  EM64L-G09RevA.02 11-Jun-2009

 -------------------
 #SP MP2/aug-cc-pVDZ
 -------------------

 -------------------------------
 Single Point calculation at MP2
 -------------------------------
 Symbolic Z-matrix:
 Charge =  0 Multiplicity = 1

                         Standard orientation:
 ---------------------------------------------------------------------
 Center     Atomic      Atomic             Coordinates (Angstroms)
 Number     Number       Type             X           Y           Z
 ---------------------------------------------------------------------
      1          1           0       -4.121492   -1.121808   -0.017813
      2          6           0       -3.079291   -1.392306   -0.195713
      3          1           0       -2.984791   -1.845006   -1.188913
      4          1           0       -2.785790   -2.140106    0.550787
      5          6           0       -2.216893   -0.145605   -0.020313
      6          8           0       -2.569595    0.783195    0.689687
      7          7           0       -1.042793   -0.186003   -0.740013
      8          1           0       -0.850892   -1.074403   -1.184413
      9          6           0        0.139205    0.659799   -0.598513
     10          1           0        0.474805    0.903299   -1.618713
     11          6           0       -0.078697    1.983199    0.148987
     12          1           0       -0.343497    1.808398    1.191087
     13          1           0        0.854002    2.558200    0.104687
     14          1           0       -0.876698    2.567797   -0.311913
     15          6           0        1.256707   -0.148899    0.102187
     16          8           0        1.032508   -0.847500    1.080987
     17          7           0        2.491306   -0.023597   -0.471413
     18          1           0        2.596405    0.600803   -1.258513
     19          6           0        3.686107   -0.614795    0.106587
     20          1           0        3.363009   -1.274196    0.913187
     21          1           0        4.232208   -1.199194   -0.642313
     22          1           0        4.357006    0.149506    0.518087
 ---------------------------------------------------------------------

 SCF Done:  E(RHF) =  -492.914265693     A.U. after   14 cycles
 E2 =    -0.1600872866D+01 EUMP2 =    -0.49451513855836D+03

 The electronic state is 1-A.
 Alpha  occ. eigenvalues --  -20.53501 -20.52377 -15.60475 -15.59411 -11.36284
 Alpha  occ. eigenvalues --  -11.35948 -11.29998 -11.27429 -11.24044 -11.23019
 Alpha  occ. eigenvalues --   -1.39048  -1.37707  -1.24135  -1.23406  -1.05593
 Alpha  occ. eigenvalues --   -0.98651  -0.96097  -0.88229  -0.80140  -0.76736
 Alpha  occ. eigenvalues --   -0.72346  -0.69476  -0.66071  -0.63371  -0.62753
 Alpha  occ. eigenvalues --   -0.61911  -0.59525  -0.58471  -0.56310  -0.55430
 Alpha  occ. eigenvalues --   -0.55262  -0.53385  -0.52562  -0.51538  -0.50398
 Alpha  occ. eigenvalues --   -0.43782  -0.41205  -0.39911  -0.38838
 Alpha virt. eigenvalues --    0.02327   0.03715   0.04110   0.04528   0.05850
 Alpha virt. eigenvalues --    0.05944   0.06216   0.06707   0.07849   0.08053
 Alpha virt. eigenvalues --    0.08610   0.08834   0.10934   0.11836   0.13194

 Mulliken atomic charges:
              1
     1  H   -0.035392
     2  C    0.306983
     3  H   -0.061943
     4  H    0.072843
     5  C    0.680731
     6  O   -0.802153
     7  N   -0.432977
     8  H   -0.081650
     9  C   -0.225912
    10  H   -0.276794
    11  C    0.744189
    12  H    0.064102
    13  H   -0.114460
    14  H    0.003750
    15  C    1.239329
    16  O   -0.864093
    17  N   -0.486649
    18  H   -0.109364
    19  C    0.738870
    20  H   -0.148603
    21  H   -0.117527
    22  H   -0.093279
 Sum of Mulliken atomic charges =   0.00000

 Dipole moment (field-independent basis, Debye):
    X=              3.4012    Y=             -0.6836    Z=             -4.6852  Tot=              5.8298
 Quadrupole moment (field-independent basis, Debye-Ang):
   XX=            -56.2343   YY=            -60.0748   ZZ=            -63.1852
   XY=              9.3800   XZ=              0.5108   YZ=              0.7979

 Normal termination of Gaussian 09 at Sun Feb 12 14:14:00 2017.
