 Gaussian 09, Revision A.02,
 Gaussian 09:  EM64L-G09RevA.02 11-Jun-2009

 -------------------
 #SP MP2/aug-cc-pVDZ
 -------------------

 -------------------------------
 Single Point calculation at MP2
 -------------------------------
 Symbolic Z-matrix:
 Charge =  0 Multiplicity = 1

                         Standard orientation:
 ---------------------------------------------------------------------
 Center     Atomic      Atomic             Coordinates (Angstroms)
 Number     Number       Type             X           Y           Z
 ---------------------------------------------------------------------
      1          1           0        4.122000   -1.005476   -0.303908
      2          6           0        3.128101   -1.279279    0.052892
      3          1           0        3.198202   -1.658979    1.078092
      4          1           0        2.737404   -2.084280   -0.581308
      5          6           0        2.216698   -0.061082   -0.057408
      6          8           0        2.487095    0.882519   -0.785308
      7          7           0        1.103598   -0.139485    0.753192
      8          1           0        0.934501   -1.069686    1.116092
      9          6           0       -0.130504    0.631611    0.648192
     10          1           0       -0.439605    0.878410    1.675992
     11          6           0       -0.019608    1.955711   -0.125608
     12          1           0        0.188092    1.792212   -1.182908
     13          1           0       -0.962610    2.506509   -0.028108
     14          1           0        0.783290    2.573414    0.279592
     15          6           0       -1.236402   -0.288192    0.064392
     16          8           0       -0.978298   -1.378191   -0.431808
     17          7           0       -2.506503    0.189104    0.207092
     18          1           0       -2.635106    1.112104    0.596692
     19          6           0       -3.672401   -0.511700   -0.303608
     20          1           0       -3.339398   -1.493299   -0.642808
     21          1           0       -4.425801   -0.637102    0.482192
     22          1           0       -4.126303    0.021799   -1.147808
 ---------------------------------------------------------------------

 SCF Done:  E(RHF) =  -492.915856116     A.U. after   14 cycles
 E2 =    -0.1600252304D+01 EUMP2 =    -0.49451610841991D+03

 The electronic state is 1-A.
 Alpha  occ. eigenvalues --  -20.53942 -20.52501 -15.60296 -15.58870 -11.36578
 Alpha  occ. eigenvalues --  -11.35823 -11.30021 -11.27439 -11.23797 -11.23616
 Alpha  occ. eigenvalues --   -1.39404  -1.37735  -1.24080  -1.23288  -1.05606
 Alpha  occ. eigenvalues --   -0.98599  -0.95893  -0.88689  -0.80207  -0.76032
 Alpha  occ. eigenvalues --   -0.72610  -0.69221  -0.66094  -0.63635  -0.62670
 Alpha  occ. eigenvalues --   -0.62009  -0.59362  -0.58529  -0.56494  -0.55546
 Alpha  occ. eigenvalues --   -0.55270  -0.53796  -0.53004  -0.51650  -0.50351
 Alpha  occ. eigenvalues --   -0.43552  -0.41486  -0.40056  -0.39002
 Alpha virt. eigenvalues --    0.02546   0.03896   0.04257   0.04540   0.05765
 Alpha virt. eigenvalues --    0.06150   0.06297   0.06905   0.07536   0.08125
 Alpha virt. eigenvalues --    0.08862   0.09005   0.11255   0.11557   0.13079

 Mulliken atomic charges:
              1
     1  H   -0.061012
     2  C    0.296773
     3  H   -0.023364
     4  H    0.075424
     5  C    0.692481
     6  O   -0.806353
     7  N   -0.538714
     8  H   -0.034894
     9  C   -0.099363
    10  H   -0.132731
    11  C    0.721704
    12  H    0.050020
    13  H   -0.182133
    14  H    0.003306
    15  C    1.131907
    16  O   -0.825655
    17  N   -0.526168
    18  H   -0.108889
    19  C    0.718886
    20  H   -0.145890
    21  H   -0.116128
    22  H   -0.089206
 Sum of Mulliken atomic charges =   0.00000

 Dipole moment (field-independent basis, Debye):
    X=             -3.3604    Y=              0.4025    Z=              3.0615  Tot=              4.5637
 Quadrupole moment (field-independent basis, Debye-Ang):
   XX=            -55.2632   YY=            -62.4812   ZZ=            -62.3162
   XY=            -11.2524   XZ=              3.0063   YZ=              0.3477

 Normal termination of Gaussian 09 at Sun Feb 12 16:42:43 2017.
