 Gaussian 09, Revision A.02,
 Gaussian 09:  EM64L-G09RevA.02 11-Jun-2009

 -------------------
 #SP MP2/aug-cc-pVDZ
 -------------------

 -------------------------------
 Single Point calculation at MP2
 -------------------------------
 Symbolic Z-matrix:
 Charge =  0 Multiplicity = 1

                         Standard orientation:
 ---------------------------------------------------------------------
 Center     Atomic      Atomic             Coordinates (Angstroms)
 Number     Number       Type             X           Y           Z
 ---------------------------------------------------------------------
      1          1           0       -4.078588   -0.761103    0.372208
      2          6           0       -3.083490   -1.214606    0.385808
      3          1           0       -3.015792   -1.951806   -0.419992
      4          1           0       -2.972191   -1.728407    1.346508
      5          6           0       -2.044586   -0.100409    0.303308
      6          8           0       -2.082683    0.857191    1.067008
      7          7           0       -1.112587   -0.273912   -0.685492
      8          1           0       -1.074689   -1.182612   -1.128192
      9          6           0        0.081916    0.536184   -0.959992
     10          1           0        0.195216    0.528784   -2.051892
     11          6           0       -0.008780    1.998085   -0.519092
     12          1           0       -0.110080    2.110985    0.560908
     13          1           0        0.880522    2.531082   -0.875192
     14          1           0       -0.887979    2.469687   -0.965492
     15          6           0        1.298613   -0.285219   -0.467792
     16          8           0        1.494910   -1.398020   -0.949792
     17          7           0        2.076615    0.267878    0.498608
     18          1           0        1.804118    1.159379    0.885008
     19          6           0        3.209513   -0.427925    1.085408
     20          1           0        3.368510   -1.339725    0.508308
     21          1           0        4.111415    0.192572    1.041708
     22          1           0        3.014412   -0.696624    2.130708
 ---------------------------------------------------------------------

 SCF Done:  E(RHF) =  -492.917242856     A.U. after   14 cycles
 E2 =    -0.1601228788D+01 EUMP2 =    -0.49451847164446D+03

 The electronic state is 1-A.
 Alpha  occ. eigenvalues --  -20.53277 -20.52758 -15.60260 -15.59867 -11.36510
 Alpha  occ. eigenvalues --  -11.36342 -11.29938 -11.27185 -11.24515 -11.23761
 Alpha  occ. eigenvalues --   -1.38957  -1.38033  -1.24137  -1.23591  -1.05836
 Alpha  occ. eigenvalues --   -0.99085  -0.95787  -0.89564  -0.80309  -0.76818
 Alpha  occ. eigenvalues --   -0.72430  -0.69696  -0.65715  -0.64971  -0.62085
 Alpha  occ. eigenvalues --   -0.61717  -0.59461  -0.58880  -0.56542  -0.55694
 Alpha  occ. eigenvalues --   -0.55419  -0.54581  -0.52938  -0.51648  -0.50828
 Alpha  occ. eigenvalues --   -0.43875  -0.41884  -0.39805  -0.38803
 Alpha virt. eigenvalues --    0.03098   0.03816   0.04122   0.05038   0.05545
 Alpha virt. eigenvalues --    0.05920   0.06355   0.06970   0.07602   0.07709
 Alpha virt. eigenvalues --    0.09162   0.09804   0.10933   0.11347   0.13327

 Mulliken atomic charges:
              1
     1  H    0.028337
     2  C    0.409585
     3  H   -0.154454
     4  H    0.049769
     5  C    0.602244
     6  O   -0.829593
     7  N   -0.456872
     8  H   -0.061889
     9  C   -0.051274
    10  H   -0.115332
    11  C    0.797717
    12  H    0.143586
    13  H   -0.084144
    14  H   -0.114328
    15  C    1.018041
    16  O   -0.909823
    17  N   -0.557911
    18  H   -0.108333
    19  C    0.737284
    20  H   -0.142732
    21  H   -0.117406
    22  H   -0.082473
 Sum of Mulliken atomic charges =   0.00000

 Dipole moment (field-independent basis, Debye):
    X=              0.8642    Y=              0.5829    Z=             -0.2473  Tot=              1.0713
 Quadrupole moment (field-independent basis, Debye-Ang):
   XX=            -57.5887   YY=            -63.0264   ZZ=            -62.6270
   XY=             11.7012   XZ=              9.5235   YZ=             -5.1230

 Normal termination of Gaussian 09 at Sun Feb 12 14:46:13 2017.
