 Gaussian 09, Revision A.02,
 Gaussian 09:  EM64L-G09RevA.02 11-Jun-2009

 -------------------
 #SP MP2/aug-cc-pVDZ
 -------------------

 -------------------------------
 Single Point calculation at MP2
 -------------------------------
 Symbolic Z-matrix:
 Charge =  0 Multiplicity = 1

                         Standard orientation:
 ---------------------------------------------------------------------
 Center     Atomic      Atomic             Coordinates (Angstroms)
 Number     Number       Type             X           Y           Z
 ---------------------------------------------------------------------
      1          1           0        3.396805   -1.897096    0.362000
      2          6           0        3.173409   -0.881595    0.697300
      3          1           0        4.030511   -0.250598    0.435700
      4          1           0        3.060009   -0.876394    1.786100
      5          6           0        1.944910   -0.379191   -0.050600
      6          8           0        1.786310   -0.601590   -1.247600
      7          7           0        1.047113    0.314612    0.712100
      8          1           0        1.239613    0.403611    1.699400
      9          6           0       -0.080685    1.125616    0.218800
     10          1           0       -0.163982    1.954016    0.929800
     11          6           0        0.095217    1.735715   -1.174000
     12          1           0        0.176815    0.995415   -1.968000
     13          1           0       -0.758381    2.392018   -1.373800
     14          1           0        1.006619    2.341812   -1.199900
     15          6           0       -1.381687    0.328720    0.466600
     16          8           0       -2.003687    0.452522    1.515200
     17          7           0       -1.759890   -0.494479   -0.552900
     18          1           0       -1.076491   -0.674081   -1.278000
     19          6           0       -2.868393   -1.424475   -0.413400
     20          1           0       -3.562492   -1.011373    0.319600
     21          1           0       -3.378793   -1.543074   -1.374000
     22          1           0       -2.538396   -2.411376   -0.062300
 ---------------------------------------------------------------------

 SCF Done:  E(RHF) =  -492.918651470     A.U. after   14 cycles
 E2 =    -0.1601455953D+01 EUMP2 =    -0.49452010742282D+03

 The electronic state is 1-A.
 Alpha  occ. eigenvalues --  -20.53653 -20.53192 -15.60745 -15.59128 -11.37252
 Alpha  occ. eigenvalues --  -11.35695 -11.29782 -11.26492 -11.25360 -11.23637
 Alpha  occ. eigenvalues --   -1.39141  -1.38264  -1.24661  -1.22761  -1.05960
 Alpha  occ. eigenvalues --   -0.99696  -0.95255  -0.89347  -0.79998  -0.77270
 Alpha  occ. eigenvalues --   -0.72069  -0.70092  -0.65929  -0.64314  -0.62230
 Alpha  occ. eigenvalues --   -0.61594  -0.59780  -0.58799  -0.57094  -0.55971
 Alpha  occ. eigenvalues --   -0.54944  -0.54336  -0.52518  -0.51792  -0.51158
 Alpha  occ. eigenvalues --   -0.44149  -0.42669  -0.39352  -0.38975
 Alpha virt. eigenvalues --    0.02926   0.03937   0.04105   0.04874   0.05717
 Alpha virt. eigenvalues --    0.05854   0.06423   0.06680   0.07757   0.07841
 Alpha virt. eigenvalues --    0.08930   0.09660   0.11100   0.11840   0.12128

 Mulliken atomic charges:
              1
     1  H    0.021618
     2  C    0.444755
     3  H    0.052601
     4  H   -0.116969
     5  C    0.582715
     6  O   -0.831369
     7  N   -0.392970
     8  H   -0.095736
     9  C    0.006617
    10  H   -0.210333
    11  C    0.775324
    12  H    0.042799
    13  H   -0.069058
    14  H   -0.036903
    15  C    0.908701
    16  O   -0.851197
    17  N   -0.562974
    18  H   -0.060670
    19  C    0.740344
    20  H   -0.124998
    21  H   -0.145101
    22  H   -0.077195
 Sum of Mulliken atomic charges =   0.00000

 Dipole moment (field-independent basis, Debye):
    X=              1.9567    Y=              0.0276    Z=              0.2323  Tot=              1.9706
 Quadrupole moment (field-independent basis, Debye-Ang):
   XX=            -60.2654   YY=            -57.8967   ZZ=            -66.4477
   XY=              4.5542   XZ=             14.7058   YZ=             -2.2373

 Normal termination of Gaussian 09 at Sun Feb 12 15:03:52 2017.
