 Gaussian 09, Revision A.02,
 Gaussian 09:  EM64L-G09RevA.02 11-Jun-2009

 -------------------
 #SP MP2/aug-cc-pVDZ
 -------------------

 -------------------------------
 Single Point calculation at MP2
 -------------------------------
 Symbolic Z-matrix:
 Charge =  0 Multiplicity = 1

                         Standard orientation:
 ---------------------------------------------------------------------
 Center     Atomic      Atomic             Coordinates (Angstroms)
 Number     Number       Type             X           Y           Z
 ---------------------------------------------------------------------
      1          1           0       -3.616501   -1.611241   -0.395303
      2          6           0       -3.228507   -0.649139   -0.735303
      3          1           0       -3.960712    0.123657   -0.471603
      4          1           0       -3.125107   -0.662238   -1.825403
      5          6           0       -1.917709   -0.365730   -0.016603
      6          8           0       -1.692206   -0.789329    1.115397
      7          7           0       -0.997414    0.353176   -0.730603
      8          1           0       -1.283716    0.648674   -1.654003
      9          6           0        0.108181    1.148183   -0.155503
     10          1           0        0.202075    2.022983   -0.805303
     11          6           0       -0.105822    1.652281    1.276497
     12          1           0       -0.167017    0.842381    2.001997
     13          1           0        0.733274    2.306887    1.534697
     14          1           0       -1.029326    2.237775    1.339097
     15          6           0        1.452186    0.412091   -0.346203
     16          8           0        2.382583    0.920897   -0.960503
     17          7           0        1.491994   -0.812108    0.249697
     18          1           0        0.647496   -1.141014    0.706297
     19          6           0        2.649799   -1.683101    0.180897
     20          1           0        3.443196   -1.134396   -0.329003
     21          1           0        2.992001   -1.961599    1.184497
     22          1           0        2.430505   -2.599402   -0.381503
 ---------------------------------------------------------------------

 SCF Done:  E(RHF) =  -492.919821979     A.U. after   14 cycles
 E2 =    -0.1602736811D+01 EUMP2 =    -0.49452255879037D+03

 The electronic state is 1-A.
 Alpha  occ. eigenvalues --  -20.54457 -20.52781 -15.60971 -15.58436 -11.37747
 Alpha  occ. eigenvalues --  -11.35351 -11.29760 -11.26112 -11.25877 -11.23579
 Alpha  occ. eigenvalues --   -1.39717  -1.37865  -1.25030  -1.22182  -1.06047
 Alpha  occ. eigenvalues --   -1.00114  -0.95183  -0.88966  -0.79945  -0.77226
 Alpha  occ. eigenvalues --   -0.72050  -0.70266  -0.66040  -0.63543  -0.62598
 Alpha  occ. eigenvalues --   -0.61526  -0.59969  -0.58998  -0.57469  -0.56615
 Alpha  occ. eigenvalues --   -0.54591  -0.54091  -0.52642  -0.51890  -0.50651
 Alpha  occ. eigenvalues --   -0.44316  -0.43406  -0.39532  -0.38224
 Alpha virt. eigenvalues --    0.02584   0.04049   0.04272   0.04524   0.05724
 Alpha virt. eigenvalues --    0.05929   0.06472   0.06685   0.07787   0.07919
 Alpha virt. eigenvalues --    0.09090   0.09563   0.10886   0.11797   0.11898

 Mulliken atomic charges:
              1
     1  H   -0.004628
     2  C    0.451090
     3  H    0.058867
     4  H   -0.067782
     5  C    0.635135
     6  O   -0.832185
     7  N   -0.177997
     8  H   -0.114272
     9  C   -0.229216
    10  H   -0.232449
    11  C    0.809753
    12  H    0.031932
    13  H   -0.086399
    14  H   -0.060350
    15  C    0.896469
    16  O   -0.819906
    17  N   -0.558153
    18  H   -0.070727
    19  C    0.725256
    20  H   -0.160722
    21  H   -0.100583
    22  H   -0.093134
 Sum of Mulliken atomic charges =   0.00000

 Dipole moment (field-independent basis, Debye):
    X=             -3.4198    Y=             -0.2894    Z=             -1.2012  Tot=              3.6362
 Quadrupole moment (field-independent basis, Debye-Ang):
   XX=            -63.1844   YY=            -59.2856   ZZ=            -63.2342
   XY=             -8.5376   XZ=             12.2200   YZ=              3.0884

 Normal termination of Gaussian 09 at Sun Feb 12 15:02:05 2017.
