 Gaussian 09, Revision A.02,
 Gaussian 09:  EM64L-G09RevA.02 11-Jun-2009

 -------------------
 #SP MP2/aug-cc-pVDZ
 -------------------

 -------------------------------
 Single Point calculation at MP2
 -------------------------------
 Symbolic Z-matrix:
 Charge =  0 Multiplicity = 1

                         Standard orientation:
 ---------------------------------------------------------------------
 Center     Atomic      Atomic             Coordinates (Angstroms)
 Number     Number       Type             X           Y           Z
 ---------------------------------------------------------------------
      1          1           0       -3.974604   -0.794075   -0.190608
      2          6           0       -3.247002   -0.423579    0.536792
      3          1           0       -3.230406   -1.132679    1.371092
      4          1           0       -3.576897    0.551523    0.907992
      5          6           0       -1.873602   -0.411587   -0.119308
      6          8           0       -1.457608   -1.414089   -0.705208
      7          7           0       -1.203996    0.770209   -0.036908
      8          1           0       -1.646192    1.463712    0.551292
      9          6           0        0.178806    1.138402   -0.419108
     10          1           0        0.203407    1.168801   -1.519508
     11          6           0        0.437014    2.554500    0.098392
     12          1           0        0.389815    2.583200    1.193692
     13          1           0        1.436316    2.872294   -0.196308
     14          1           0       -0.302082    3.253104   -0.309508
     15          6           0        1.374401    0.209195   -0.042408
     16          8           0        2.480904    0.722189    0.115992
     17          7           0        1.158694   -1.119404    0.053692
     18          1           0        0.267092   -1.488399   -0.278108
     19          6           0        2.275789   -2.021410    0.282792
     20          1           0        2.863691   -1.678814    1.138392
     21          1           0        1.881983   -3.019408    0.489692
     22          1           0        2.946188   -2.072814   -0.584808
 ---------------------------------------------------------------------

 SCF Done:  E(RHF) =  -492.918743282     A.U. after   14 cycles
 E2 =    -0.1604477106D+01 EUMP2 =    -0.49452322038866D+03

 The electronic state is 1-A.
 Alpha  occ. eigenvalues --  -20.54827 -20.52113 -15.61795 -15.57308 -11.38433
 Alpha  occ. eigenvalues --  -11.35250 -11.30409 -11.26089 -11.25578 -11.23964
 Alpha  occ. eigenvalues --   -1.40231  -1.37492  -1.25566  -1.21669  -1.06400
 Alpha  occ. eigenvalues --   -1.00168  -0.95168  -0.87613  -0.81899  -0.77334
 Alpha  occ. eigenvalues --   -0.71994  -0.69689  -0.67634  -0.63393  -0.62173
 Alpha  occ. eigenvalues --   -0.61413  -0.59728  -0.59383  -0.58101  -0.55275
 Alpha  occ. eigenvalues --   -0.54121  -0.53585  -0.53368  -0.52313  -0.49856
 Alpha  occ. eigenvalues --   -0.44633  -0.43607  -0.39739  -0.37842
 Alpha virt. eigenvalues --    0.02454   0.04027   0.04434   0.04515   0.05753
 Alpha virt. eigenvalues --    0.06247   0.06358   0.06629   0.07202   0.07878
 Alpha virt. eigenvalues --    0.09364   0.09850   0.11534   0.11654   0.12821

 Mulliken atomic charges:
              1
     1  H    0.046155
     2  C    0.382117
     3  H    0.047198
     4  H   -0.178722
     5  C    0.531188
     6  O   -0.933704
     7  N   -0.497745
     8  H    0.004722
     9  C    0.254953
    10  H   -0.014942
    11  C    0.676485
    12  H   -0.034460
    13  H   -0.107558
    14  H   -0.042770
    15  C    0.708152
    16  O   -0.837533
    17  N   -0.336027
    18  H   -0.046058
    19  C    0.717305
    20  H   -0.097390
    21  H   -0.204557
    22  H   -0.036809
 Sum of Mulliken atomic charges =   0.00000

 Dipole moment (field-independent basis, Debye):
    X=             -4.2457    Y=              1.2983    Z=              1.2971  Tot=              4.6254
 Quadrupole moment (field-independent basis, Debye-Ang):
   XX=            -63.8808   YY=            -59.4220   ZZ=            -61.2839
   XY=             -9.0834   XZ=             -4.7673   YZ=             -2.4382

 Normal termination of Gaussian 09 at Mon Feb 13 19:20:17 2017.
