 Gaussian 09, Revision A.02,
 Gaussian 09:  EM64L-G09RevA.02 11-Jun-2009

 -------------------
 #SP MP2/aug-cc-pVDZ
 -------------------

 -------------------------------
 Single Point calculation at MP2
 -------------------------------
 Symbolic Z-matrix:
 Charge =  0 Multiplicity = 1

                         Standard orientation:
 ---------------------------------------------------------------------
 Center     Atomic      Atomic             Coordinates (Angstroms)
 Number     Number       Type             X           Y           Z
 ---------------------------------------------------------------------
      1          1           0        3.318721   -1.685868   -0.730490
      2          6           0        3.206310   -0.648269   -0.407590
      3          1           0        3.458302    0.019134   -1.238190
      4          1           0        3.920808   -0.476761    0.405510
      5          6           0        1.793107   -0.452984    0.125510
      6          8           0        1.233017   -1.293090    0.814810
      7          7           0        1.193795    0.731309   -0.225790
      8          1           0        1.754987    1.420215   -0.709190
      9          6           0       -0.070111    1.202695    0.349010
     10          1           0        0.087386    1.483597    1.397610
     11          6           0       -0.571124    2.421090   -0.431590
     12          1           0       -0.755821    2.176588   -1.482690
     13          1           0       -1.506728    2.781180    0.005710
     14          1           0        0.158067    3.239798   -0.385290
     15          6           0       -1.149099    0.098984    0.429410
     16          8           0       -1.760896   -0.101423    1.466010
     17          7           0       -1.501693   -0.451920   -0.776090
     18          1           0       -0.794893   -0.414512   -1.500390
     19          6           0       -2.420380   -1.580730   -0.818390
     20          1           0       -3.228282   -1.390639   -0.110290
     21          1           0       -2.834979   -1.674135   -1.826190
     22          1           0       -1.931470   -2.522925   -0.537690
 ---------------------------------------------------------------------

 SCF Done:  E(RHF) =  -492.918716809     A.U. after   14 cycles
 E2 =    -0.1602711089D+01 EUMP2 =    -0.49452142789801D+03

 The electronic state is 1-A.
 Alpha  occ. eigenvalues --  -20.53857 -20.52317 -15.60866 -15.58345 -11.37106
 Alpha  occ. eigenvalues --  -11.35163 -11.29487 -11.25756 -11.25586 -11.25050
 Alpha  occ. eigenvalues --   -1.39475  -1.37543  -1.24968  -1.21889  -1.06194
 Alpha  occ. eigenvalues --   -0.99992  -0.94803  -0.88215  -0.81230  -0.77192
 Alpha  occ. eigenvalues --   -0.70237  -0.69520  -0.67629  -0.62943  -0.62028
 Alpha  occ. eigenvalues --   -0.61828  -0.59555  -0.58276  -0.58080  -0.55756
 Alpha  occ. eigenvalues --   -0.54879  -0.54342  -0.53761  -0.51506  -0.50200
 Alpha  occ. eigenvalues --   -0.43093  -0.42258  -0.40049  -0.38569
 Alpha virt. eigenvalues --    0.02200   0.03696   0.03860   0.04642   0.05571
 Alpha virt. eigenvalues --    0.05900   0.06172   0.06655   0.07336   0.08284
 Alpha virt. eigenvalues --    0.08460   0.09140   0.11404   0.11677   0.11958

 Mulliken atomic charges:
              1
     1  H    0.014155
     2  C    0.427230
     3  H   -0.137789
     4  H    0.065280
     5  C    0.486231
     6  O   -0.829846
     7  N   -0.396506
     8  H   -0.092776
     9  C    0.346231
    10  H   -0.255106
    11  C    0.689288
    12  H   -0.027548
    13  H   -0.049142
    14  H   -0.093317
    15  C    1.099182
    16  O   -0.893070
    17  N   -0.675363
    18  H   -0.031992
    19  C    0.719476
    20  H   -0.108996
    21  H   -0.185294
    22  H   -0.070328
 Sum of Mulliken atomic charges =   0.00000

 Dipole moment (field-independent basis, Debye):
    X=              3.3075    Y=              2.9869    Z=             -5.2170  Tot=              6.8614
 Quadrupole moment (field-independent basis, Debye-Ang):
   XX=            -55.9377   YY=            -58.6958   ZZ=            -65.6873
   XY=              4.0466   XZ=              2.8738   YZ=              4.2287

 Normal termination of Gaussian 09 at Mon Feb 13 20:08:31 2017.
