 Gaussian 09, Revision A.02,
 Gaussian 09:  EM64L-G09RevA.02 11-Jun-2009

 -------------------
 #SP MP2/aug-cc-pVDZ
 -------------------

 -------------------------------
 Single Point calculation at MP2
 -------------------------------
 Symbolic Z-matrix:
 Charge =  0 Multiplicity = 1

                         Standard orientation:
 ---------------------------------------------------------------------
 Center     Atomic      Atomic             Coordinates (Angstroms)
 Number     Number       Type             X           Y           Z
 ---------------------------------------------------------------------
      1          1           0       -3.426064   -1.300555    1.011883
      2          6           0       -3.308077   -0.434953    0.353383
      3          1           0       -3.613390    0.467842    0.890883
      4          1           0       -3.978175   -0.582263   -0.499517
      5          6           0       -1.875077   -0.404432   -0.159617
      6          8           0       -1.394563   -1.378025   -0.742417
      7          7           0       -1.203095    0.757178    0.061583
      8          1           0       -1.696305    1.455071    0.600683
      9          6           0        0.156199    1.162798   -0.342917
     10          1           0        0.134796    1.365198   -1.423117
     11          6           0        0.486880    2.475703    0.378983
     12          1           0        0.500782    2.327804    1.465383
     13          1           0        1.473375    2.816218    0.063883
     14          1           0       -0.251132    3.249492    0.136883
     15          6           0        1.358414    0.192916   -0.175917
     16          8           0        2.468007    0.630233   -0.468017
     17          7           0        1.155632   -1.042487    0.348283
     18          1           0        0.240838   -1.450200    0.166383
     19          6           0        2.285746   -1.957570    0.442083
     20          1           0        3.114338   -1.460158    0.950483
     21          1           0        1.979859   -2.833774    1.019283
     22          1           0        2.641251   -2.281965   -0.544717
 ---------------------------------------------------------------------

 SCF Done:  E(RHF) =  -492.918688784     A.U. after   14 cycles
 E2 =    -0.1603807541D+01 EUMP2 =    -0.49452249632492D+03

 The electronic state is 1-A.
 Alpha  occ. eigenvalues --  -20.54620 -20.52391 -15.61662 -15.57549 -11.38256
 Alpha  occ. eigenvalues --  -11.35435 -11.30260 -11.26085 -11.25501 -11.24362
 Alpha  occ. eigenvalues --   -1.40124  -1.37762  -1.25522  -1.21745  -1.06451
 Alpha  occ. eigenvalues --   -1.00231  -0.94894  -0.87885  -0.81981  -0.77110
 Alpha  occ. eigenvalues --   -0.71570  -0.69870  -0.67633  -0.63228  -0.62247
 Alpha  occ. eigenvalues --   -0.62093  -0.59768  -0.58709  -0.58118  -0.55551
 Alpha  occ. eigenvalues --   -0.54570  -0.53814  -0.53499  -0.52118  -0.49550
 Alpha  occ. eigenvalues --   -0.44272  -0.43312  -0.40381  -0.38129
 Alpha virt. eigenvalues --    0.02365   0.03964   0.04293   0.04620   0.05814
 Alpha virt. eigenvalues --    0.06059   0.06465   0.06632   0.07260   0.07989
 Alpha virt. eigenvalues --    0.09113   0.10057   0.11514   0.11746   0.12532

 Mulliken atomic charges:
              1
     1  H    0.041788
     2  C    0.376792
     3  H   -0.179510
     4  H    0.059264
     5  C    0.484895
     6  O   -0.900071
     7  N   -0.450529
     8  H   -0.020287
     9  C    0.250789
    10  H    0.010375
    11  C    0.628203
    12  H   -0.012830
    13  H   -0.090445
    14  H   -0.080146
    15  C    0.808605
    16  O   -0.877085
    17  N   -0.419813
    18  H   -0.026019
    19  C    0.755421
    20  H   -0.121887
    21  H   -0.197494
    22  H   -0.040020
 Sum of Mulliken atomic charges =   0.00000

 Dipole moment (field-independent basis, Debye):
    X=             -4.4445    Y=              1.5636    Z=              2.3717  Tot=              5.2748
 Quadrupole moment (field-independent basis, Debye-Ang):
   XX=            -62.4871   YY=            -58.6715   ZZ=            -62.5874
   XY=             -8.3324   XZ=             -0.6014   YZ=             -1.7865

 Normal termination of Gaussian 09 at Mon Feb 13 17:56:44 2017.
