 Gaussian 09, Revision A.02,
 Gaussian 09:  EM64L-G09RevA.02 11-Jun-2009

 -------------------
 #SP MP2/aug-cc-pVDZ
 -------------------

 -------------------------------
 Single Point calculation at MP2
 -------------------------------
 Symbolic Z-matrix:
 Charge =  0 Multiplicity = 1

                         Standard orientation:
 ---------------------------------------------------------------------
 Center     Atomic      Atomic             Coordinates (Angstroms)
 Number     Number       Type             X           Y           Z
 ---------------------------------------------------------------------
      1          1           0       -3.618186   -1.552301    0.192917
      2          6           0       -3.018084   -0.788803    0.692617
      3          1           0       -2.761185   -1.165504    1.689617
      4          1           0       -3.612880    0.122599    0.809317
      5          6           0       -1.738983   -0.575508   -0.101383
      6          8           0       -1.165086   -1.509210   -0.658283
      7          7           0       -1.307978    0.721391   -0.184883
      8          1           0       -1.770776    1.372292    0.438217
      9          6           0        0.061523    1.124986   -0.561783
     10          1           0        0.158723    0.954085   -1.641383
     11          6           0        0.239429    2.610085   -0.264083
     12          1           0        0.247629    2.779785    0.816717
     13          1           0        1.197030    2.961782   -0.657183
     14          1           0       -0.561669    3.194688   -0.729283
     15          6           0        1.174020    0.298082    0.145217
     16          8           0        1.689022    0.695180    1.186017
     17          7           0        1.572616   -0.822120   -0.517583
     18          1           0        0.849715   -1.242317   -1.095083
     19          6           0        2.528913   -1.726423    0.104017
     20          1           0        3.341715   -1.139326    0.534917
     21          1           0        2.074411   -2.322822    0.906417
     22          1           0        2.930610   -2.400125   -0.657383
 ---------------------------------------------------------------------

 SCF Done:  E(RHF) =  -492.922232622     A.U. after   14 cycles
 E2 =    -0.1603412511D+01 EUMP2 =    -0.49452564513290D+03

 The electronic state is 1-A.
 Alpha  occ. eigenvalues --  -20.54582 -20.52948 -15.61031 -15.57740 -11.37720
 Alpha  occ. eigenvalues --  -11.35243 -11.29794 -11.25646 -11.25581 -11.23947
 Alpha  occ. eigenvalues --   -1.39903  -1.37880  -1.24915  -1.22004  -1.06040
 Alpha  occ. eigenvalues --   -0.99931  -0.95228  -0.87118  -0.81100  -0.76661
 Alpha  occ. eigenvalues --   -0.71751  -0.69336  -0.67365  -0.63771  -0.62038
 Alpha  occ. eigenvalues --   -0.61630  -0.59786  -0.58962  -0.57687  -0.54664
 Alpha  occ. eigenvalues --   -0.54249  -0.53536  -0.52866  -0.51310  -0.51110
 Alpha  occ. eigenvalues --   -0.44742  -0.43823  -0.40128  -0.37860
 Alpha virt. eigenvalues --    0.02814   0.04031   0.04295   0.04818   0.05642
 Alpha virt. eigenvalues --    0.06117   0.06487   0.06861   0.07398   0.08114
 Alpha virt. eigenvalues --    0.09148   0.09864   0.11038   0.11770   0.13131

 Mulliken atomic charges:
              1
     1  H    0.006777
     2  C    0.383143
     3  H    0.059583
     4  H   -0.108870
     5  C    0.591698
     6  O   -0.863321
     7  N   -0.607158
     8  H    0.000615
     9  C    0.233963
    10  H   -0.263439
    11  C    0.693132
    12  H    0.033593
    13  H   -0.100922
    14  H   -0.036419
    15  C    0.972327
    16  O   -0.862355
    17  N   -0.574566
    18  H    0.037645
    19  C    0.771654
    20  H   -0.123125
    21  H   -0.067491
    22  H   -0.176465
 Sum of Mulliken atomic charges =   0.00000

 Dipole moment (field-independent basis, Debye):
    X=             -2.9158    Y=              1.1590    Z=             -0.6413  Tot=              3.2026
 Quadrupole moment (field-independent basis, Debye-Ang):
   XX=            -56.5653   YY=            -60.2047   ZZ=            -64.4897
   XY=             -6.3133   XZ=             -8.2271   YZ=             -3.7714

 Normal termination of Gaussian 09 at Mon Feb 13 20:05:51 2017.
