 Gaussian 09, Revision A.02,
 Gaussian 09:  EM64L-G09RevA.02 11-Jun-2009

 -------------------
 #SP MP2/aug-cc-pVDZ
 -------------------

 -------------------------------
 Single Point calculation at MP2
 -------------------------------
 Symbolic Z-matrix:
 Charge =  0 Multiplicity = 1

                         Standard orientation:
 ---------------------------------------------------------------------
 Center     Atomic      Atomic             Coordinates (Angstroms)
 Number     Number       Type             X           Y           Z
 ---------------------------------------------------------------------
      1          1           0       -3.820117   -0.867993    1.357304
      2          6           0       -3.227118   -1.219895    0.507704
      3          1           0       -3.926519   -1.466793   -0.297396
      4          1           0       -2.686321   -2.124397    0.801804
      5          6           0       -2.323514   -0.084798    0.041104
      6          8           0       -2.781911    1.009603   -0.271596
      7          7           0       -0.991515   -0.389703    0.013504
      8          1           0       -0.709119   -1.361504    0.066004
      9          6           0        0.057088    0.493493   -0.495396
     10          1           0       -0.068912    0.628594   -1.581496
     11          6           0        0.032592    1.875393    0.170904
     12          1           0        0.223192    1.797893    1.247304
     13          1           0        0.778195    2.538691   -0.284996
     14          1           0       -0.950906    2.322797    0.027904
     15          6           0        1.365785   -0.309311   -0.304296
     16          8           0        1.388881   -1.506911   -0.584396
     17          7           0        2.430587    0.351285    0.216504
     18          1           0        2.335191    1.331085    0.434604
     19          6           0        3.721485   -0.284719    0.421504
     20          1           0        3.602181   -1.347319    0.208104
     21          1           0        4.482886    0.132778   -0.248196
     22          1           0        4.053085   -0.157420    1.457804
 ---------------------------------------------------------------------

 SCF Done:  E(RHF) =  -492.921279684     A.U. after   14 cycles
 E2 =    -0.1602169464D+01 EUMP2 =    -0.49452344914810D+03

 The electronic state is 1-A.
 Alpha  occ. eigenvalues --  -20.54003 -20.52653 -15.60872 -15.59284 -11.37194
 Alpha  occ. eigenvalues --  -11.36081 -11.29925 -11.27699 -11.24282 -11.23545
 Alpha  occ. eigenvalues --   -1.39692  -1.37912  -1.24603  -1.23570  -1.05756
 Alpha  occ. eigenvalues --   -0.99034  -0.96046  -0.89495  -0.80576  -0.77551
 Alpha  occ. eigenvalues --   -0.73061  -0.67907  -0.66553  -0.65611  -0.62697
 Alpha  occ. eigenvalues --   -0.61745  -0.59243  -0.58765  -0.56522  -0.56105
 Alpha  occ. eigenvalues --   -0.55514  -0.54581  -0.53631  -0.52703  -0.49703
 Alpha  occ. eigenvalues --   -0.43637  -0.41734  -0.40367  -0.39305
 Alpha virt. eigenvalues --    0.02799   0.03870   0.04317   0.04533   0.05796
 Alpha virt. eigenvalues --    0.06080   0.06283   0.06723   0.07244   0.07997
 Alpha virt. eigenvalues --    0.09443   0.09821   0.11208   0.11756   0.13324

 Mulliken atomic charges:
              1
     1  H    0.042232
     2  C    0.392526
     3  H    0.048706
     4  H   -0.170147
     5  C    0.504787
     6  O   -0.871212
     7  N   -0.342330
     8  H   -0.063380
     9  C    0.023637
    10  H   -0.026097
    11  C    0.748798
    12  H    0.026172
    13  H   -0.010863
    14  H   -0.169458
    15  C    1.080292
    16  O   -0.918394
    17  N   -0.577053
    18  H   -0.120088
    19  C    0.741365
    20  H   -0.148959
    21  H   -0.082849
    22  H   -0.107687
 Sum of Mulliken atomic charges =   0.00000

 Dipole moment (field-independent basis, Debye):
    X=              2.9833    Y=              0.4764    Z=              1.7062  Tot=              3.4696
 Quadrupole moment (field-independent basis, Debye-Ang):
   XX=            -59.0737   YY=            -64.1384   ZZ=            -61.2772
   XY=             14.6536   XZ=              0.0940   YZ=             -1.5636

 Normal termination of Gaussian 09 at Mon Feb 13 01:41:03 2017.
