 Gaussian 09, Revision A.02,
 Gaussian 09:  EM64L-G09RevA.02 11-Jun-2009

 -------------------
 #SP MP2/aug-cc-pVDZ
 -------------------

 -------------------------------
 Single Point calculation at MP2
 -------------------------------
 Symbolic Z-matrix:
 Charge =  0 Multiplicity = 1

                         Standard orientation:
 ---------------------------------------------------------------------
 Center     Atomic      Atomic             Coordinates (Angstroms)
 Number     Number       Type             X           Y           Z
 ---------------------------------------------------------------------
      1          1           0        3.707287   -1.441030   -1.013703
      2          6           0        3.039086   -1.527927   -0.152603
      3          1           0        3.666186   -1.658130    0.735797
      4          1           0        2.411882   -2.416724   -0.274703
      5          6           0        2.253293   -0.229123   -0.014903
      6          8           0        2.806998    0.862374   -0.043003
      7          7           0        0.900392   -0.386717    0.145497
      8          1           0        0.560787   -1.321515    0.324497
      9          6           0       -0.034503    0.717487    0.414197
     10          1           0        0.170899    1.136986    1.405497
     11          6           0        0.053602    1.843187   -0.627603
     12          1           0       -0.057800    1.463487   -1.650303
     13          1           0       -0.735194    2.580191   -0.442503
     14          1           0        1.026705    2.329282   -0.562303
     15          6           0       -1.447606    0.106694    0.523697
     16          8           0       -1.996407   -0.041703    1.608597
     17          7           0       -2.015908   -0.261803   -0.661703
     18          1           0       -1.501107   -0.096406   -1.514203
     19          6           0       -3.342610   -0.846497   -0.749703
     20          1           0       -3.736311   -0.913495    0.265197
     21          1           0       -4.010207   -0.220894   -1.353803
     22          1           0       -3.306815   -1.850397   -1.189303
 ---------------------------------------------------------------------

 SCF Done:  E(RHF) =  -492.916851516     A.U. after   14 cycles
 E2 =    -0.1601917217D+01 EUMP2 =    -0.49451876873297D+03

 The electronic state is 1-A.
 Alpha  occ. eigenvalues --  -20.53999 -20.53460 -15.60582 -15.60359 -11.36910
 Alpha  occ. eigenvalues --  -11.36758 -11.29685 -11.27524 -11.25184 -11.23506
 Alpha  occ. eigenvalues --   -1.39423  -1.38754  -1.25075  -1.23363  -1.05950
 Alpha  occ. eigenvalues --   -0.99567  -0.96102  -0.89167  -0.79873  -0.78758
 Alpha  occ. eigenvalues --   -0.73222  -0.68275  -0.67118  -0.64629  -0.62756
 Alpha  occ. eigenvalues --   -0.62239  -0.59584  -0.59067  -0.57020  -0.56617
 Alpha  occ. eigenvalues --   -0.55669  -0.54775  -0.53595  -0.52136  -0.50256
 Alpha  occ. eigenvalues --   -0.43961  -0.41704  -0.40953  -0.39370
 Alpha virt. eigenvalues --    0.02447   0.03616   0.04361   0.04698   0.05548
 Alpha virt. eigenvalues --    0.06121   0.06143   0.06843   0.07146   0.07951
 Alpha virt. eigenvalues --    0.08442   0.09469   0.11143   0.12149   0.12683

 Mulliken atomic charges:
              1
     1  H    0.034687
     2  C    0.395679
     3  H    0.053651
     4  H   -0.151022
     5  C    0.598401
     6  O   -0.857798
     7  N   -0.347924
     8  H   -0.086371
     9  C    0.387467
    10  H   -0.204509
    11  C    0.670560
    12  H   -0.072494
    13  H   -0.053389
    14  H   -0.028511
    15  C    0.788598
    16  O   -0.841052
    17  N   -0.588420
    18  H   -0.075983
    19  C    0.723803
    20  H   -0.151355
    21  H   -0.097762
    22  H   -0.096256
 Sum of Mulliken atomic charges =   0.00000

 Dipole moment (field-independent basis, Debye):
    X=             -1.1366    Y=             -2.8978    Z=             -3.4415  Tot=              4.6403
 Quadrupole moment (field-independent basis, Debye-Ang):
   XX=            -67.4644   YY=            -58.2908   ZZ=            -64.6162
   XY=             -7.8749   XZ=              8.8129   YZ=              0.5510

 Normal termination of Gaussian 09 at Mon Feb 13 02:31:58 2017.
