 Gaussian 09, Revision A.02,
 Gaussian 09:  EM64L-G09RevA.02 11-Jun-2009

 -------------------
 #SP MP2/aug-cc-pVDZ
 -------------------

 -------------------------------
 Single Point calculation at MP2
 -------------------------------
 Symbolic Z-matrix:
 Charge =  0 Multiplicity = 1

                         Standard orientation:
 ---------------------------------------------------------------------
 Center     Atomic      Atomic             Coordinates (Angstroms)
 Number     Number       Type             X           Y           Z
 ---------------------------------------------------------------------
      1          1           0       -3.842396   -1.722005    0.203206
      2          6           0       -3.026097   -1.293304    0.788506
      3          1           0       -2.446596   -2.098503    1.251406
      4          1           0       -3.470099   -0.683805    1.584706
      5          6           0       -2.190499   -0.401102   -0.119194
      6          8           0       -2.680201    0.249197   -1.031794
      7          7           0       -0.837299   -0.403099    0.145606
      8          1           0       -0.567098   -0.772499    1.050206
      9          6           0        0.043099    0.655703   -0.384094
     10          1           0        0.000899    0.584203   -1.476894
     11          6           0       -0.366604    2.065102    0.048006
     12          1           0       -0.286404    2.168502    1.133406
     13          1           0        0.300994    2.804803   -0.405794
     14          1           0       -1.389505    2.267200   -0.274294
     15          6           0        1.470399    0.332106    0.108106
     16          8           0        2.000998    0.939407    1.029606
     17          7           0        2.064901   -0.702693   -0.554394
     18          1           0        1.527802   -1.182294   -1.263294
     19          6           0        3.379003   -1.213690   -0.206894
     20          1           0        3.803701   -0.541190    0.539406
     21          1           0        3.320305   -2.224491    0.216006
     22          1           0        4.033003   -1.237089   -1.085694
 ---------------------------------------------------------------------

 SCF Done:  E(RHF) =  -492.920675493     A.U. after   14 cycles
 E2 =    -0.1601734021D+01 EUMP2 =    -0.49452240951338D+03

 The electronic state is 1-A.
 Alpha  occ. eigenvalues --  -20.54016 -20.53892 -15.60424 -15.60213 -11.36918
 Alpha  occ. eigenvalues --  -11.36692 -11.29470 -11.27413 -11.25285 -11.21997
 Alpha  occ. eigenvalues --   -1.39527  -1.38974  -1.24913  -1.23244  -1.05386
 Alpha  occ. eigenvalues --   -0.99392  -0.96547  -0.87589  -0.79512  -0.78972
 Alpha  occ. eigenvalues --   -0.73146  -0.67376  -0.66359  -0.65119  -0.62634
 Alpha  occ. eigenvalues --   -0.62184  -0.60567  -0.59059  -0.57371  -0.56199
 Alpha  occ. eigenvalues --   -0.55257  -0.53674  -0.52552  -0.51608  -0.49883
 Alpha  occ. eigenvalues --   -0.43742  -0.42730  -0.41088  -0.39262
 Alpha virt. eigenvalues --    0.02585   0.03616   0.04401   0.04620   0.05548
 Alpha virt. eigenvalues --    0.05924   0.06312   0.07081   0.07343   0.08168
 Alpha virt. eigenvalues --    0.08558   0.09057   0.11012   0.11649   0.12868

 Mulliken atomic charges:
              1
     1  H   -0.001201
     2  C    0.315582
     3  H   -0.090295
     4  H    0.055263
     5  C    0.560922
     6  O   -0.839273
     7  N   -0.403277
     8  H   -0.021671
     9  C   -0.056609
    10  H   -0.234856
    11  C    0.659339
    12  H   -0.003545
    13  H   -0.059634
    14  H   -0.006602
    15  C    1.167819
    16  O   -0.836649
    17  N   -0.511669
    18  H   -0.086785
    19  C    0.737533
    20  H   -0.144866
    21  H   -0.091511
    22  H   -0.108016
 Sum of Mulliken atomic charges =   0.00000

 Dipole moment (field-independent basis, Debye):
    X=              0.8710    Y=             -3.7535    Z=              0.2932  Tot=              3.8644
 Quadrupole moment (field-independent basis, Debye-Ang):
   XX=            -65.7718   YY=            -59.2984   ZZ=            -63.0670
   XY=             -1.7723   XZ=            -13.6136   YZ=             -1.9553

 Normal termination of Gaussian 09 at Mon Feb 13 01:55:49 2017.
