 Gaussian 09, Revision A.02,
 Gaussian 09:  EM64L-G09RevA.02 11-Jun-2009

 -------------------
 #SP MP2/aug-cc-pVDZ
 -------------------

 -------------------------------
 Single Point calculation at MP2
 -------------------------------
 Symbolic Z-matrix:
 Charge =  0 Multiplicity = 1

                         Standard orientation:
 ---------------------------------------------------------------------
 Center     Atomic      Atomic             Coordinates (Angstroms)
 Number     Number       Type             X           Y           Z
 ---------------------------------------------------------------------
      1          1           0       -3.880092   -1.696110    0.124995
      2          6           0       -3.079693   -1.269406    0.733395
      3          1           0       -2.522490   -2.075504    1.221195
      4          1           0       -3.544596   -0.650008    1.509695
      5          6           0       -2.207497   -0.391003   -0.152705
      6          8           0       -2.664100    0.266995   -1.077605
      7          7           0       -0.862597   -0.414597    0.145395
      8          1           0       -0.616295   -0.775196    1.060695
      9          6           0        0.045999    0.625807   -0.366605
     10          1           0        0.021099    0.558906   -1.460005
     11          6           0       -0.341207    2.043605    0.064495
     12          1           0       -0.263208    2.138505    1.150795
     13          1           0        0.339790    2.773708   -0.387105
     14          1           0       -1.358708    2.265501   -0.261705
     15          6           0        1.445800    0.267312    0.169195
     16          8           0        1.828199    0.644414    1.271495
     17          7           0        2.175804   -0.547984   -0.643105
     18          1           0        1.764205   -0.843386   -1.517005
     19          6           0        3.485306   -1.059679   -0.278705
     20          1           0        3.763504   -0.596578    0.668895
     21          1           0        3.467510   -2.149179   -0.153005
     22          1           0        4.231805   -0.803676   -1.039005
 ---------------------------------------------------------------------

 SCF Done:  E(RHF) =  -492.921732388     A.U. after   14 cycles
 E2 =    -0.1601684832D+01 EUMP2 =    -0.49452341722041D+03

 The electronic state is 1-A.
 Alpha  occ. eigenvalues --  -20.53971 -20.53690 -15.60464 -15.60148 -11.36742
 Alpha  occ. eigenvalues --  -11.36715 -11.29436 -11.27466 -11.25063 -11.22174
 Alpha  occ. eigenvalues --   -1.39486  -1.38805  -1.24668  -1.23448  -1.05355
 Alpha  occ. eigenvalues --   -0.99302  -0.96556  -0.87726  -0.79673  -0.78809
 Alpha  occ. eigenvalues --   -0.73094  -0.67311  -0.66355  -0.64771  -0.62718
 Alpha  occ. eigenvalues --   -0.62161  -0.60537  -0.58828  -0.57208  -0.56398
 Alpha  occ. eigenvalues --   -0.55323  -0.53922  -0.52421  -0.51532  -0.49871
 Alpha  occ. eigenvalues --   -0.43586  -0.42739  -0.40792  -0.39408
 Alpha virt. eigenvalues --    0.02730   0.03621   0.04459   0.04625   0.05581
 Alpha virt. eigenvalues --    0.05991   0.06165   0.07030   0.07559   0.08081
 Alpha virt. eigenvalues --    0.08851   0.09196   0.10999   0.11671   0.12780

 Mulliken atomic charges:
              1
     1  H   -0.001583
     2  C    0.327895
     3  H   -0.088336
     4  H    0.056122
     5  C    0.598975
     6  O   -0.845238
     7  N   -0.343683
     8  H   -0.027087
     9  C   -0.056267
    10  H   -0.277784
    11  C    0.655830
    12  H    0.007465
    13  H   -0.053436
    14  H   -0.007805
    15  C    1.123806
    16  O   -0.850177
    17  N   -0.495827
    18  H   -0.100395
    19  C    0.718132
    20  H   -0.144754
    21  H   -0.095053
    22  H   -0.100801
 Sum of Mulliken atomic charges =   0.00000

 Dipole moment (field-independent basis, Debye):
    X=              1.3518    Y=             -3.0164    Z=             -0.2929  Tot=              3.3184
 Quadrupole moment (field-independent basis, Debye-Ang):
   XX=            -63.0917   YY=            -59.1333   ZZ=            -64.0561
   XY=             -0.0871   XZ=            -14.9278   YZ=             -1.5069

 Normal termination of Gaussian 09 at Mon Feb 13 02:05:17 2017.
