 Gaussian 09, Revision A.02,
 Gaussian 09:  EM64L-G09RevA.02 11-Jun-2009

 -------------------
 #SP MP2/aug-cc-pVDZ
 -------------------

 -------------------------------
 Single Point calculation at MP2
 -------------------------------
 Symbolic Z-matrix:
 Charge =  0 Multiplicity = 1

                         Standard orientation:
 ---------------------------------------------------------------------
 Center     Atomic      Atomic             Coordinates (Angstroms)
 Number     Number       Type             X           Y           Z
 ---------------------------------------------------------------------
      1          1           0       -3.802357   -1.543162    0.578600
      2          6           0       -3.003357   -1.540749   -0.166700
      3          1           0       -3.475256   -1.593557   -1.154500
      4          1           0       -2.378443   -2.428840   -0.028600
      5          6           0       -2.235877   -0.228938   -0.050500
      6          8           0       -2.807894    0.838054    0.115200
      7          7           0       -0.865475   -0.354716   -0.146400
      8          1           0       -0.536662   -1.219011   -0.559500
      9          6           0        0.044007    0.790698   -0.298300
     10          1           0       -0.152601    1.314395   -1.241500
     11          6           0       -0.073209    1.798696    0.860000
     12          1           0        0.118499    1.306699    1.820600
     13          1           0        0.669579    2.589208    0.716300
     14          1           0       -1.072516    2.232081    0.881900
     15          6           0        1.502614    0.313121   -0.375700
     16          8           0        2.339904    0.947834   -1.001700
     17          7           0        1.785832   -0.841375    0.306600
     18          1           0        1.088738   -1.173886    0.960100
     19          6           0        3.153040   -1.315553    0.456000
     20          1           0        3.723634   -0.969644   -0.406700
     21          1           0        3.628334   -0.923446    1.364700
     22          1           0        3.167157   -2.408953    0.490400
 ---------------------------------------------------------------------

 SCF Done:  E(RHF) =  -492.919218389     A.U. after   14 cycles
 E2 =    -0.1601941319D+01 EUMP2 =    -0.49452115970818D+03

 The electronic state is 1-A.
 Alpha  occ. eigenvalues --  -20.54099 -20.53830 -15.60750 -15.60407 -11.37319
 Alpha  occ. eigenvalues --  -11.36673 -11.29575 -11.27527 -11.25556 -11.22961
 Alpha  occ. eigenvalues --   -1.39610  -1.39082  -1.25677  -1.23002  -1.05926
 Alpha  occ. eigenvalues --   -0.99712  -0.96313  -0.88341  -0.80135  -0.78134
 Alpha  occ. eigenvalues --   -0.73608  -0.68551  -0.67534  -0.63682  -0.63026
 Alpha  occ. eigenvalues --   -0.62479  -0.60168  -0.59806  -0.57182  -0.56414
 Alpha  occ. eigenvalues --   -0.55564  -0.54429  -0.52938  -0.51728  -0.50144
 Alpha  occ. eigenvalues --   -0.44246  -0.42067  -0.40899  -0.40155
 Alpha virt. eigenvalues --    0.02245   0.03731   0.04239   0.04635   0.05594
 Alpha virt. eigenvalues --    0.06013   0.06489   0.06780   0.06984   0.08144
 Alpha virt. eigenvalues --    0.08477   0.08876   0.10905   0.11881   0.12912

 Mulliken atomic charges:
              1
     1  H    0.019421
     2  C    0.388639
     3  H    0.061085
     4  H   -0.132384
     5  C    0.567105
     6  O   -0.835411
     7  N   -0.243715
     8  H   -0.062097
     9  C   -0.036353
    10  H   -0.205468
    11  C    0.690869
    12  H   -0.060760
    13  H   -0.036357
    14  H   -0.024457
    15  C    1.034727
    16  O   -0.852976
    17  N   -0.658928
    18  H   -0.053412
    19  C    0.762020
    20  H   -0.109004
    21  H   -0.068366
    22  H   -0.144178
 Sum of Mulliken atomic charges =   0.00000

 Dipole moment (field-independent basis, Debye):
    X=              0.0831    Y=             -5.0884    Z=              1.5407  Tot=              5.3172
 Quadrupole moment (field-independent basis, Debye-Ang):
   XX=            -71.3677   YY=            -59.4065   ZZ=            -61.5129
   XY=              1.7326   XZ=              7.6076   YZ=              1.5804

 Normal termination of Gaussian 09 at Mon Feb 13 01:47:31 2017.
