 Gaussian 09, Revision A.02,
 Gaussian 09:  EM64L-G09RevA.02 11-Jun-2009

 -------------------
 #SP MP2/aug-cc-pVDZ
 -------------------

 -------------------------------
 Single Point calculation at MP2
 -------------------------------
 Symbolic Z-matrix:
 Charge =  0 Multiplicity = 1

                         Standard orientation:
 ---------------------------------------------------------------------
 Center     Atomic      Atomic             Coordinates (Angstroms)
 Number     Number       Type             X           Y           Z
 ---------------------------------------------------------------------
      1          1           0        3.728784   -1.561736   -0.737603
      2          6           0        3.021184   -1.540931    0.095397
      3          1           0        3.605384   -1.567635    1.021597
      4          1           0        2.389577   -2.434026    0.051997
      5          6           0        2.243994   -0.230924    0.038597
      6          8           0        2.805603    0.842971   -0.131403
      7          7           0        0.886593   -0.356214    0.199197
      8          1           0        0.537286   -1.254611    0.503097
      9          6           0       -0.037998    0.782294    0.309897
     10          1           0        0.170007    1.339392    1.229897
     11          6           0        0.049610    1.746993   -0.884603
     12          1           0       -0.118194    1.226895   -1.834603
     13          1           0       -0.712084    2.526799   -0.778003
     14          1           0        1.037114    2.206785   -0.917203
     15          6           0       -1.468002    0.235405    0.478597
     16          8           0       -2.153400    0.509311    1.454597
     17          7           0       -1.905108   -0.547091   -0.554503
     18          1           0       -1.289309   -0.682796   -1.343903
     19          6           0       -3.249613   -1.093880   -0.612603
     20          1           0       -3.734011   -0.867876    0.338197
     21          1           0       -3.830809   -0.640276   -1.424803
     22          1           0       -3.226821   -2.179780   -0.758803
 ---------------------------------------------------------------------

 SCF Done:  E(RHF) =  -492.917842156     A.U. after   14 cycles
 E2 =    -0.1601869753D+01 EUMP2 =    -0.49451971190862D+03

 The electronic state is 1-A.
 Alpha  occ. eigenvalues --  -20.53997 -20.53630 -15.60698 -15.60343 -11.37056
 Alpha  occ. eigenvalues --  -11.36747 -11.29626 -11.27550 -11.25348 -11.23374
 Alpha  occ. eigenvalues --   -1.39451  -1.38893  -1.25352  -1.23202  -1.05989
 Alpha  occ. eigenvalues --   -0.99658  -0.96203  -0.88912  -0.79932  -0.78794
 Alpha  occ. eigenvalues --   -0.73356  -0.68330  -0.67248  -0.64242  -0.62944
 Alpha  occ. eigenvalues --   -0.62320  -0.59693  -0.59395  -0.57125  -0.56785
 Alpha  occ. eigenvalues --   -0.55516  -0.54853  -0.53357  -0.52008  -0.50291
 Alpha  occ. eigenvalues --   -0.44106  -0.41765  -0.40892  -0.39574
 Alpha virt. eigenvalues --    0.02319   0.03668   0.04310   0.04666   0.05557
 Alpha virt. eigenvalues --    0.06066   0.06219   0.06830   0.07095   0.08052
 Alpha virt. eigenvalues --    0.08302   0.09073   0.11028   0.11978   0.12848

 Mulliken atomic charges:
              1
     1  H    0.031683
     2  C    0.392580
     3  H    0.054984
     4  H   -0.150481
     5  C    0.603685
     6  O   -0.848339
     7  N   -0.245974
     8  H   -0.087385
     9  C    0.252746
    10  H   -0.245254
    11  C    0.728034
    12  H   -0.097932
    13  H   -0.046413
    14  H   -0.027126
    15  C    0.749832
    16  O   -0.806321
    17  N   -0.573408
    18  H   -0.067073
    19  C    0.720669
    20  H   -0.143911
    21  H   -0.088134
    22  H   -0.106463
 Sum of Mulliken atomic charges =   0.00000

 Dipole moment (field-independent basis, Debye):
    X=             -0.6895    Y=             -4.1597    Z=             -2.6906  Tot=              5.0018
 Quadrupole moment (field-independent basis, Debye-Ang):
   XX=            -69.3948   YY=            -58.4104   ZZ=            -63.7919
   XY=             -4.6550   XZ=              9.3766   YZ=             -1.1472

 Normal termination of Gaussian 09 at Mon Feb 13 01:42:49 2017.
