 Gaussian 09, Revision A.02,
 Gaussian 09:  EM64L-G09RevA.02 11-Jun-2009

 -------------------
 #SP MP2/aug-cc-pVDZ
 -------------------

 -------------------------------
 Single Point calculation at MP2
 -------------------------------
 Symbolic Z-matrix:
 Charge =  0 Multiplicity = 1

                         Standard orientation:
 ---------------------------------------------------------------------
 Center     Atomic      Atomic             Coordinates (Angstroms)
 Number     Number       Type             X           Y           Z
 ---------------------------------------------------------------------
      1          1           0       -3.808408   -1.533099    0.611303
      2          6           0       -2.990808   -1.563202   -0.112997
      3          1           0       -3.437609   -1.671600   -1.107897
      4          1           0       -2.363112   -2.437204    0.087803
      5          6           0       -2.235903   -0.240405   -0.046697
      6          8           0       -2.820799    0.827798    0.042403
      7          7           0       -0.859204   -0.364010   -0.088697
      8          1           0       -0.533607   -1.233611   -0.495297
      9          6           0        0.043100    0.776587   -0.308597
     10          1           0       -0.132998    1.221488   -1.296497
     11          6           0       -0.121596    1.873188    0.759703
     12          1           0        0.036103    1.456987    1.761503
     13          1           0        0.626507    2.649985    0.579803
     14          1           0       -1.121994    2.301291    0.712403
     15          6           0        1.514799    0.330382   -0.304097
     16          8           0        2.382101    1.057578   -0.766997
     17          7           0        1.778494   -0.918119    0.202403
     18          1           0        1.085593   -1.307017    0.829703
     19          6           0        3.155692   -1.363625    0.366903
     20          1           0        3.727394   -1.042727   -0.504897
     21          1           0        3.627794   -0.935626    1.260903
     22          1           0        3.177188   -2.454525    0.436703
 ---------------------------------------------------------------------

 SCF Done:  E(RHF) =  -492.918135450     A.U. after   14 cycles
 E2 =    -0.1602006766D+01 EUMP2 =    -0.49452014221568D+03

 The electronic state is 1-A.
 Alpha  occ. eigenvalues --  -20.54251 -20.53886 -15.60742 -15.60505 -11.37383
 Alpha  occ. eigenvalues --  -11.36699 -11.29598 -11.27536 -11.25596 -11.22642
 Alpha  occ. eigenvalues --   -1.39717  -1.39195  -1.25714  -1.22994  -1.05814
 Alpha  occ. eigenvalues --   -0.99661  -0.96312  -0.88108  -0.80222  -0.77721
 Alpha  occ. eigenvalues --   -0.73696  -0.68622  -0.67618  -0.63812  -0.62896
 Alpha  occ. eigenvalues --   -0.62537  -0.60401  -0.59751  -0.57197  -0.56064
 Alpha  occ. eigenvalues --   -0.55558  -0.54112  -0.52700  -0.51670  -0.50012
 Alpha  occ. eigenvalues --   -0.44235  -0.42493  -0.40938  -0.40334
 Alpha virt. eigenvalues --    0.02209   0.03740   0.04193   0.04678   0.05581
 Alpha virt. eigenvalues --    0.06031   0.06610   0.06685   0.06963   0.08186
 Alpha virt. eigenvalues --    0.08592   0.08844   0.10852   0.11926   0.13044

 Mulliken atomic charges:
              1
     1  H    0.017318
     2  C    0.396139
     3  H    0.060636
     4  H   -0.130509
     5  C    0.535932
     6  O   -0.837204
     7  N   -0.288065
     8  H   -0.043616
     9  C   -0.103559
    10  H   -0.147547
    11  C    0.651367
    12  H   -0.040439
    13  H   -0.032003
    14  H   -0.027164
    15  C    1.089982
    16  O   -0.872743
    17  N   -0.648528
    18  H   -0.056842
    19  C    0.791426
    20  H   -0.098526
    21  H   -0.051590
    22  H   -0.164465
 Sum of Mulliken atomic charges =   0.00000

 Dipole moment (field-independent basis, Debye):
    X=              0.0166    Y=             -5.3208    Z=              1.1938  Tot=              5.4531
 Quadrupole moment (field-independent basis, Debye-Ang):
   XX=            -71.7715   YY=            -59.6452   ZZ=            -60.7499
   XY=              0.9493   XZ=              5.8893   YZ=              1.1797

 Normal termination of Gaussian 09 at Mon Feb 13 01:35:01 2017.
