 Gaussian 09, Revision A.02,
 Gaussian 09:  EM64L-G09RevA.02 11-Jun-2009

 -------------------
 #SP MP2/aug-cc-pVDZ
 -------------------

 -------------------------------
 Single Point calculation at MP2
 -------------------------------
 Symbolic Z-matrix:
 Charge =  0 Multiplicity = 1

                         Standard orientation:
 ---------------------------------------------------------------------
 Center     Atomic      Atomic             Coordinates (Angstroms)
 Number     Number       Type             X           Y           Z
 ---------------------------------------------------------------------
      1          1           0       -3.845709   -1.690379    0.126308
      2          6           0       -2.980208   -1.362583    0.705708
      3          1           0       -2.393812   -2.234886    1.012508
      4          1           0       -3.351105   -0.861582    1.608008
      5          6           0       -2.181103   -0.370587   -0.127992
      6          8           0       -2.706099    0.383115   -0.933592
      7          7           0       -0.814403   -0.406194    0.073908
      8          1           0       -0.515505   -0.875795    0.921608
      9          6           0        0.044902    0.719102   -0.341892
     10          1           0       -0.035198    0.791203   -1.433692
     11          6           0       -0.359392    2.058904    0.278608
     12          1           0       -0.294292    2.014104    1.370708
     13          1           0        0.320412    2.844501   -0.059892
     14          1           0       -1.379690    2.309009   -0.017192
     15          6           0        1.507301    0.377595    0.017708
     16          8           0        2.261304    1.190192    0.534908
     17          7           0        1.882094   -0.895106   -0.312692
     18          1           0        1.200392   -1.479203   -0.777692
     19          6           0        3.237192   -1.386913   -0.137392
     20          1           0        3.793296   -0.625115    0.410408
     21          1           0        3.245088   -2.322113    0.434208
     22          1           0        3.728491   -1.560215   -1.102792
 ---------------------------------------------------------------------

 SCF Done:  E(RHF) =  -492.920572536     A.U. after   14 cycles
 E2 =    -0.1602106260D+01 EUMP2 =    -0.49452267879599D+03

 The electronic state is 1-A.
 Alpha  occ. eigenvalues --  -20.54223 -20.53837 -15.60645 -15.60056 -11.37186
 Alpha  occ. eigenvalues --  -11.36655 -11.29540 -11.27372 -11.25574 -11.22000
 Alpha  occ. eigenvalues --   -1.39651  -1.39075  -1.25390  -1.22910  -1.05452
 Alpha  occ. eigenvalues --   -0.99536  -0.96582  -0.87535  -0.79795  -0.78797
 Alpha  occ. eigenvalues --   -0.73353  -0.67652  -0.65914  -0.65488  -0.62671
 Alpha  occ. eigenvalues --   -0.62340  -0.60506  -0.59406  -0.57669  -0.56001
 Alpha  occ. eigenvalues --   -0.55272  -0.53666  -0.52596  -0.51748  -0.49917
 Alpha  occ. eigenvalues --   -0.43887  -0.42762  -0.41068  -0.39500
 Alpha virt. eigenvalues --    0.02372   0.03688   0.04281   0.04623   0.05532
 Alpha virt. eigenvalues --    0.05921   0.06517   0.07000   0.07040   0.08163
 Alpha virt. eigenvalues --    0.08540   0.08958   0.10941   0.11918   0.12957

 Mulliken atomic charges:
              1
     1  H   -0.002465
     2  C    0.323305
     3  H   -0.086585
     4  H    0.050730
     5  C    0.523452
     6  O   -0.833499
     7  N   -0.372235
     8  H   -0.001102
     9  C   -0.144329
    10  H   -0.152953
    11  C    0.695057
    12  H   -0.042956
    13  H   -0.049657
    14  H   -0.011553
    15  C    1.123806
    16  O   -0.802422
    17  N   -0.533952
    18  H   -0.077877
    19  C    0.743974
    20  H   -0.144867
    21  H   -0.111961
    22  H   -0.091911
 Sum of Mulliken atomic charges =   0.00000

 Dipole moment (field-independent basis, Debye):
    X=              0.1999    Y=             -4.6141    Z=              1.1219  Tot=              4.7527
 Quadrupole moment (field-independent basis, Debye-Ang):
   XX=            -69.2824   YY=            -59.6624   ZZ=            -61.6216
   XY=             -2.5268   XZ=            -10.6283   YZ=             -1.3700

 Normal termination of Gaussian 09 at Mon Feb 13 01:51:58 2017.
