 Gaussian 09, Revision A.02,
 Gaussian 09:  EM64L-G09RevA.02 11-Jun-2009

 -------------------
 #SP MP2/aug-cc-pVDZ
 -------------------

 -------------------------------
 Single Point calculation at MP2
 -------------------------------
 Symbolic Z-matrix:
 Charge =  0 Multiplicity = 1

                         Standard orientation:
 ---------------------------------------------------------------------
 Center     Atomic      Atomic             Coordinates (Angstroms)
 Number     Number       Type             X           Y           Z
 ---------------------------------------------------------------------
      1          1           0       -3.816789   -1.279132    0.058399
      2          6           0       -3.197594   -0.543828    0.577199
      3          1           0       -3.109092   -0.863928    1.621699
      4          1           0       -3.696300    0.430068    0.552999
      5          6           0       -1.812094   -0.544919   -0.055201
      6          8           0       -1.283786   -1.608315   -0.382001
      7          7           0       -1.273202    0.692885   -0.254401
      8          1           0       -1.832307    1.444181    0.127699
      9          6           0        0.120395    1.131594   -0.529101
     10          1           0        0.252895    1.101995   -1.621101
     11          6           0        0.249085    2.581995   -0.067201
     12          1           0        0.165085    2.652595    1.021699
     13          1           0        1.226982    2.976702   -0.344401
     14          1           0       -0.525619    3.200790   -0.535701
     15          6           0        1.302201    0.283602    0.041599
     16          8           0        2.168397    0.837108    0.715299
     17          7           0        1.383209   -1.006797   -0.356901
     18          1           0        0.510512   -1.448503   -0.649001
     19          6           0        2.461715   -1.849390    0.134899
     20          1           0        3.415612   -1.331883    0.011099
     21          1           0        2.346017   -2.093490    1.199399
     22          1           0        2.473821   -2.776690   -0.443201
 ---------------------------------------------------------------------

 SCF Done:  E(RHF) =  -492.914619979     A.U. after   14 cycles
 E2 =    -0.1604450597D+01 EUMP2 =    -0.49451907057521D+03

 The electronic state is 1-A.
 Alpha  occ. eigenvalues --  -20.54836 -20.52489 -15.61626 -15.57074 -11.38339
 Alpha  occ. eigenvalues --  -11.35279 -11.30409 -11.25956 -11.25398 -11.23925
 Alpha  occ. eigenvalues --   -1.40144  -1.37644  -1.25374  -1.21608  -1.06301
 Alpha  occ. eigenvalues --   -1.00055  -0.95107  -0.87400  -0.81787  -0.76630
 Alpha  occ. eigenvalues --   -0.71582  -0.69638  -0.67708  -0.63464  -0.62365
 Alpha  occ. eigenvalues --   -0.60961  -0.60173  -0.59386  -0.57801  -0.55131
 Alpha  occ. eigenvalues --   -0.54110  -0.53386  -0.52723  -0.52085  -0.50621
 Alpha  occ. eigenvalues --   -0.44613  -0.43692  -0.39993  -0.37517
 Alpha virt. eigenvalues --    0.02530   0.04042   0.04389   0.04599   0.05626
 Alpha virt. eigenvalues --    0.06100   0.06557   0.06795   0.07174   0.08039
 Alpha virt. eigenvalues --    0.09167   0.10064   0.11220   0.11945   0.12740

 Mulliken atomic charges:
              1
     1  H    0.012499
     2  C    0.405529
     3  H    0.047882
     4  H   -0.137907
     5  C    0.610676
     6  O   -0.904710
     7  N   -0.611587
     8  H   -0.013502
     9  C    0.263914
    10  H   -0.089575
    11  C    0.684775
    12  H   -0.008910
    13  H   -0.120260
    14  H   -0.041080
    15  C    0.719646
    16  O   -0.807236
    17  N   -0.437251
    18  H    0.009294
    19  C    0.777196
    20  H   -0.117640
    21  H   -0.055904
    22  H   -0.185848
 Sum of Mulliken atomic charges =   0.00000

 Dipole moment (field-independent basis, Debye):
    X=             -3.9587    Y=              1.3744    Z=             -0.3748  Tot=              4.2072
 Quadrupole moment (field-independent basis, Debye-Ang):
   XX=            -59.5838   YY=            -61.1302   ZZ=            -62.3776
   XY=             -8.7976   XZ=             -6.3657   YZ=             -3.2156

 Normal termination of Gaussian 09 at Mon Feb 13 22:06:49 2017.
