 Gaussian 09, Revision A.02,
 Gaussian 09:  EM64L-G09RevA.02 11-Jun-2009

 -------------------
 #SP MP2/aug-cc-pVDZ
 -------------------

 -------------------------------
 Single Point calculation at MP2
 -------------------------------
 Symbolic Z-matrix:
 Charge =  0 Multiplicity = 1

                         Standard orientation:
 ---------------------------------------------------------------------
 Center     Atomic      Atomic             Coordinates (Angstroms)
 Number     Number       Type             X           Y           Z
 ---------------------------------------------------------------------
      1          1           0       -3.904698   -0.632411   -0.734003
      2          6           0       -3.336798   -0.482709    0.190397
      3          1           0       -3.526195   -1.347310    0.832197
      4          1           0       -3.705201    0.420789    0.686097
      5          6           0       -1.852998   -0.447604   -0.153103
      6          8           0       -1.275795   -1.452802   -0.564003
      7          7           0       -1.248003    0.760398    0.027097
      8          1           0       -1.834405    1.498696    0.392197
      9          6           0        0.115596    1.202203   -0.310003
     10          1           0        0.107294    1.586203   -1.337503
     11          6           0        0.497592    2.355104    0.632697
     12          1           0        0.549793    2.005305    1.668997
     13          1           0        1.473290    2.749608    0.341397
     14          1           0       -0.234711    3.170202    0.571397
     15          6           0        1.291499    0.196007   -0.313703
     16          8           0        2.288398    0.518911   -0.949603
     17          7           0        1.250803   -0.872593    0.533097
     18          1           0        0.335305   -1.304096    0.611997
     19          6           0        2.382806   -1.792489    0.538697
     20          1           0        3.306104   -1.223386    0.660697
     21          1           0        2.269409   -2.483489    1.378097
     22          1           0        2.457408   -2.366689   -0.394003
 ---------------------------------------------------------------------

 SCF Done:  E(RHF) =  -492.916006778     A.U. after   14 cycles
 E2 =    -0.1603461628D+01 EUMP2 =    -0.49451946840598D+03

 The electronic state is 1-A.
 Alpha  occ. eigenvalues --  -20.54373 -20.52735 -15.61538 -15.57593 -11.38080
 Alpha  occ. eigenvalues --  -11.35550 -11.30095 -11.25980 -11.25394 -11.24673
 Alpha  occ. eigenvalues --   -1.39934  -1.37972  -1.25401  -1.21724  -1.06483
 Alpha  occ. eigenvalues --   -1.00212  -0.94579  -0.88114  -0.82033  -0.76746
 Alpha  occ. eigenvalues --   -0.70923  -0.70139  -0.67181  -0.63004  -0.62687
 Alpha  occ. eigenvalues --   -0.62103  -0.59867  -0.58501  -0.57841  -0.56156
 Alpha  occ. eigenvalues --   -0.54904  -0.53744  -0.53380  -0.51834  -0.49853
 Alpha  occ. eigenvalues --   -0.44133  -0.42305  -0.40899  -0.38373
 Alpha virt. eigenvalues --    0.02319   0.03949   0.04158   0.04643   0.05757
 Alpha virt. eigenvalues --    0.06069   0.06323   0.06928   0.07160   0.08012
 Alpha virt. eigenvalues --    0.08766   0.10370   0.11510   0.11676   0.12273

 Mulliken atomic charges:
              1
     1  H    0.061778
     2  C    0.422243
     3  H    0.032737
     4  H   -0.174259
     5  C    0.457389
     6  O   -0.864290
     7  N   -0.459293
     8  H   -0.029956
     9  C    0.514704
    10  H   -0.094527
    11  C    0.486394
    12  H   -0.004767
    13  H   -0.053193
    14  H   -0.105957
    15  C    0.855463
    16  O   -0.902450
    17  N   -0.502693
    18  H   -0.027519
    19  C    0.760061
    20  H   -0.123339
    21  H   -0.196656
    22  H   -0.051870
 Sum of Mulliken atomic charges =   0.00000

 Dipole moment (field-independent basis, Debye):
    X=             -4.4162    Y=              1.9712    Z=              2.8937  Tot=              5.6358
 Quadrupole moment (field-independent basis, Debye-Ang):
   XX=            -59.4156   YY=            -58.9575   ZZ=            -64.1095
   XY=             -7.4786   XZ=              2.9267   YZ=             -1.4779

 Normal termination of Gaussian 09 at Mon Feb 13 21:23:11 2017.
