 Gaussian 09, Revision A.02,
 Gaussian 09:  EM64L-G09RevA.02 11-Jun-2009

 -------------------
 #SP MP2/aug-cc-pVDZ
 -------------------

 -------------------------------
 Single Point calculation at MP2
 -------------------------------
 Symbolic Z-matrix:
 Charge =  0 Multiplicity = 1

                         Standard orientation:
 ---------------------------------------------------------------------
 Center     Atomic      Atomic             Coordinates (Angstroms)
 Number     Number       Type             X           Y           Z
 ---------------------------------------------------------------------
      1          1           0       -3.718185   -1.172008    0.868805
      2          6           0       -2.940686   -0.438007    1.084805
      3          1           0       -2.344686   -0.795506    1.933705
      4          1           0       -3.406788    0.511493    1.374805
      5          6           0       -2.046187   -0.292905   -0.140095
      6          8           0       -2.070485   -1.077405   -1.064395
      7          7           0       -1.288589    0.896396   -0.155195
      8          1           0       -1.444890    1.403196    0.712505
      9          6           0        0.142811    1.001199   -0.496795
     10          1           0        0.204111    1.068299   -1.594295
     11          6           0        0.658309    2.328700    0.074105
     12          1           0        0.766909    2.286000    1.164405
     13          1           0        1.622008    2.617702   -0.357295
     14          1           0       -0.048893    3.126199   -0.174795
     15          6           0        0.992813   -0.258099   -0.158095
     16          8           0        0.529315   -1.385100   -0.111195
     17          7           0        2.306413   -0.001797    0.148605
     18          1           0        2.676111    0.924204   -0.001395
     19          6           0        3.260715   -1.080995    0.351505
     20          1           0        3.795915   -1.340794   -0.571495
     21          1           0        3.989414   -0.792294    1.115305
     22          1           0        2.706916   -1.957996    0.688005
 ---------------------------------------------------------------------

 SCF Done:  E(RHF) =  -492.896041535     A.U. after   14 cycles
 E2 =    -0.1604624443D+01 EUMP2 =    -0.49450066597734D+03

 The electronic state is 1-A.
 Alpha  occ. eigenvalues --  -20.52997 -20.52293 -15.59784 -15.58825 -11.36289
 Alpha  occ. eigenvalues --  -11.35211 -11.30369 -11.26940 -11.25999 -11.23926
 Alpha  occ. eigenvalues --   -1.39026  -1.37179  -1.23577  -1.22681  -1.05779
 Alpha  occ. eigenvalues --   -0.98717  -0.95720  -0.88889  -0.79466  -0.77778
 Alpha  occ. eigenvalues --   -0.70955  -0.66953  -0.66233  -0.64273  -0.62280
 Alpha  occ. eigenvalues --   -0.61269  -0.59426  -0.57852  -0.57400  -0.56417
 Alpha  occ. eigenvalues --   -0.55255  -0.54912  -0.53750  -0.51165  -0.48850
 Alpha  occ. eigenvalues --   -0.44532  -0.41440  -0.39434  -0.37989
 Alpha virt. eigenvalues --    0.02361   0.03514   0.03898   0.04660   0.05498
 Alpha virt. eigenvalues --    0.05881   0.06030   0.06724   0.07431   0.08202
 Alpha virt. eigenvalues --    0.08736   0.09912   0.11200   0.11588   0.11960

 Mulliken atomic charges:
              1
     1  H   -0.078169
     2  C    0.281262
     3  H    0.061846
     4  H    0.002300
     5  C    0.769532
     6  O   -0.811412
     7  N   -0.684051
     8  H    0.055974
     9  C    0.178532
    10  H   -0.056550
    11  C    0.727353
    12  H   -0.008729
    13  H   -0.086547
    14  H   -0.092263
    15  C    0.821786
    16  O   -0.790459
    17  N   -0.534174
    18  H   -0.132851
    19  C    0.732639
    20  H   -0.065573
    21  H   -0.160335
    22  H   -0.130112
 Sum of Mulliken atomic charges =   0.00000

 Dipole moment (field-independent basis, Debye):
    X=              3.2805    Y=              5.1879    Z=              3.0825  Tot=              6.8686
 Quadrupole moment (field-independent basis, Debye-Ang):
   XX=            -52.4849   YY=            -63.5662   ZZ=            -62.4534
   XY=             -1.7577   XZ=             -7.9605   YZ=             -3.1098

 Normal termination of Gaussian 09 at Mon Feb 13 20:38:30 2017.
