 Gaussian 09, Revision A.02,
 Gaussian 09:  EM64L-G09RevA.02 11-Jun-2009

 -------------------
 #SP MP2/aug-cc-pVDZ
 -------------------

 -------------------------------
 Single Point calculation at MP2
 -------------------------------
 Symbolic Z-matrix:
 Charge =  0 Multiplicity = 1

                         Standard orientation:
 ---------------------------------------------------------------------
 Center     Atomic      Atomic             Coordinates (Angstroms)
 Number     Number       Type             X           Y           Z
 ---------------------------------------------------------------------
      1          1           0        3.402137   -1.617445   -0.813394
      2          6           0        3.247922   -0.652448   -0.325694
      3          1           0        3.618209    0.146558   -0.976594
      4          1           0        3.838422   -0.648538    0.597806
      5          6           0        1.772320   -0.515271    0.028206
      6          8           0        1.104635   -1.467981    0.404506
      7          7           0        1.259000    0.749221   -0.120094
      8          1           0        1.911388    1.484331   -0.360694
      9          6           0       -0.038108    1.211501    0.391806
     10          1           0        0.078888    1.510803    1.441006
     11          6           0       -0.510427    2.421793   -0.420594
     12          1           0       -0.645423    2.173591   -1.477994
     13          1           0       -1.463432    2.788978   -0.028594
     14          1           0        0.217661    3.240205   -0.351694
     15          6           0       -1.104890    0.091484    0.469306
     16          8           0       -1.563684   -0.253123    1.545906
     17          7           0       -1.646684   -0.289125   -0.733194
     18          1           0       -1.046886   -0.173515   -1.541194
     19          6           0       -2.555966   -1.427539   -0.773494
     20          1           0       -3.291468   -1.310451    0.023606
     21          1           0       -3.067766   -1.444447   -1.739694
     22          1           0       -2.030651   -2.379031   -0.620094
 ---------------------------------------------------------------------

 SCF Done:  E(RHF) =  -492.914269749     A.U. after   14 cycles
 E2 =    -0.1602990634D+01 EUMP2 =    -0.49451726038338D+03

 The electronic state is 1-A.
 Alpha  occ. eigenvalues --  -20.53622 -20.52289 -15.60747 -15.58256 -11.37016
 Alpha  occ. eigenvalues --  -11.35263 -11.29630 -11.25530 -11.25393 -11.25007
 Alpha  occ. eigenvalues --   -1.39289  -1.37501  -1.24750  -1.21849  -1.06134
 Alpha  occ. eigenvalues --   -0.99819  -0.94493  -0.88320  -0.81182  -0.76918
 Alpha  occ. eigenvalues --   -0.70239  -0.69275  -0.67096  -0.63154  -0.62028
 Alpha  occ. eigenvalues --   -0.61485  -0.59574  -0.58067  -0.57714  -0.56014
 Alpha  occ. eigenvalues --   -0.54926  -0.54148  -0.53426  -0.51189  -0.50654
 Alpha  occ. eigenvalues --   -0.42800  -0.41651  -0.40191  -0.38541
 Alpha virt. eigenvalues --    0.02291   0.03727   0.03921   0.04677   0.05546
 Alpha virt. eigenvalues --    0.06014   0.06080   0.06728   0.07434   0.08274
 Alpha virt. eigenvalues --    0.08490   0.09233   0.11182   0.11653   0.12373

 Mulliken atomic charges:
              1
     1  H    0.008683
     2  C    0.440412
     3  H   -0.123754
     4  H    0.067491
     5  C    0.498161
     6  O   -0.823294
     7  N   -0.457699
     8  H   -0.098572
     9  C    0.366665
    10  H   -0.220431
    11  C    0.692549
    12  H   -0.050850
    13  H   -0.040754
    14  H   -0.105312
    15  C    1.098131
    16  O   -0.899564
    17  N   -0.667801
    18  H   -0.041384
    19  C    0.709955
    20  H   -0.105017
    21  H   -0.194524
    22  H   -0.053090
 Sum of Mulliken atomic charges =   0.00000

 Dipole moment (field-independent basis, Debye):
    X=              3.1519    Y=              3.6461    Z=             -4.3556  Tot=              6.4961
 Quadrupole moment (field-independent basis, Debye-Ang):
   XX=            -53.6265   YY=            -60.3573   ZZ=            -64.9025
   XY=              3.8691   XZ=              4.3728   YZ=              3.9243

 Normal termination of Gaussian 09 at Mon Feb 13 20:49:16 2017.
