 Gaussian 09, Revision A.02,
 Gaussian 09:  EM64L-G09RevA.02 11-Jun-2009

 -------------------
 #SP MP2/aug-cc-pVDZ
 -------------------

 -------------------------------
 Single Point calculation at MP2
 -------------------------------
 Symbolic Z-matrix:
 Charge =  0 Multiplicity = 1

                         Standard orientation:
 ---------------------------------------------------------------------
 Center     Atomic      Atomic             Coordinates (Angstroms)
 Number     Number       Type             X           Y           Z
 ---------------------------------------------------------------------
      1          1           0       -3.672269   -1.521467    0.184805
      2          6           0       -3.119883   -0.682957    0.614105
      3          1           0       -2.976480   -0.888455    1.681305
      4          1           0       -3.713399    0.231432    0.514805
      5          6           0       -1.758185   -0.600534   -0.061695
      6          8           0       -1.157867   -1.621124   -0.394295
      7          7           0       -1.308106    0.668574   -0.299095
      8          1           0       -1.885919    1.394164    0.106005
      9          6           0        0.075886    1.133197   -0.563495
     10          1           0        0.235887    1.064000   -1.648795
     11          6           0        0.176560    2.597199   -0.143795
     12          1           0        0.102959    2.691798    0.943305
     13          1           0        1.143253    3.008216   -0.441895
     14          1           0       -0.613150    3.187586   -0.623295
     15          6           0        1.231100    0.311317    0.090205
     16          8           0        1.906091    0.804129    0.989205
     17          7           0        1.509020   -0.887878   -0.485695
     18          1           0        0.702128   -1.354492   -0.895995
     19          6           0        2.537435   -1.738060    0.096505
     20          1           0        3.432925   -1.141745    0.281505
     21          1           0        2.220343   -2.181666    1.049805
     22          1           0        2.774049   -2.539256   -0.608295
 ---------------------------------------------------------------------

 SCF Done:  E(RHF) =  -492.915852927     A.U. after   14 cycles
 E2 =    -0.1603826640D+01 EUMP2 =    -0.49451967956698D+03

 The electronic state is 1-A.
 Alpha  occ. eigenvalues --  -20.54674 -20.52899 -15.61323 -15.57281 -11.38033
 Alpha  occ. eigenvalues --  -11.35341 -11.30182 -11.25795 -11.25367 -11.23973
 Alpha  occ. eigenvalues --   -1.39987  -1.37884  -1.25124  -1.21744  -1.06177
 Alpha  occ. eigenvalues --   -0.99975  -0.95074  -0.87259  -0.81494  -0.76333
 Alpha  occ. eigenvalues --   -0.71432  -0.69541  -0.67603  -0.63600  -0.62267
 Alpha  occ. eigenvalues --   -0.61372  -0.59980  -0.59103  -0.57686  -0.54852
 Alpha  occ. eigenvalues --   -0.54165  -0.53392  -0.52839  -0.51636  -0.50889
 Alpha  occ. eigenvalues --   -0.44589  -0.43841  -0.40141  -0.37670
 Alpha virt. eigenvalues --    0.02635   0.04035   0.04364   0.04711   0.05627
 Alpha virt. eigenvalues --    0.06028   0.06562   0.06811   0.07380   0.08087
 Alpha virt. eigenvalues --    0.09122   0.10044   0.10984   0.11827   0.12845

 Mulliken atomic charges:
              1
     1  H   -0.001087
     2  C    0.405242
     3  H    0.052305
     4  H   -0.112510
     5  C    0.605059
     6  O   -0.862580
     7  N   -0.630450
     8  H   -0.012212
     9  C    0.239245
    10  H   -0.158906
    11  C    0.703339
    12  H    0.019522
    13  H   -0.123616
    14  H   -0.044580
    15  C    0.817342
    16  O   -0.827083
    17  N   -0.531004
    18  H    0.043466
    19  C    0.782629
    20  H   -0.124168
    21  H   -0.061733
    22  H   -0.178219
 Sum of Mulliken atomic charges =   0.00000

 Dipole moment (field-independent basis, Debye):
    X=             -3.5659    Y=              1.3630    Z=             -0.8288  Tot=              3.9064
 Quadrupole moment (field-independent basis, Debye-Ang):
   XX=            -57.1427   YY=            -61.1101   ZZ=            -63.5781
   XY=             -7.4946   XZ=             -6.8611   YZ=             -3.4258

 Normal termination of Gaussian 09 at Mon Feb 13 22:09:59 2017.
