 Gaussian 09, Revision A.02,
 Gaussian 09:  EM64L-G09RevA.02 11-Jun-2009

 -------------------
 #SP MP2/aug-cc-pVDZ
 -------------------

 -------------------------------
 Single Point calculation at MP2
 -------------------------------
 Symbolic Z-matrix:
 Charge =  0 Multiplicity = 1

                         Standard orientation:
 ---------------------------------------------------------------------
 Center     Atomic      Atomic             Coordinates (Angstroms)
 Number     Number       Type             X           Y           Z
 ---------------------------------------------------------------------
      1          1           0       -3.914187   -1.064853   -0.141097
      2          6           0       -3.269394   -0.453346    0.495403
      3          1           0       -3.270389   -0.905646    1.493003
      4          1           0       -3.687705    0.555249    0.567003
      5          6           0       -1.851793   -0.507131   -0.060297
      6          8           0       -1.361582   -1.594426   -0.371197
      7          7           0       -1.250706    0.706775   -0.206697
      8          1           0       -1.806914    1.475469    0.142103
      9          6           0        0.147289    1.133390   -0.483697
     10          1           0        0.257689    1.163391   -1.579097
     11          6           0        0.297874    2.560492    0.045903
     12          1           0        0.194174    2.584091    1.136003
     13          1           0        1.288970    2.940802   -0.198897
     14          1           0       -0.457533    3.216784   -0.402797
     15          6           0        1.352199    0.262103   -0.004397
     16          8           0        2.352392    0.834313    0.427203
     17          7           0        1.297213   -1.069398   -0.200197
     18          1           0        0.395017   -1.490607   -0.429397
     19          6           0        2.423621   -1.907386    0.175103
     20          1           0        3.336218   -1.567276   -0.323797
     21          1           0        2.605921   -1.882184    1.256603
     22          1           0        2.207932   -2.934688   -0.127497
 ---------------------------------------------------------------------

 SCF Done:  E(RHF) =  -492.914037257     A.U. after   14 cycles
 E2 =    -0.1604853620D+01 EUMP2 =    -0.49451889087655D+03

 The electronic state is 1-A.
 Alpha  occ. eigenvalues --  -20.54875 -20.52093 -15.61809 -15.57049 -11.38507
 Alpha  occ. eigenvalues --  -11.35231 -11.30572 -11.26036 -11.25471 -11.23901
 Alpha  occ. eigenvalues --   -1.40222  -1.37434  -1.25528  -1.21567  -1.06382
 Alpha  occ. eigenvalues --   -1.00087  -0.95141  -0.87551  -0.81989  -0.77014
 Alpha  occ. eigenvalues --   -0.71610  -0.69755  -0.67711  -0.63303  -0.62396
 Alpha  occ. eigenvalues --   -0.60766  -0.60169  -0.59613  -0.57930  -0.55373
 Alpha  occ. eigenvalues --   -0.54058  -0.53443  -0.52929  -0.52286  -0.50242
 Alpha  occ. eigenvalues --   -0.44427  -0.43455  -0.39893  -0.37511
 Alpha virt. eigenvalues --    0.02456   0.04037   0.04425   0.04521   0.05637
 Alpha virt. eigenvalues --    0.06258   0.06501   0.06725   0.07053   0.07979
 Alpha virt. eigenvalues --    0.09277   0.09787   0.11517   0.12018   0.12675

 Mulliken atomic charges:
              1
     1  H    0.030099
     2  C    0.416507
     3  H    0.046563
     4  H   -0.174359
     5  C    0.583628
     6  O   -0.933823
     7  N   -0.572939
     8  H   -0.013195
     9  C    0.288888
    10  H   -0.041410
    11  C    0.669215
    12  H   -0.032148
    13  H   -0.105863
    14  H   -0.035078
    15  C    0.646398
    16  O   -0.812830
    17  N   -0.330532
    18  H   -0.018818
    19  C    0.746580
    20  H   -0.090083
    21  H   -0.053905
    22  H   -0.212895
 Sum of Mulliken atomic charges =   0.00000

 Dipole moment (field-independent basis, Debye):
    X=             -4.2800    Y=              1.3961    Z=              0.0256  Tot=              4.5020
 Quadrupole moment (field-independent basis, Debye-Ang):
   XX=            -61.4853   YY=            -60.9480   ZZ=            -61.4006
   XY=             -9.7473   XZ=             -5.0307   YZ=             -2.6896

 Normal termination of Gaussian 09 at Mon Feb 13 21:43:59 2017.
