 Gaussian 09, Revision A.02,
 Gaussian 09:  EM64L-G09RevA.02 11-Jun-2009

 -------------------
 #SP MP2/aug-cc-pVDZ
 -------------------

 -------------------------------
 Single Point calculation at MP2
 -------------------------------
 Symbolic Z-matrix:
 Charge =  0 Multiplicity = 1

                         Standard orientation:
 ---------------------------------------------------------------------
 Center     Atomic      Atomic             Coordinates (Angstroms)
 Number     Number       Type             X           Y           Z
 ---------------------------------------------------------------------
      1          1           0        3.582714   -1.511782   -0.818500
      2          6           0        3.331907   -0.564884   -0.336800
      3          1           0        3.686001    0.264818   -0.958200
      4          1           0        3.860006   -0.523780    0.623500
      5          6           0        1.828306   -0.527895   -0.086900
      6          8           0        1.175214   -1.541800    0.100300
      7          7           0        1.277297    0.733901   -0.123700
      8          1           0        1.938191    1.497605   -0.200200
      9          6           0       -0.015806    1.137691    0.451700
     10          1           0        0.125693    1.347792    1.520000
     11          6           0       -0.495815    2.417887   -0.240200
     12          1           0       -0.622614    2.277686   -1.318900
     13          1           0       -1.449218    2.747580    0.182500
     14          1           0        0.232979    3.225493   -0.095600
     15          6           0       -1.070397   -0.000317    0.477100
     16          8           0       -1.302993   -0.603519    1.511700
     17          7           0       -1.869897   -0.100523   -0.633200
     18          1           0       -1.479399    0.231980   -1.505700
     19          6           0       -2.824389   -1.197630   -0.729600
     20          1           0       -3.374688   -1.261434    0.210400
     21          1           0       -3.522090   -0.993935   -1.546500
     22          1           0       -2.329981   -2.162226   -0.902300
 ---------------------------------------------------------------------

 SCF Done:  E(RHF) =  -492.909153006     A.U. after   14 cycles
 E2 =    -0.1603134376D+01 EUMP2 =    -0.49451228738219D+03

 The electronic state is 1-A.
 Alpha  occ. eigenvalues --  -20.53310 -20.52156 -15.60350 -15.58587 -11.36616
 Alpha  occ. eigenvalues --  -11.35329 -11.29753 -11.25760 -11.25077 -11.25068
 Alpha  occ. eigenvalues --   -1.38969  -1.37436  -1.24374  -1.22037  -1.06014
 Alpha  occ. eigenvalues --   -0.99542  -0.94601  -0.88429  -0.80784  -0.77059
 Alpha  occ. eigenvalues --   -0.70068  -0.69012  -0.66766  -0.63374  -0.61993
 Alpha  occ. eigenvalues --   -0.61199  -0.59495  -0.57884  -0.57617  -0.56010
 Alpha  occ. eigenvalues --   -0.54898  -0.54321  -0.53368  -0.51390  -0.50331
 Alpha  occ. eigenvalues --   -0.42603  -0.41336  -0.39965  -0.38557
 Alpha virt. eigenvalues --    0.02387   0.03619   0.04037   0.04624   0.05535
 Alpha virt. eigenvalues --    0.05932   0.06246   0.06767   0.07305   0.08108
 Alpha virt. eigenvalues --    0.08574   0.09404   0.10940   0.11718   0.12448

 Mulliken atomic charges:
              1
     1  H   -0.013168
     2  C    0.415608
     3  H   -0.088334
     4  H    0.064993
     5  C    0.548239
     6  O   -0.796886
     7  N   -0.553342
     8  H   -0.083237
     9  C    0.325897
    10  H   -0.195028
    11  C    0.718246
    12  H   -0.043102
    13  H   -0.034564
    14  H   -0.116471
    15  C    1.100908
    16  O   -0.896690
    17  N   -0.657382
    18  H   -0.065399
    19  C    0.713093
    20  H   -0.103736
    21  H   -0.193257
    22  H   -0.046385
 Sum of Mulliken atomic charges =   0.00000

 Dipole moment (field-independent basis, Debye):
    X=              2.1937    Y=              4.6375    Z=             -3.6128  Tot=              6.2746
 Quadrupole moment (field-independent basis, Debye-Ang):
   XX=            -50.8467   YY=            -62.3756   ZZ=            -63.9485
   XY=              3.5393   XZ=              5.0226   YZ=              3.8776

 Normal termination of Gaussian 09 at Mon Feb 13 21:06:21 2017.
