 Gaussian 09, Revision A.02,
 Gaussian 09:  EM64L-G09RevA.02 11-Jun-2009

 -------------------
 #SP MP2/aug-cc-pVDZ
 -------------------

 -------------------------------
 Single Point calculation at MP2
 -------------------------------
 Symbolic Z-matrix:
 Charge =  0 Multiplicity = 1

                         Standard orientation:
 ---------------------------------------------------------------------
 Center     Atomic      Atomic             Coordinates (Angstroms)
 Number     Number       Type             X           Y           Z
 ---------------------------------------------------------------------
      1          1           0       -3.440367   -1.872567   -0.053691
      2          6           0       -3.060784   -0.949661    0.389909
      3          1           0       -2.976381   -1.106359    1.471709
      4          1           0       -3.775198   -0.139273    0.211809
      5          6           0       -1.678888   -0.664937   -0.175491
      6          8           0       -0.890973   -1.557023   -0.466091
      7          7           0       -1.379211    0.661668   -0.361991
      8          1           0       -2.014823    1.328857    0.056609
      9          6           0       -0.002320    1.135192   -0.535891
     10          1           0        0.236681    1.119696   -1.608691
     11          6           0        0.115455    2.569394   -0.017791
     12          1           0       -0.026445    2.581692    1.067109
     13          1           0        1.109248    2.971112   -0.237191
     14          1           0       -0.626656    3.219981   -0.494991
     15          6           0        1.009396    0.235710    0.215409
     16          8           0        1.013897    0.184810    1.438109
     17          7           0        1.954306   -0.358674   -0.571591
     18          1           0        1.676109   -0.533379   -1.528491
     19          6           0        2.868623   -1.327558    0.016909
     20          1           0        3.255816   -0.918651    0.951509
     21          1           0        2.365940   -2.277967    0.237709
     22          1           0        3.698126   -1.505243   -0.672791
 ---------------------------------------------------------------------

 SCF Done:  E(RHF) =  -492.922212426     A.U. after   15 cycles
 E2 =    -0.1602937253D+01 EUMP2 =    -0.49452514967904D+03

 The electronic state is 1-A.
 Alpha  occ. eigenvalues --  -20.53520 -20.52564 -15.60068 -15.58431 -11.36600
 Alpha  occ. eigenvalues --  -11.35298 -11.29600 -11.25621 -11.24862 -11.24315
 Alpha  occ. eigenvalues --   -1.39220  -1.37558  -1.24150  -1.22257  -1.05741
 Alpha  occ. eigenvalues --   -0.99396  -0.95111  -0.87210  -0.80511  -0.77040
 Alpha  occ. eigenvalues --   -0.70763  -0.68944  -0.67190  -0.63143  -0.61859
 Alpha  occ. eigenvalues --   -0.61422  -0.59523  -0.58244  -0.57391  -0.54821
 Alpha  occ. eigenvalues --   -0.54260  -0.53734  -0.53104  -0.51651  -0.49687
 Alpha  occ. eigenvalues --   -0.43142  -0.42792  -0.39897  -0.38495
 Alpha virt. eigenvalues --    0.02894   0.03798   0.04324   0.04752   0.05613
 Alpha virt. eigenvalues --    0.06242   0.06475   0.06955   0.07416   0.07991
 Alpha virt. eigenvalues --    0.09009   0.09303   0.11001   0.12062   0.12963

 Mulliken atomic charges:
              1
     1  H   -0.006831
     2  C    0.369640
     3  H    0.078826
     4  H   -0.092620
     5  C    0.602058
     6  O   -0.866493
     7  N   -0.493855
     8  H   -0.007310
     9  C    0.107910
    10  H   -0.300688
    11  C    0.646423
    12  H    0.028629
    13  H   -0.078106
    14  H   -0.057649
    15  C    1.206599
    16  O   -0.926907
    17  N   -0.554454
    18  H   -0.047894
    19  C    0.731516
    20  H   -0.108855
    21  H   -0.041435
    22  H   -0.188505
 Sum of Mulliken atomic charges =   0.00000

 Dipole moment (field-independent basis, Debye):
    X=             -1.7582    Y=              2.3805    Z=             -2.2061  Tot=              3.6911
 Quadrupole moment (field-independent basis, Debye-Ang):
   XX=            -50.0735   YY=            -60.7863   ZZ=            -64.6431
   XY=             -4.2213   XZ=             -6.2730   YZ=             -1.4296

 Normal termination of Gaussian 09 at Mon Feb 13 19:50:38 2017.
