 Gaussian 09, Revision A.02,
 Gaussian 09:  EM64L-G09RevA.02 11-Jun-2009

 -------------------
 #SP MP2/aug-cc-pVDZ
 -------------------

 -------------------------------
 Single Point calculation at MP2
 -------------------------------
 Symbolic Z-matrix:
 Charge =  0 Multiplicity = 1

                         Standard orientation:
 ---------------------------------------------------------------------
 Center     Atomic      Atomic             Coordinates (Angstroms)
 Number     Number       Type             X           Y           Z
 ---------------------------------------------------------------------
      1          1           0       -3.477799   -0.982699    1.234106
      2          6           0       -3.346798   -0.385899    0.325806
      3          1           0       -3.710897    0.628801    0.512906
      4          1           0       -3.958599   -0.845498   -0.455794
      5          6           0       -1.885598   -0.465601   -0.098694
      6          8           0       -1.403800   -1.557002   -0.410694
      7          7           0       -1.232896    0.727898   -0.117894
      8          1           0       -1.795895    1.504199    0.200906
      9          6           0        0.163304    1.151396   -0.397794
     10          1           0        0.232504    1.330696   -1.481494
     11          6           0        0.373606    2.495696    0.311706
     12          1           0        0.278906    2.378096    1.397306
     13          1           0        1.375207    2.862294    0.090406
     14          1           0       -0.361493    3.234997   -0.029194
     15          6           0        1.392103    0.236994   -0.110194
     16          8           0        2.497704    0.777393   -0.135594
     17          7           0        1.218701   -1.077306    0.121206
     18          1           0        0.299601   -1.485604   -0.062294
     19          6           0        2.376600   -1.940307    0.289806
     20          1           0        2.949200   -2.042508   -0.640794
     21          1           0        3.046000   -1.526708    1.048906
     22          1           0        2.032099   -2.927007    0.608306
 ---------------------------------------------------------------------

 SCF Done:  E(RHF) =  -492.914236435     A.U. after   14 cycles
 E2 =    -0.1604873652D+01 EUMP2 =    -0.49451911008715D+03

 The electronic state is 1-A.
 Alpha  occ. eigenvalues --  -20.54826 -20.51870 -15.61897 -15.57230 -11.38578
 Alpha  occ. eigenvalues --  -11.35360 -11.30610 -11.26086 -11.25479 -11.24084
 Alpha  occ. eigenvalues --   -1.40246  -1.37392  -1.25627  -1.21646  -1.06476
 Alpha  occ. eigenvalues --   -1.00149  -0.95044  -0.87820  -0.82166  -0.77242
 Alpha  occ. eigenvalues --   -0.71510  -0.70034  -0.67480  -0.63143  -0.62336
 Alpha  occ. eigenvalues --   -0.61516  -0.59942  -0.59170  -0.58097  -0.55707
 Alpha  occ. eigenvalues --   -0.54229  -0.53634  -0.53418  -0.52258  -0.49754
 Alpha  occ. eigenvalues --   -0.44188  -0.42872  -0.40250  -0.37742
 Alpha virt. eigenvalues --    0.02385   0.04033   0.04394   0.04551   0.05688
 Alpha virt. eigenvalues --    0.06249   0.06414   0.06607   0.07278   0.07950
 Alpha virt. eigenvalues --    0.09334   0.09780   0.11621   0.11795   0.12637

 Mulliken atomic charges:
              1
     1  H    0.039853
     2  C    0.424753
     3  H   -0.207730
     4  H    0.045488
     5  C    0.529931
     6  O   -0.926238
     7  N   -0.541853
     8  H    0.003764
     9  C    0.252187
    10  H    0.013705
    11  C    0.633160
    12  H   -0.022891
    13  H   -0.092843
    14  H   -0.066149
    15  C    0.734346
    16  O   -0.857419
    17  N   -0.320352
    18  H   -0.020628
    19  C    0.711311
    20  H   -0.031087
    21  H   -0.096514
    22  H   -0.204794
 Sum of Mulliken atomic charges =   0.00000

 Dipole moment (field-independent basis, Debye):
    X=             -4.5896    Y=              1.5429    Z=              0.9690  Tot=              4.9380
 Quadrupole moment (field-independent basis, Debye-Ang):
   XX=            -62.7513   YY=            -60.3719   ZZ=            -61.1070
   XY=            -10.1147   XZ=             -1.2982   YZ=             -1.6022

 Normal termination of Gaussian 09 at Mon Feb 13 20:11:04 2017.
