 Gaussian 09, Revision A.02,
 Gaussian 09:  EM64L-G09RevA.02 11-Jun-2009

 ----------------------------------------------------------------------
 # b3lyp/6-31G* Opt=(ModRedundant, maxcycles=1000, calcfc) geom=nocrowd
 ----------------------------------------------------------------------

 ------------------
 Phi Psi fixed scan
 ------------------
 Symbolic Z-matrix:
 Charge =  0 Multiplicity = 1

 SCF Done:  E(RB3LYP) =  -495.791568610     A.U. after   16 cycles

  Exact polarizability:   0.000   0.000   0.000   0.000   0.000   0.000
 Approx polarizability: 123.865   6.120 128.719  -8.931   2.222  87.984

 SCF Done:  E(RB3LYP) =  -495.805199945     A.U. after   14 cycles
 SCF Done:  E(RB3LYP) =  -495.821604619     A.U. after   13 cycles
 SCF Done:  E(RB3LYP) =  -495.823784982     A.U. after   15 cycles
 SCF Done:  E(RB3LYP) =  -495.825124962     A.U. after   12 cycles
 SCF Done:  E(RB3LYP) =  -495.826784281     A.U. after   13 cycles
 SCF Done:  E(RB3LYP) =  -495.828987518     A.U. after   14 cycles
 SCF Done:  E(RB3LYP) =  -495.831292961     A.U. after   15 cycles
 SCF Done:  E(RB3LYP) =  -495.832565070     A.U. after   15 cycles
 SCF Done:  E(RB3LYP) =  -495.833914318     A.U. after   13 cycles
 SCF Done:  E(RB3LYP) =  -495.835229625     A.U. after   12 cycles
 SCF Done:  E(RB3LYP) =  -495.834749354     A.U. after   13 cycles
 SCF Done:  E(RB3LYP) =  -495.835262149     A.U. after   13 cycles
 SCF Done:  E(RB3LYP) =  -495.833384752     A.U. after   12 cycles
 SCF Done:  E(RB3LYP) =  -495.835330896     A.U. after   12 cycles
 SCF Done:  E(RB3LYP) =  -495.835380740     A.U. after   10 cycles
 SCF Done:  E(RB3LYP) =  -495.835411338     A.U. after   11 cycles
 SCF Done:  E(RB3LYP) =  -495.835414700     A.U. after   10 cycles
 SCF Done:  E(RB3LYP) =  -495.835415347     A.U. after    8 cycles
 SCF Done:  E(RB3LYP) =  -495.835415513     A.U. after    8 cycles
 Optimization completed.
    -- Stationary point found.

                         Standard orientation:
 ---------------------------------------------------------------------
 Center     Atomic      Atomic             Coordinates (Angstroms)
 Number     Number       Type             X           Y           Z
 ---------------------------------------------------------------------
      1          1           0        3.730836   -1.321828   -0.393743
      2          6           0        2.975238   -0.670152   -0.835427
      3          1           0        2.438479   -1.229486   -1.610771
      4          1           0        3.462848    0.191334   -1.306319
      5          6           0        1.983145   -0.260280    0.238639
      6          8           0        1.852370   -0.858881    1.289946
      7          7           0        1.287176    0.928872   -0.025928
      8          1           0        1.405719    1.222028   -0.992555
      9          6           0       -0.112968    1.048440    0.377485
     10          1           0       -0.125972    1.119137    1.473714
     11          6           0       -0.681744    2.348338   -0.206906
     12          1           0       -0.771090    2.287309   -1.298171
     13          1           0       -1.671505    2.586285    0.193159
     14          1           0       -0.015745    3.180187    0.042134
     15          6           0       -0.938534   -0.222075    0.015723
     16          8           0       -0.424898   -1.242451   -0.418389
     17          7           0       -2.298890   -0.058405    0.067079
     18          1           0       -2.664283    0.733135    0.577919
     19          6           0       -3.199931   -1.182933   -0.142962
     20          1           0       -2.744170   -1.848229   -0.877020
     21          1           0       -3.377394   -1.754188    0.777802
     22          1           0       -4.156738   -0.816330   -0.525968
 ---------------------------------------------------------------------

 The electronic state is 1-A.
 Alpha  occ. eigenvalues --  -19.11593 -19.09784 -14.36595 -14.34612 -10.28708
 Alpha  occ. eigenvalues --  -10.27489 -10.23976 -10.22058 -10.20234 -10.17906
 Alpha  occ. eigenvalues --   -1.03816  -1.01498  -0.92285  -0.91318  -0.77951
 Alpha  occ. eigenvalues --   -0.72191  -0.70858  -0.64643  -0.58599  -0.56848
 Alpha  occ. eigenvalues --   -0.52546  -0.48086  -0.47164  -0.45262  -0.45146
 Alpha  occ. eigenvalues --   -0.43657  -0.42738  -0.41537  -0.40090  -0.39552
 Alpha  occ. eigenvalues --   -0.38708  -0.38299  -0.37830  -0.35677  -0.33393
 Alpha  occ. eigenvalues --   -0.27377  -0.25459  -0.24310  -0.22912
 Alpha virt. eigenvalues --    0.02140   0.03500   0.05882   0.08613   0.11593
 Alpha virt. eigenvalues --    0.12853   0.13882   0.14516   0.14953   0.15841
 Alpha virt. eigenvalues --    0.16385   0.16859   0.17421   0.19090   0.19617

 Mulliken atomic charges:
              1
     1  H    0.182383
     2  C   -0.554381
     3  H    0.189112
     4  H    0.150385
     5  C    0.614756
     6  O   -0.492039
     7  N   -0.579242
     8  H    0.308681
     9  C   -0.058915
    10  H    0.181972
    11  C   -0.473132
    12  H    0.159309
    13  H    0.145899
    14  H    0.174508
    15  C    0.611473
    16  O   -0.504196
    17  N   -0.590826
    18  H    0.323645
    19  C   -0.305876
    20  H    0.199616
    21  H    0.163878
    22  H    0.152989
 Sum of Mulliken atomic charges =   0.00000

 Dipole moment (field-independent basis, Debye):
    X=             -3.2386    Y=              3.4869    Z=             -1.8901  Tot=              5.1206
 Quadrupole moment (field-independent basis, Debye-Ang):
   XX=            -50.5124   YY=            -60.8433   ZZ=            -61.3907
   XY=              0.9436   XZ=             -8.2663   YZ=              1.4683

 Normal termination of Gaussian 09 at Sat Feb 11 00:43:30 2017.
