 Gaussian 09, Revision A.02,
 Gaussian 09:  EM64L-G09RevA.02 11-Jun-2009

 ----------------------------------------------------------------------
 # b3lyp/6-31G* Opt=(ModRedundant, maxcycles=1000, calcfc) geom=nocrowd
 ----------------------------------------------------------------------

 ------------------
 Phi Psi fixed scan
 ------------------
 Symbolic Z-matrix:
 Charge =  0 Multiplicity = 1

 SCF Done:  E(RB3LYP) =  -495.689752634     A.U. after   16 cycles

  Exact polarizability:   0.000   0.000   0.000   0.000   0.000   0.000
 Approx polarizability: 132.196   4.818 135.511   3.602   8.384  87.613

 SCF Done:  E(RB3LYP) =  -495.730529148     A.U. after   13 cycles
 SCF Done:  E(RB3LYP) =  -495.784964042     A.U. after   13 cycles
 SCF Done:  E(RB3LYP) =  -495.821958138     A.U. after   13 cycles
 SCF Done:  E(RB3LYP) =  -495.827375008     A.U. after   13 cycles
 SCF Done:  E(RB3LYP) =  -495.829273442     A.U. after   13 cycles
 SCF Done:  E(RB3LYP) =  -495.835504503     A.U. after   13 cycles
 SCF Done:  E(RB3LYP) =  -495.742012661     A.U. after   14 cycles
 SCF Done:  E(RB3LYP) =  -495.841764416     A.U. after   13 cycles
 SCF Done:  E(RB3LYP) =  -495.844108064     A.U. after   12 cycles
 SCF Done:  E(RB3LYP) =  -495.847070213     A.U. after    9 cycles
 SCF Done:  E(RB3LYP) =  -495.847071142     A.U. after    8 cycles
 SCF Done:  E(RB3LYP) =  -495.847071574     A.U. after    8 cycles
 SCF Done:  E(RB3LYP) =  -495.847071874     A.U. after    7 cycles
 SCF Done:  E(RB3LYP) =  -495.847071982     A.U. after    6 cycles
 SCF Done:  E(RB3LYP) =  -495.847072031     A.U. after    6 cycles
 SCF Done:  E(RB3LYP) =  -495.847072104     A.U. after    6 cycles
 SCF Done:  E(RB3LYP) =  -495.847072232     A.U. after    6 cycles
 SCF Done:  E(RB3LYP) =  -495.847072568     A.U. after    7 cycles
 SCF Done:  E(RB3LYP) =  -495.847072763     A.U. after    7 cycles
 Optimization completed.
    -- Stationary point found.

                         Standard orientation:
 ---------------------------------------------------------------------
 Center     Atomic      Atomic             Coordinates (Angstroms)
 Number     Number       Type             X           Y           Z
 ---------------------------------------------------------------------
      1          1           0       -3.102258   -1.082012    1.518036
      2          6           0       -3.197316   -0.456376    0.623731
      3          1           0       -3.564174    0.530320    0.922450
      4          1           0       -3.933810   -0.930557   -0.030008
      5          6           0       -1.857667   -0.429350   -0.098232
      6          8           0       -1.448004   -1.433999   -0.684136
      7          7           0       -1.214347    0.771222   -0.077998
      8          1           0       -1.641083    1.462175    0.525343
      9          6           0        0.171016    1.130833   -0.464662
     10          1           0        0.207474    1.089708   -1.564176
     11          6           0        0.412243    2.575552   -0.031035
     12          1           0        0.382392    2.665247    1.060841
     13          1           0        1.401363    2.898851   -0.354298
     14          1           0       -0.344692    3.235709   -0.468937
     15          6           0        1.351092    0.221863    0.003376
     16          8           0        2.389231    0.748269    0.401312
     17          7           0        1.204895   -1.113007   -0.116861
     18          1           0        0.325396   -1.480065   -0.480432
     19          6           0        2.298059   -2.006703    0.225139
     20          1           0        2.683855   -1.776958    1.223143
     21          1           0        1.926734   -3.034050    0.207861
     22          1           0        3.130598   -1.914951   -0.483112
 ---------------------------------------------------------------------

 The electronic state is 1-A.
 Alpha  occ. eigenvalues --  -19.12724 -19.10024 -14.37787 -14.33916 -10.30497
 Alpha  occ. eigenvalues --  -10.27484 -10.24414 -10.20648 -10.20366 -10.18793
 Alpha  occ. eigenvalues --   -1.04522  -1.01903  -0.93639  -0.90252  -0.78683
 Alpha  occ. eigenvalues --   -0.73604  -0.70357  -0.64118  -0.60135  -0.56498
 Alpha  occ. eigenvalues --   -0.52517  -0.50278  -0.48773  -0.45588  -0.45217
 Alpha  occ. eigenvalues --   -0.43473  -0.41972  -0.41645  -0.41273  -0.39342
 Alpha  occ. eigenvalues --   -0.38518  -0.37817  -0.37372  -0.36484  -0.34771
 Alpha  occ. eigenvalues --   -0.28228  -0.26485  -0.23853  -0.23411
 Alpha virt. eigenvalues --    0.00945   0.03373   0.06465   0.10701   0.11960
 Alpha virt. eigenvalues --    0.12897   0.13838   0.14426   0.15287   0.15888
 Alpha virt. eigenvalues --    0.16682   0.17047   0.18380   0.18822   0.21369

 Mulliken atomic charges:
              1
     1  H    0.189048
     2  C   -0.535467
     3  H    0.150492
     4  H    0.193193
     5  C    0.605514
     6  O   -0.531360
     7  N   -0.604726
     8  H    0.332489
     9  C   -0.033261
    10  H    0.178116
    11  C   -0.474719
    12  H    0.158621
    13  H    0.194737
    14  H    0.143161
    15  C    0.596543
    16  O   -0.528603
    17  N   -0.615795
    18  H    0.386797
    19  C   -0.293134
    20  H    0.172858
    21  H    0.150943
    22  H    0.164552
 Sum of Mulliken atomic charges =   0.00000

 Dipole moment (field-independent basis, Debye):
    X=             -3.3015    Y=              0.9219    Z=              0.7550  Tot=              3.5100
 Quadrupole moment (field-independent basis, Debye-Ang):
   XX=            -61.7263   YY=            -57.6917   ZZ=            -59.8241
   XY=             -8.1968   XZ=             -5.7073   YZ=             -2.3631

 Normal termination of Gaussian 09 at Sat Feb 11 01:14:33 2017.
