 Gaussian 09, Revision A.02,
 Gaussian 09:  EM64L-G09RevA.02 11-Jun-2009

 ----------------------------------------------------------------------
 # b3lyp/6-31G* Opt=(ModRedundant, maxcycles=1000, calcfc) geom=nocrowd
 ----------------------------------------------------------------------

 ------------------
 Phi Psi fixed scan
 ------------------
 Symbolic Z-matrix:
 Charge =  0 Multiplicity = 1

 SCF Done:  E(RB3LYP) =  -495.836879928     A.U. after   15 cycles

  Exact polarizability:   0.000   0.000   0.000   0.000   0.000   0.000
 Approx polarizability: 106.702 -13.583 121.354  -4.890  11.591 108.059

 SCF Done:  E(RB3LYP) =  -495.840352339     A.U. after   12 cycles
 SCF Done:  E(RB3LYP) =  -495.844610128     A.U. after   13 cycles
 SCF Done:  E(RB3LYP) =  -495.846483433     A.U. after   14 cycles
 SCF Done:  E(RB3LYP) =  -495.844095069     A.U. after   12 cycles
 SCF Done:  E(RB3LYP) =  -495.846514093     A.U. after   12 cycles
 SCF Done:  E(RB3LYP) =  -495.847152856     A.U. after   12 cycles
 SCF Done:  E(RB3LYP) =  -495.847525069     A.U. after   12 cycles
 SCF Done:  E(RB3LYP) =  -495.847247452     A.U. after   12 cycles
 SCF Done:  E(RB3LYP) =  -495.847574963     A.U. after   12 cycles
 SCF Done:  E(RB3LYP) =  -495.847808099     A.U. after   12 cycles
 SCF Done:  E(RB3LYP) =  -495.847863673     A.U. after   12 cycles
 SCF Done:  E(RB3LYP) =  -495.847874472     A.U. after   10 cycles
 SCF Done:  E(RB3LYP) =  -495.847878342     A.U. after   10 cycles
 SCF Done:  E(RB3LYP) =  -495.847881104     A.U. after   10 cycles
 SCF Done:  E(RB3LYP) =  -495.847884961     A.U. after   10 cycles
 SCF Done:  E(RB3LYP) =  -495.847887366     A.U. after   10 cycles
 SCF Done:  E(RB3LYP) =  -495.847887754     A.U. after    7 cycles
 SCF Done:  E(RB3LYP) =  -495.847888152     A.U. after    7 cycles
 SCF Done:  E(RB3LYP) =  -495.847888152     A.U. after    6 cycles
 Optimization completed.
    -- Stationary point found.

                         Standard orientation:
 ---------------------------------------------------------------------
 Center     Atomic      Atomic             Coordinates (Angstroms)
 Number     Number       Type             X           Y           Z
 ---------------------------------------------------------------------
      1          1           0       -3.522493   -1.729787    0.108732
      2          6           0       -3.003377   -0.908773    0.607886
      3          1           0       -2.765144   -1.233438    1.627676
      4          1           0       -3.667189   -0.040384    0.667362
      5          6           0       -1.709294   -0.622329   -0.136221
      6          8           0       -1.047279   -1.512918   -0.661380
      7          7           0       -1.346983    0.697924   -0.207615
      8          1           0       -1.841763    1.330241    0.409672
      9          6           0        0.018258    1.117647   -0.558360
     10          1           0        0.144654    0.953391   -1.635728
     11          6           0        0.187031    2.602300   -0.246061
     12          1           0        0.164229    2.759726    0.836636
     13          1           0        1.153257    2.959190   -0.614335
     14          1           0       -0.602662    3.191221   -0.725252
     15          6           0        1.095210    0.293132    0.195031
     16          8           0        1.373126    0.541774    1.363100
     17          7           0        1.743011   -0.640790   -0.558370
     18          1           0        1.182811   -1.025678   -1.310034
     19          6           0        2.678772   -1.556018    0.079637
     20          1           0        3.309469   -0.988782    0.765877
     21          1           0        2.163081   -2.338223    0.652165
     22          1           0        3.303172   -2.024009   -0.686119
 ---------------------------------------------------------------------

 The electronic state is 1-A.
 Alpha  occ. eigenvalues --  -19.11787 -19.10817 -14.36568 -14.34900 -10.29334
 Alpha  occ. eigenvalues --  -10.27705 -10.23739 -10.20774 -10.19600 -10.18924
 Alpha  occ. eigenvalues --   -1.03798  -1.02371  -0.92642  -0.91020  -0.78203
 Alpha  occ. eigenvalues --   -0.73169  -0.70414  -0.63772  -0.59162  -0.56364
 Alpha  occ. eigenvalues --   -0.52193  -0.49537  -0.48250  -0.46018  -0.44562
 Alpha  occ. eigenvalues --   -0.43527  -0.41946  -0.41533  -0.40436  -0.39021
 Alpha  occ. eigenvalues --   -0.38536  -0.38029  -0.37235  -0.35664  -0.35153
 Alpha  occ. eigenvalues --   -0.27635  -0.26174  -0.24824  -0.23183
 Alpha virt. eigenvalues --    0.01506   0.02757   0.07461   0.09910   0.11791
 Alpha virt. eigenvalues --    0.13008   0.13144   0.14798   0.15422   0.16314
 Alpha virt. eigenvalues --    0.16982   0.17477   0.18224   0.19154   0.20110

 Mulliken atomic charges:
              1
     1  H    0.188444
     2  C   -0.544767
     3  H    0.189174
     4  H    0.153497
     5  C    0.600571
     6  O   -0.522388
     7  N   -0.585607
     8  H    0.327424
     9  C   -0.015876
    10  H    0.151629
    11  C   -0.485627
    12  H    0.179592
    13  H    0.168842
    14  H    0.150173
    15  C    0.599677
    16  O   -0.526351
    17  N   -0.570438
    18  H    0.345705
    19  C   -0.307209
    20  H    0.186487
    21  H    0.166042
    22  H    0.151005
 Sum of Mulliken atomic charges =   0.00000

 Dipole moment (field-independent basis, Debye):
    X=             -1.6891    Y=              1.1271    Z=             -0.9678  Tot=              2.2494
 Quadrupole moment (field-independent basis, Debye-Ang):
   XX=            -53.3278   YY=            -58.4057   ZZ=            -62.8165
   XY=             -5.3296   XZ=             -6.7637   YZ=             -2.3749

 Normal termination of Gaussian 09 at Sat Feb 11 00:39:15 2017.
