 Gaussian 09, Revision A.02,
 Gaussian 09:  EM64L-G09RevA.02 11-Jun-2009

 ----------------------------------------------------------------------
 # b3lyp/6-31G* Opt=(ModRedundant, maxcycles=1000, calcfc) geom=nocrowd
 ----------------------------------------------------------------------

 ------------------
 Phi Psi fixed scan
 ------------------
 Symbolic Z-matrix:
 Charge =  0 Multiplicity = 1

 SCF Done:  E(RB3LYP) =  -495.834322440     A.U. after   15 cycles

  Exact polarizability:   0.000   0.000   0.000   0.000   0.000   0.000
 Approx polarizability: 115.457  -5.561 116.806 -15.806  -2.209 103.003

 SCF Done:  E(RB3LYP) =  -495.838099687     A.U. after   12 cycles
 SCF Done:  E(RB3LYP) =  -495.842589463     A.U. after   12 cycles
 SCF Done:  E(RB3LYP) =  -495.844206416     A.U. after   13 cycles
 SCF Done:  E(RB3LYP) =  -495.844760911     A.U. after   13 cycles
 SCF Done:  E(RB3LYP) =  -495.834512515     A.U. after   15 cycles
 SCF Done:  E(RB3LYP) =  -495.844891431     A.U. after   15 cycles
 SCF Done:  E(RB3LYP) =  -495.845494352     A.U. after   12 cycles
 SCF Done:  E(RB3LYP) =  -495.845086758     A.U. after   12 cycles
 SCF Done:  E(RB3LYP) =  -495.845793568     A.U. after   12 cycles
 SCF Done:  E(RB3LYP) =  -495.845792377     A.U. after   12 cycles
 SCF Done:  E(RB3LYP) =  -495.845873220     A.U. after   12 cycles
 SCF Done:  E(RB3LYP) =  -495.845895547     A.U. after   11 cycles
 SCF Done:  E(RB3LYP) =  -495.845899530     A.U. after   10 cycles
 SCF Done:  E(RB3LYP) =  -495.845901198     A.U. after   10 cycles
 SCF Done:  E(RB3LYP) =  -495.845903006     A.U. after    9 cycles
 SCF Done:  E(RB3LYP) =  -495.845905601     A.U. after    9 cycles
 SCF Done:  E(RB3LYP) =  -495.845911214     A.U. after   10 cycles
 SCF Done:  E(RB3LYP) =  -495.845911962     A.U. after   10 cycles
 SCF Done:  E(RB3LYP) =  -495.845911984     A.U. after    7 cycles
 Optimization completed.
    -- Stationary point found.

                         Standard orientation:
 ---------------------------------------------------------------------
 Center     Atomic      Atomic             Coordinates (Angstroms)
 Number     Number       Type             X           Y           Z
 ---------------------------------------------------------------------
      1          1           0       -3.651689   -1.581163   -0.060832
      2          6           0       -3.115364   -0.787164    0.462193
      3          1           0       -2.866355   -1.146857    1.467890
      4          1           0       -3.761950    0.091306    0.559673
      5          6           0       -1.826388   -0.486962   -0.281268
      6          8           0       -1.239908   -1.317427   -0.961016
      7          7           0       -1.361310    0.808659   -0.165988
      8          1           0       -1.740621    1.334560    0.612992
      9          6           0        0.045821    1.070923   -0.445237
     10          1           0        0.187546    1.026001   -1.532415
     11          6           0        0.420534    2.468587    0.059665
     12          1           0        0.329474    2.514402    1.151085
     13          1           0        1.455855    2.705398   -0.201722
     14          1           0       -0.232782    3.227261   -0.384376
     15          6           0        0.952373    0.012187    0.226496
     16          8           0        0.698028   -0.429689    1.338864
     17          7           0        2.119549   -0.238657   -0.437753
     18          1           0        2.141351   -0.029088   -1.426790
     19          6           0        3.064461   -1.230405    0.052855
     20          1           0        3.017734   -1.230033    1.142565
     21          1           0        2.823932   -2.240521   -0.303190
     22          1           0        4.076260   -0.967344   -0.269696
 ---------------------------------------------------------------------

 The electronic state is 1-A.
 Alpha  occ. eigenvalues --  -19.10726 -19.10650 -14.35858 -14.35292 -10.28123
 Alpha  occ. eigenvalues --  -10.27897 -10.23541 -10.21391 -10.19499 -10.18585
 Alpha  occ. eigenvalues --   -1.03314  -1.01976  -0.91769  -0.91596  -0.77945
 Alpha  occ. eigenvalues --   -0.72587  -0.70652  -0.63934  -0.58429  -0.57139
 Alpha  occ. eigenvalues --   -0.52261  -0.48834  -0.47653  -0.45662  -0.44202
 Alpha  occ. eigenvalues --   -0.43525  -0.42289  -0.41281  -0.39819  -0.39144
 Alpha  occ. eigenvalues --   -0.38636  -0.38208  -0.37630  -0.35780  -0.33795
 Alpha  occ. eigenvalues --   -0.26609  -0.25142  -0.24459  -0.23809
 Alpha virt. eigenvalues --    0.02193   0.03647   0.07556   0.08405   0.11992
 Alpha virt. eigenvalues --    0.12828   0.14240   0.14848   0.15178   0.16185
 Alpha virt. eigenvalues --    0.16344   0.17272   0.17921   0.18812   0.19933

 Mulliken atomic charges:
              1
     1  H    0.184378
     2  C   -0.551038
     3  H    0.191534
     4  H    0.152798
     5  C    0.608980
     6  O   -0.508447
     7  N   -0.580148
     8  H    0.322958
     9  C   -0.025542
    10  H    0.147985
    11  C   -0.477731
    12  H    0.166494
    13  H    0.164241
    14  H    0.162220
    15  C    0.632518
    16  O   -0.534206
    17  N   -0.591733
    18  H    0.326279
    19  C   -0.306148
    20  H    0.195837
    21  H    0.168128
    22  H    0.150642
 Sum of Mulliken atomic charges =   0.00000

 Dipole moment (field-independent basis, Debye):
    X=              0.7688    Y=              2.8319    Z=             -0.6841  Tot=              3.0131
 Quadrupole moment (field-independent basis, Debye-Ang):
   XX=            -48.7295   YY=            -59.6535   ZZ=            -62.2499
   XY=             -3.1666   XZ=             -7.4866   YZ=             -0.6475

 Normal termination of Gaussian 09 at Sat Feb 11 00:47:57 2017.
