 Gaussian 09, Revision A.02,
 Gaussian 09:  EM64L-G09RevA.02 11-Jun-2009

 ----------------------------------------------------------------------
 # b3lyp/6-31G* Opt=(ModRedundant, maxcycles=1000, calcfc) geom=nocrowd
 ----------------------------------------------------------------------

 ------------------
 Phi Psi fixed scan
 ------------------
 Symbolic Z-matrix:
 Charge =  0 Multiplicity = 1

 SCF Done:  E(RB3LYP) =  -495.812437739     A.U. after   15 cycles

  Exact polarizability:   0.000   0.000   0.000   0.000   0.000   0.000
 Approx polarizability: 108.980  -4.055 132.876   3.184  14.989  97.969

 SCF Done:  E(RB3LYP) =  -495.823190171     A.U. after   13 cycles
 SCF Done:  E(RB3LYP) =  -495.836128020     A.U. after   13 cycles
 SCF Done:  E(RB3LYP) =  -495.842759412     A.U. after   12 cycles
 SCF Done:  E(RB3LYP) =  -495.844726322     A.U. after   15 cycles
 SCF Done:  E(RB3LYP) =  -495.846044562     A.U. after   13 cycles
 SCF Done:  E(RB3LYP) =  -495.827807739     A.U. after   13 cycles
 SCF Done:  E(RB3LYP) =  -495.846841086     A.U. after   14 cycles
 SCF Done:  E(RB3LYP) =  -495.847590690     A.U. after   13 cycles
 SCF Done:  E(RB3LYP) =  -495.847679931     A.U. after   12 cycles
 SCF Done:  E(RB3LYP) =  -495.847940218     A.U. after   12 cycles
 SCF Done:  E(RB3LYP) =  -495.847991040     A.U. after   11 cycles
 SCF Done:  E(RB3LYP) =  -495.848010394     A.U. after   11 cycles
 SCF Done:  E(RB3LYP) =  -495.848018725     A.U. after    9 cycles
 SCF Done:  E(RB3LYP) =  -495.848021857     A.U. after    9 cycles
 SCF Done:  E(RB3LYP) =  -495.848023044     A.U. after    9 cycles
 SCF Done:  E(RB3LYP) =  -495.848023194     A.U. after    7 cycles
 SCF Done:  E(RB3LYP) =  -495.848023412     A.U. after    7 cycles
 SCF Done:  E(RB3LYP) =  -495.848023645     A.U. after    8 cycles
 SCF Done:  E(RB3LYP) =  -495.848023678     A.U. after    7 cycles
 Optimization completed.
    -- Stationary point found.

                         Standard orientation:
 ---------------------------------------------------------------------
 Center     Atomic      Atomic             Coordinates (Angstroms)
 Number     Number       Type             X           Y           Z
 ---------------------------------------------------------------------
      1          1           0       -3.747799   -1.316061    0.186995
      2          6           0       -3.074872   -0.636864    0.715194
      3          1           0       -2.848228   -1.085070    1.689561
      4          1           0       -3.581472    0.318901    0.881604
      5          6           0       -1.785957   -0.511522   -0.082903
      6          8           0       -1.298978   -1.487053   -0.654521
      7          7           0       -1.263387    0.749249   -0.152030
      8          1           0       -1.699627    1.421969    0.466692
      9          6           0        0.113875    1.127026   -0.543122
     10          1           0        0.182148    0.979616   -1.629413
     11          6           0        0.317384    2.604108   -0.223861
     12          1           0        0.329410    2.765001    0.858423
     13          1           0        1.280825    2.943579   -0.610133
     14          1           0       -0.475319    3.206204   -0.681389
     15          6           0        1.253104    0.272076    0.092534
     16          8           0        1.992385    0.754589    0.946724
     17          7           0        1.413789   -0.971780   -0.424643
     18          1           0        0.591396   -1.372630   -0.872813
     19          6           0        2.404471   -1.875571    0.137882
     20          1           0        3.334608   -1.328623    0.303872
     21          1           0        2.083293   -2.299746    1.098941
     22          1           0        2.582670   -2.691229   -0.567599
 ---------------------------------------------------------------------

 The electronic state is 1-A.
 Alpha  occ. eigenvalues --  -19.12616 -19.10487 -14.37453 -14.34169 -10.30226
 Alpha  occ. eigenvalues --  -10.27574 -10.24098 -10.20643 -10.20187 -10.18800
 Alpha  occ. eigenvalues --   -1.04375  -1.02151  -0.93364  -0.90529  -0.78529
 Alpha  occ. eigenvalues --   -0.73524  -0.70401  -0.63894  -0.59813  -0.56125
 Alpha  occ. eigenvalues --   -0.52395  -0.49992  -0.48712  -0.45806  -0.45100
 Alpha  occ. eigenvalues --   -0.43545  -0.41929  -0.41667  -0.41202  -0.38997
 Alpha  occ. eigenvalues --   -0.38600  -0.37659  -0.37298  -0.36177  -0.35361
 Alpha  occ. eigenvalues --   -0.28352  -0.26519  -0.24505  -0.23080
 Alpha virt. eigenvalues --    0.01076   0.02525   0.06877   0.10588   0.12044
 Alpha virt. eigenvalues --    0.12765   0.13658   0.14685   0.15223   0.16473
 Alpha virt. eigenvalues --    0.16905   0.16960   0.18488   0.18611   0.21388

 Mulliken atomic charges:
              1
     1  H    0.192017
     2  C   -0.539587
     3  H    0.188491
     4  H    0.153790
     5  C    0.600167
     6  O   -0.523385
     7  N   -0.595737
     8  H    0.329548
     9  C   -0.026486
    10  H    0.167423
    11  C   -0.473820
    12  H    0.172202
    13  H    0.177254
    14  H    0.145179
    15  C    0.587099
    16  O   -0.523569
    17  N   -0.593240
    18  H    0.370158
    19  C   -0.301227
    20  H    0.183442
    21  H    0.157894
    22  H    0.152387
 Sum of Mulliken atomic charges =   0.00000

 Dipole moment (field-independent basis, Debye):
    X=             -2.6974    Y=              0.8755    Z=             -0.0355  Tot=              2.8362
 Quadrupole moment (field-independent basis, Debye-Ang):
   XX=            -58.1836   YY=            -58.1945   ZZ=            -61.4791
   XY=             -7.0992   XZ=             -7.2638   YZ=             -2.9769

 Normal termination of Gaussian 09 at Sat Feb 11 00:57:08 2017.
