 Gaussian 09, Revision A.02,
 Gaussian 09:  EM64L-G09RevA.02 11-Jun-2009

 ----------------------------------------------------------------------
 # b3lyp/6-31G* Opt=(ModRedundant, maxcycles=1000, calcfc) geom=nocrowd
 ----------------------------------------------------------------------

 ------------------
 Phi Psi fixed scan
 ------------------
 Symbolic Z-matrix:
 Charge =  0 Multiplicity = 1

 SCF Done:  E(RB3LYP) =  -495.770827689     A.U. after   18 cycles

  Exact polarizability:   0.000   0.000   0.000   0.000   0.000   0.000
 Approx polarizability: 123.170   7.634 132.073   0.936  11.395  89.852

 SCF Done:  E(RB3LYP) =  -495.792142596     A.U. after   14 cycles
 SCF Done:  E(RB3LYP) =  -495.809303311     A.U. after   14 cycles
 SCF Done:  E(RB3LYP) =  -495.814768564     A.U. after   15 cycles
 SCF Done:  E(RB3LYP) =  -495.811018952     A.U. after   16 cycles
 SCF Done:  E(RB3LYP) =  -495.816073703     A.U. after   16 cycles
 SCF Done:  E(RB3LYP) =  -495.817157027     A.U. after   12 cycles
 SCF Done:  E(RB3LYP) =  -495.818044900     A.U. after   16 cycles
 SCF Done:  E(RB3LYP) =  -495.818067571     A.U. after   16 cycles
 SCF Done:  E(RB3LYP) =  -495.818202987     A.U. after   16 cycles
 SCF Done:  E(RB3LYP) =  -495.828120199     A.U. after   12 cycles
 SCF Done:  E(RB3LYP) =  -495.828236770     A.U. after   12 cycles
 SCF Done:  E(RB3LYP) =  -495.828304074     A.U. after   11 cycles
 SCF Done:  E(RB3LYP) =  -495.828345520     A.U. after   11 cycles
 SCF Done:  E(RB3LYP) =  -495.828352246     A.U. after   11 cycles
 SCF Done:  E(RB3LYP) =  -495.828359623     A.U. after   10 cycles
 SCF Done:  E(RB3LYP) =  -495.828363559     A.U. after   10 cycles
 SCF Done:  E(RB3LYP) =  -495.828364795     A.U. after    9 cycles
 SCF Done:  E(RB3LYP) =  -495.828365051     A.U. after    8 cycles
 SCF Done:  E(RB3LYP) =  -495.828365120     A.U. after    7 cycles
 Optimization completed.
    -- Stationary point found.

                         Standard orientation:
 ---------------------------------------------------------------------
 Center     Atomic      Atomic             Coordinates (Angstroms)
 Number     Number       Type             X           Y           Z
 ---------------------------------------------------------------------
      1          1           0       -3.705599   -1.245658    0.810609
      2          6           0       -2.873464   -0.615625    1.127937
      3          1           0       -2.246867   -1.186490    1.824516
      4          1           0       -3.260777    0.261409    1.660039
      5          6           0       -2.050379   -0.233133   -0.094320
      6          8           0       -2.154519   -0.800238   -1.162475
      7          7           0       -1.241485    0.900675    0.090217
      8          1           0       -1.247716    1.192702    1.064883
      9          6           0        0.122721    1.015213   -0.450368
     10          1           0        0.011939    1.064287   -1.542343
     11          6           0        0.716579    2.343972    0.024828
     12          1           0        0.918139    2.340166    1.103988
     13          1           0        1.647009    2.582631   -0.501524
     14          1           0        0.008487    3.151060   -0.184315
     15          6           0        0.984987   -0.263246   -0.229739
     16          8           0        0.540333   -1.385678   -0.410961
     17          7           0        2.262845   -0.045943    0.216351
     18          1           0        2.599913    0.898759    0.314994
     19          6           0        3.214959   -1.130936    0.387531
     20          1           0        2.659974   -2.066711    0.313243
     21          1           0        3.991273   -1.115682   -0.387904
     22          1           0        3.695779   -1.069737    1.370112
 ---------------------------------------------------------------------

 The electronic state is 1-A.
 Alpha  occ. eigenvalues --  -19.10926 -19.10065 -14.36575 -14.34971 -10.28639
 Alpha  occ. eigenvalues --  -10.27730 -10.24146 -10.21975 -10.20565 -10.18366
 Alpha  occ. eigenvalues --   -1.03403  -1.01702  -0.92213  -0.91421  -0.78273
 Alpha  occ. eigenvalues --   -0.72462  -0.70874  -0.65142  -0.58643  -0.57149
 Alpha  occ. eigenvalues --   -0.52646  -0.48080  -0.47109  -0.45699  -0.44833
 Alpha  occ. eigenvalues --   -0.43682  -0.43090  -0.41888  -0.40013  -0.39532
 Alpha  occ. eigenvalues --   -0.39024  -0.38606  -0.37927  -0.35459  -0.33886
 Alpha  occ. eigenvalues --   -0.27362  -0.25431  -0.24205  -0.22419
 Alpha virt. eigenvalues --    0.01544   0.03822   0.06587   0.08701   0.11244
 Alpha virt. eigenvalues --    0.12811   0.13340   0.13834   0.14352   0.15992
 Alpha virt. eigenvalues --    0.16173   0.16406   0.17947   0.18083   0.19389

 Mulliken atomic charges:
              1
     1  H    0.186455
     2  C   -0.552852
     3  H    0.178141
     4  H    0.153646
     5  C    0.603661
     6  O   -0.467457
     7  N   -0.587644
     8  H    0.304357
     9  C   -0.033099
    10  H    0.190643
    11  C   -0.505081
    12  H    0.152157
    13  H    0.157254
    14  H    0.182469
    15  C    0.594105
    16  O   -0.492585
    17  N   -0.599851
    18  H    0.326434
    19  C   -0.312305
    20  H    0.207995
    21  H    0.158972
    22  H    0.154584
 Sum of Mulliken atomic charges =   0.00000

 Dipole moment (field-independent basis, Debye):
    X=              3.4989    Y=              3.8817    Z=              3.5648  Tot=              6.3260
 Quadrupole moment (field-independent basis, Debye-Ang):
   XX=            -52.9871   YY=            -60.9272   ZZ=            -60.6799
   XY=             -0.3066   XZ=             -5.9463   YZ=             -2.8836

 Normal termination of Gaussian 09 at Sat Feb 11 01:16:31 2017.
