 Gaussian 09, Revision A.02,
 Gaussian 09:  EM64L-G09RevA.02 11-Jun-2009

 ----------------------------------------------------------------------
 # b3lyp/6-31G* Opt=(ModRedundant, maxcycles=1000, calcfc) geom=nocrowd
 ----------------------------------------------------------------------

 ------------------
 Phi Psi fixed scan
 ------------------
 Symbolic Z-matrix:
 Charge =  0 Multiplicity = 1

 SCF Done:  E(RB3LYP) =  -495.831584990     A.U. after   15 cycles

  Exact polarizability:   0.000   0.000   0.000   0.000   0.000   0.000
 Approx polarizability: 100.679   5.245 111.662  -8.837 -11.260 123.806

 SCF Done:  E(RB3LYP) =  -495.835728651     A.U. after   12 cycles
 SCF Done:  E(RB3LYP) =  -495.840428247     A.U. after   13 cycles
 SCF Done:  E(RB3LYP) =  -495.841697084     A.U. after   12 cycles
 SCF Done:  E(RB3LYP) =  -495.840030171     A.U. after   14 cycles
 SCF Done:  E(RB3LYP) =  -495.841019022     A.U. after   13 cycles
 SCF Done:  E(RB3LYP) =  -495.841724297     A.U. after   14 cycles
 SCF Done:  E(RB3LYP) =  -495.841974406     A.U. after   12 cycles
 SCF Done:  E(RB3LYP) =  -495.837735546     A.U. after   13 cycles
 SCF Done:  E(RB3LYP) =  -495.842084573     A.U. after   13 cycles
 SCF Done:  E(RB3LYP) =  -495.842183194     A.U. after   11 cycles
 SCF Done:  E(RB3LYP) =  -495.842211388     A.U. after   10 cycles
 SCF Done:  E(RB3LYP) =  -495.842241009     A.U. after   11 cycles
 SCF Done:  E(RB3LYP) =  -495.842269448     A.U. after   11 cycles
 SCF Done:  E(RB3LYP) =  -495.842276894     A.U. after   11 cycles
 SCF Done:  E(RB3LYP) =  -495.842277711     A.U. after    8 cycles
 SCF Done:  E(RB3LYP) =  -495.842277775     A.U. after    7 cycles
 SCF Done:  E(RB3LYP) =  -495.842277803     A.U. after    7 cycles
 Optimization completed.
    -- Stationary point found.

                         Standard orientation:
 ---------------------------------------------------------------------
 Center     Atomic      Atomic             Coordinates (Angstroms)
 Number     Number       Type             X           Y           Z
 ---------------------------------------------------------------------
      1          1           0        3.318704   -1.685943   -0.730524
      2          6           0        3.206251   -0.648264   -0.407550
      3          1           0        3.458292    0.019051   -1.238232
      4          1           0        3.920835   -0.476841    0.405477
      5          6           0        1.793089   -0.453012    0.125542
      6          8           0        1.232991   -1.293136    0.814832
      7          7           0        1.193820    0.731317   -0.225793
      8          1           0        1.755046    1.420184   -0.709157
      9          6           0       -0.070056    1.202709    0.348995
     10          1           0        0.087380    1.483637    1.397572
     11          6           0       -0.571090    2.421124   -0.431649
     12          1           0       -0.755821    2.176558   -1.482715
     13          1           0       -1.506653    2.781241    0.005722
     14          1           0        0.158142    3.239774   -0.385275
     15          6           0       -1.149089    0.098966    0.429417
     16          8           0       -1.760920   -0.101373    1.465990
     17          7           0       -1.501658   -0.451917   -0.776104
     18          1           0       -0.794935   -0.414550   -1.500369
     19          6           0       -2.420424   -1.580726   -0.818353
     20          1           0       -3.228258   -1.390625   -0.110342
     21          1           0       -2.834997   -1.674082   -1.826184
     22          1           0       -1.931521   -2.522902   -0.537687
 ---------------------------------------------------------------------

 The electronic state is 1-A.
 Alpha  occ. eigenvalues --  -19.11461 -19.10149 -14.36910 -14.35021 -10.29285
 Alpha  occ. eigenvalues --  -10.27579 -10.23627 -10.20810 -10.19857 -10.19811
 Alpha  occ. eigenvalues --   -1.03675  -1.02007  -0.92997  -0.90722  -0.78520
 Alpha  occ. eigenvalues --   -0.73452  -0.70028  -0.64612  -0.59681  -0.56777
 Alpha  occ. eigenvalues --   -0.51524  -0.50494  -0.47961  -0.45119  -0.44720
 Alpha  occ. eigenvalues --   -0.43351  -0.42413  -0.41839  -0.40367  -0.39450
 Alpha  occ. eigenvalues --   -0.38993  -0.38451  -0.37692  -0.35759  -0.34759
 Alpha  occ. eigenvalues --   -0.26611  -0.25098  -0.24699  -0.23524
 Alpha virt. eigenvalues --    0.02073   0.03211   0.06213   0.09257   0.11340
 Alpha virt. eigenvalues --    0.12519   0.13497   0.14673   0.15058   0.15400
 Alpha virt. eigenvalues --    0.16637   0.17595   0.18072   0.18785   0.19419

 Mulliken atomic charges:
              1
     1  H    0.188914
     2  C   -0.542488
     3  H    0.145213
     4  H    0.187971
     5  C    0.590607
     6  O   -0.488974
     7  N   -0.619700
     8  H    0.320735
     9  C   -0.017852
    10  H    0.174925
    11  C   -0.477764
    12  H    0.155986
    13  H    0.182200
    14  H    0.147602
    15  C    0.620723
    16  O   -0.512433
    17  N   -0.577755
    18  H    0.321011
    19  C   -0.305543
    20  H    0.192373
    21  H    0.145766
    22  H    0.168483
 Sum of Mulliken atomic charges =   0.00000

 Dipole moment (field-independent basis, Debye):
    X=              2.6204    Y=              2.5511    Z=             -4.6595  Tot=              5.9234
 Quadrupole moment (field-independent basis, Debye-Ang):
   XX=            -55.1889   YY=            -57.1342   ZZ=            -63.2042
   XY=              4.0922   XZ=              2.6618   YZ=              3.6823

 Normal termination of Gaussian 09 at Sat Feb 11 00:48:53 2017.
