 Gaussian 09, Revision A.02,
 Gaussian 09:  EM64L-G09RevA.02 11-Jun-2009

 ----------------------------------------------------------------------
 # b3lyp/6-31G* Opt=(ModRedundant, maxcycles=1000, calcfc) geom=nocrowd
 ----------------------------------------------------------------------

 ------------------
 Phi Psi fixed scan
 ------------------
 Symbolic Z-matrix:
 Charge =  0 Multiplicity = 1

 SCF Done:  E(RB3LYP) =  -495.795178444     A.U. after   14 cycles

  Exact polarizability:   0.000   0.000   0.000   0.000   0.000   0.000
 Approx polarizability: 121.980   5.957 124.964 -12.579   4.277  94.817

 SCF Done:  E(RB3LYP) =  -495.811687713     A.U. after   12 cycles
 SCF Done:  E(RB3LYP) =  -495.830252623     A.U. after   13 cycles
 SCF Done:  E(RB3LYP) =  -495.836876335     A.U. after   14 cycles
 SCF Done:  E(RB3LYP) =  -495.840649758     A.U. after   12 cycles
 SCF Done:  E(RB3LYP) =  -495.842954982     A.U. after   13 cycles
 SCF Done:  E(RB3LYP) =  -495.844132878     A.U. after   13 cycles
 SCF Done:  E(RB3LYP) =  -495.821114319     A.U. after   14 cycles
 SCF Done:  E(RB3LYP) =  -495.844214807     A.U. after   13 cycles
 SCF Done:  E(RB3LYP) =  -495.844398181     A.U. after   13 cycles
 SCF Done:  E(RB3LYP) =  -495.845220045     A.U. after   12 cycles
 SCF Done:  E(RB3LYP) =  -495.845366070     A.U. after   12 cycles
 SCF Done:  E(RB3LYP) =  -495.845388983     A.U. after   10 cycles
 SCF Done:  E(RB3LYP) =  -495.845361595     A.U. after   12 cycles
 SCF Done:  E(RB3LYP) =  -495.845405920     A.U. after   12 cycles
 SCF Done:  E(RB3LYP) =  -495.845419343     A.U. after   10 cycles
 SCF Done:  E(RB3LYP) =  -495.845421465     A.U. after   10 cycles
 SCF Done:  E(RB3LYP) =  -495.845422068     A.U. after    9 cycles
 SCF Done:  E(RB3LYP) =  -495.845422197     A.U. after    8 cycles
 SCF Done:  E(RB3LYP) =  -495.845422215     A.U. after    6 cycles
 Optimization completed.
    -- Stationary point found.

                         Standard orientation:
 ---------------------------------------------------------------------
 Center     Atomic      Atomic             Coordinates (Angstroms)
 Number     Number       Type             X           Y           Z
 ---------------------------------------------------------------------
      1          1           0       -3.426105   -1.300506    1.011915
      2          6           0       -3.308078   -0.434936    0.353373
      3          1           0       -3.613427    0.467946    0.890921
      4          1           0       -3.978217   -0.582178   -0.499480
      5          6           0       -1.875066   -0.404372   -0.159621
      6          8           0       -1.394567   -1.378040   -0.742398
      7          7           0       -1.203052    0.757180    0.061550
      8          1           0       -1.696293    1.455126    0.600744
      9          6           0        0.156242    1.162815   -0.342885
     10          1           0        0.134847    1.365174   -1.423072
     11          6           0        0.486945    2.475658    0.378992
     12          1           0        0.500792    2.327801    1.465377
     13          1           0        1.473352    2.816207    0.063871
     14          1           0       -0.251138    3.249545    0.136871
     15          6           0        1.358425    0.192884   -0.175941
     16          8           0        2.468002    0.630211   -0.468037
     17          7           0        1.155555   -1.042501    0.348308
     18          1           0        0.240768   -1.450204    0.166395
     19          6           0        2.285724   -1.957568    0.442051
     20          1           0        3.114291   -1.460206    0.950504
     21          1           0        1.979807   -2.833758    1.019300
     22          1           0        2.641180   -2.281955   -0.544693
 ---------------------------------------------------------------------

 The electronic state is 1-A.
 Alpha  occ. eigenvalues --  -19.12334 -19.10304 -14.37727 -14.34181 -10.30351
 Alpha  occ. eigenvalues --  -10.27781 -10.24397 -10.20548 -10.20362 -10.19194
 Alpha  occ. eigenvalues --   -1.04368  -1.02240  -0.93600  -0.90440  -0.78762
 Alpha  occ. eigenvalues --   -0.73678  -0.70061  -0.64444  -0.60318  -0.56398
 Alpha  occ. eigenvalues --   -0.52313  -0.50536  -0.48503  -0.45889  -0.45197
 Alpha  occ. eigenvalues --   -0.43061  -0.42265  -0.41683  -0.41093  -0.39656
 Alpha  occ. eigenvalues --   -0.38942  -0.38102  -0.37479  -0.36343  -0.34309
 Alpha  occ. eigenvalues --   -0.27397  -0.26664  -0.24667  -0.23484
 Alpha virt. eigenvalues --    0.01056   0.03106   0.06063   0.11130   0.11836
 Alpha virt. eigenvalues --    0.12558   0.13848   0.15240   0.15374   0.16120
 Alpha virt. eigenvalues --    0.16612   0.17237   0.18494   0.18782   0.19981

 Mulliken atomic charges:
              1
     1  H    0.188737
     2  C   -0.533531
     3  H    0.146896
     4  H    0.192551
     5  C    0.596936
     6  O   -0.531543
     7  N   -0.613814
     8  H    0.332152
     9  C   -0.002060
    10  H    0.181559
    11  C   -0.489705
    12  H    0.157537
    13  H    0.203964
    14  H    0.143711
    15  C    0.599799
    16  O   -0.528501
    17  N   -0.609200
    18  H    0.373061
    19  C   -0.300375
    20  H    0.179361
    21  H    0.148737
    22  H    0.163727
 Sum of Mulliken atomic charges =   0.00000

 Dipole moment (field-independent basis, Debye):
    X=             -3.6531    Y=              1.2657    Z=              2.1315  Tot=              4.4148
 Quadrupole moment (field-independent basis, Debye-Ang):
   XX=            -60.9458   YY=            -56.8752   ZZ=            -60.7984
   XY=             -7.6658   XZ=             -0.5014   YZ=             -1.5033

 Normal termination of Gaussian 09 at Sat Feb 11 00:51:31 2017.
