 Gaussian 09, Revision A.02,
 Gaussian 09:  EM64L-G09RevA.02 11-Jun-2009

 ----------------------------------------------------------------------
 # b3lyp/6-31G* Opt=(ModRedundant, maxcycles=1000, calcfc) geom=nocrowd
 ----------------------------------------------------------------------

 ------------------
 Phi Psi fixed scan
 ------------------
 Symbolic Z-matrix:
 Charge =  0 Multiplicity = 1

 SCF Done:  E(RB3LYP) =  -495.839254912     A.U. after   14 cycles

  Exact polarizability:   0.000   0.000   0.000   0.000   0.000   0.000
 Approx polarizability: 109.206 -13.334 116.869  -9.729   6.695 109.737

 SCF Done:  E(RB3LYP) =  -495.841974928     A.U. after   11 cycles
 SCF Done:  E(RB3LYP) =  -495.845247181     A.U. after   12 cycles
 SCF Done:  E(RB3LYP) =  -495.846662559     A.U. after   12 cycles
 SCF Done:  E(RB3LYP) =  -495.835505422     A.U. after   13 cycles
 SCF Done:  E(RB3LYP) =  -495.846677641     A.U. after   13 cycles
 SCF Done:  E(RB3LYP) =  -495.847188211     A.U. after   12 cycles
 SCF Done:  E(RB3LYP) =  -495.840379442     A.U. after   13 cycles
 SCF Done:  E(RB3LYP) =  -495.847352077     A.U. after   13 cycles
 SCF Done:  E(RB3LYP) =  -495.847632054     A.U. after   12 cycles
 SCF Done:  E(RB3LYP) =  -495.847710879     A.U. after   11 cycles
 SCF Done:  E(RB3LYP) =  -495.847726111     A.U. after   10 cycles
 SCF Done:  E(RB3LYP) =  -495.847735430     A.U. after   11 cycles
 SCF Done:  E(RB3LYP) =  -495.847741375     A.U. after   10 cycles
 SCF Done:  E(RB3LYP) =  -495.847749667     A.U. after   10 cycles
 SCF Done:  E(RB3LYP) =  -495.847757633     A.U. after   10 cycles
 SCF Done:  E(RB3LYP) =  -495.847760232     A.U. after   10 cycles
 SCF Done:  E(RB3LYP) =  -495.847761852     A.U. after    9 cycles
 SCF Done:  E(RB3LYP) =  -495.847763594     A.U. after   10 cycles
 SCF Done:  E(RB3LYP) =  -495.847763656     A.U. after    7 cycles
 Optimization completed.
    -- Stationary point found.

                         Standard orientation:
 ---------------------------------------------------------------------
 Center     Atomic      Atomic             Coordinates (Angstroms)
 Number     Number       Type             X           Y           Z
 ---------------------------------------------------------------------
      1          1           0       -3.525610   -1.753235   -0.031518
      2          6           0       -3.036895   -0.936281    0.503866
      3          1           0       -2.834393   -1.278604    1.525534
      4          1           0       -3.713130   -0.076853    0.553433
      5          6           0       -1.717914   -0.619468   -0.180479
      6          8           0       -1.014038   -1.485897   -0.688647
      7          7           0       -1.367158    0.706497   -0.213750
      8          1           0       -1.869905    1.326652    0.408760
      9          6           0        0.005623    1.104944   -0.534450
     10          1           0        0.150628    0.969585   -1.613639
     11          6           0        0.209595    2.576247   -0.173453
     12          1           0        0.146728    2.703478    0.912062
     13          1           0        1.199676    2.912202   -0.495978
     14          1           0       -0.542779    3.204908   -0.662289
     15          6           0        1.032067    0.235809    0.231178
     16          8           0        1.101848    0.282648    1.453337
     17          7           0        1.893623   -0.475145   -0.552836
     18          1           0        1.530431   -0.733886   -1.461368
     19          6           0        2.820866   -1.415197    0.061143
     20          1           0        3.264081   -0.943200    0.939349
     21          1           0        2.317329   -2.336466    0.381797
     22          1           0        3.609145   -1.664373   -0.654384
 ---------------------------------------------------------------------

 The electronic state is 1-A.
 Alpha  occ. eigenvalues --  -19.11329 -19.10666 -14.36117 -14.35201 -10.28853
 Alpha  occ. eigenvalues --  -10.27679 -10.23616 -10.20895 -10.19258 -10.19074
 Alpha  occ. eigenvalues --   -1.03533  -1.02212  -0.92282  -0.91166  -0.78071
 Alpha  occ. eigenvalues --   -0.72959  -0.70419  -0.63795  -0.58873  -0.56709
 Alpha  occ. eigenvalues --   -0.52123  -0.49382  -0.48003  -0.45894  -0.44296
 Alpha  occ. eigenvalues --   -0.43495  -0.41936  -0.41419  -0.40056  -0.39066
 Alpha  occ. eigenvalues --   -0.38507  -0.38170  -0.37285  -0.35752  -0.34539
 Alpha  occ. eigenvalues --   -0.27076  -0.25759  -0.24743  -0.23337
 Alpha virt. eigenvalues --    0.01775   0.03302   0.07662   0.09049   0.11818
 Alpha virt. eigenvalues --    0.13032   0.13326   0.14932   0.15523   0.16212
 Alpha virt. eigenvalues --    0.16804   0.17689   0.18315   0.19226   0.19954

 Mulliken atomic charges:
              1
     1  H    0.186736
     2  C   -0.545726
     3  H    0.190301
     4  H    0.151665
     5  C    0.604916
     6  O   -0.521730
     7  N   -0.583938
     8  H    0.327120
     9  C   -0.011712
    10  H    0.144384
    11  C   -0.487450
    12  H    0.177871
    13  H    0.167771
    14  H    0.153015
    15  C    0.616934
    16  O   -0.533716
    17  N   -0.574018
    18  H    0.336957
    19  C   -0.306936
    20  H    0.187888
    21  H    0.169981
    22  H    0.149687
 Sum of Mulliken atomic charges =   0.00000

 Dipole moment (field-independent basis, Debye):
    X=             -1.0440    Y=              1.5944    Z=             -1.3129  Tot=              2.3142
 Quadrupole moment (field-independent basis, Debye-Ang):
   XX=            -51.2331   YY=            -58.5605   ZZ=            -62.7680
   XY=             -4.6348   XZ=             -6.6391   YZ=             -1.5893

 Normal termination of Gaussian 09 at Sat Feb 11 00:40:31 2017.
