 Gaussian 09, Revision A.02,
 Gaussian 09:  EM64L-G09RevA.02 11-Jun-2009

 ----------------------------------------------------------------------
 # b3lyp/6-31G* Opt=(ModRedundant, maxcycles=1000, calcfc) geom=nocrowd
 ----------------------------------------------------------------------

 ------------------
 Phi Psi fixed scan
 ------------------
 Symbolic Z-matrix:
 Charge =  0 Multiplicity = 1

 SCF Done:  E(RB3LYP) =  -495.833643200     A.U. after   15 cycles

  Exact polarizability:   0.000   0.000   0.000   0.000   0.000   0.000
 Approx polarizability: 109.171   0.156 115.959 -17.782  -3.350 111.370

 SCF Done:  E(RB3LYP) =  -495.837983918     A.U. after   12 cycles
 SCF Done:  E(RB3LYP) =  -495.842694640     A.U. after   12 cycles
 SCF Done:  E(RB3LYP) =  -495.843592522     A.U. after   13 cycles
 SCF Done:  E(RB3LYP) =  -495.842329290     A.U. after   12 cycles
 SCF Done:  E(RB3LYP) =  -495.843652962     A.U. after   12 cycles
 SCF Done:  E(RB3LYP) =  -495.843814864     A.U. after   12 cycles
 SCF Done:  E(RB3LYP) =  -495.842073044     A.U. after   13 cycles
 SCF Done:  E(RB3LYP) =  -495.843922949     A.U. after   13 cycles
 SCF Done:  E(RB3LYP) =  -495.844007050     A.U. after   11 cycles
 SCF Done:  E(RB3LYP) =  -495.844036879     A.U. after   11 cycles
 SCF Done:  E(RB3LYP) =  -495.844054251     A.U. after   11 cycles
 SCF Done:  E(RB3LYP) =  -495.844064760     A.U. after   10 cycles
 SCF Done:  E(RB3LYP) =  -495.844071330     A.U. after   10 cycles
 SCF Done:  E(RB3LYP) =  -495.844075983     A.U. after   10 cycles
 SCF Done:  E(RB3LYP) =  -495.844079441     A.U. after   10 cycles
 SCF Done:  E(RB3LYP) =  -495.844079945     A.U. after    9 cycles
 SCF Done:  E(RB3LYP) =  -495.844080070     A.U. after    8 cycles
 SCF Done:  E(RB3LYP) =  -495.844080112     A.U. after    7 cycles
 Optimization completed.
    -- Stationary point found.

                         Standard orientation:
 ---------------------------------------------------------------------
 Center     Atomic      Atomic             Coordinates (Angstroms)
 Number     Number       Type             X           Y           Z
 ---------------------------------------------------------------------
      1          1           0        3.310754   -1.610150   -0.666588
      2          6           0        3.207213   -0.573307   -0.336499
      3          1           0        3.453904    0.096498   -1.166638
      4          1           0        3.933133   -0.412450    0.468010
      5          6           0        1.804052   -0.373791    0.222663
      6          8           0        1.284929   -1.184499    0.979853
      7          7           0        1.183587    0.787049   -0.157496
      8          1           0        1.667989    1.395609   -0.802613
      9          6           0       -0.143966    1.218879    0.285434
     10          1           0       -0.085819    1.523061    1.337202
     11          6           0       -0.589305    2.423700   -0.552659
     12          1           0       -0.684070    2.151816   -1.610281
     13          1           0       -1.561687    2.770778   -0.195766
     14          1           0        0.125975    3.250088   -0.462287
     15          6           0       -1.270236    0.160677    0.282330
     16          8           0       -2.233720    0.339176    1.016366
     17          7           0       -1.197847   -0.837191   -0.643077
     18          1           0       -0.281540   -1.046581   -1.010284
     19          6           0       -2.163494   -1.925389   -0.630336
     20          1           0       -3.127971   -1.521253   -0.320878
     21          1           0       -2.250866   -2.351120   -1.634383
     22          1           0       -1.875240   -2.717328    0.073166
 ---------------------------------------------------------------------

 The electronic state is 1-A.
 Alpha  occ. eigenvalues --  -19.11657 -19.10260 -14.37201 -14.35112 -10.29604
 Alpha  occ. eigenvalues --  -10.27786 -10.23828 -10.20856 -10.20127 -10.19603
 Alpha  occ. eigenvalues --   -1.03876  -1.02208  -0.93208  -0.90903  -0.78589
 Alpha  occ. eigenvalues --   -0.73579  -0.70293  -0.64553  -0.59930  -0.57220
 Alpha  occ. eigenvalues --   -0.52218  -0.50309  -0.48183  -0.45490  -0.45050
 Alpha  occ. eigenvalues --   -0.43349  -0.42528  -0.41800  -0.40610  -0.39433
 Alpha  occ. eigenvalues --   -0.39096  -0.38365  -0.37794  -0.36183  -0.34377
 Alpha  occ. eigenvalues --   -0.27027  -0.25864  -0.24566  -0.23518
 Alpha virt. eigenvalues --    0.01738   0.03215   0.06047   0.10211   0.11086
 Alpha virt. eigenvalues --    0.12459   0.14082   0.14325   0.15128   0.15831
 Alpha virt. eigenvalues --    0.16700   0.17338   0.17715   0.18672   0.19231

 Mulliken atomic charges:
              1
     1  H    0.185986
     2  C   -0.538583
     3  H    0.144566
     4  H    0.191388
     5  C    0.574685
     6  O   -0.501992
     7  N   -0.623615
     8  H    0.325941
     9  C    0.006336
    10  H    0.181180
    11  C   -0.488823
    12  H    0.156394
    13  H    0.192550
    14  H    0.150537
    15  C    0.617030
    16  O   -0.528449
    17  N   -0.577855
    18  H    0.330534
    19  C   -0.309111
    20  H    0.193958
    21  H    0.147485
    22  H    0.169856
 Sum of Mulliken atomic charges =   0.00000

 Dipole moment (field-independent basis, Debye):
    X=              3.3114    Y=              1.3870    Z=             -4.1131  Tot=              5.4596
 Quadrupole moment (field-independent basis, Debye-Ang):
   XX=            -59.3412   YY=            -55.7187   ZZ=            -62.6551
   XY=              5.3148   XZ=              1.2185   YZ=              2.4324

 Normal termination of Gaussian 09 at Sat Feb 11 00:52:42 2017.
