 Gaussian 09, Revision A.02,
 Gaussian 09:  EM64L-G09RevA.02 11-Jun-2009

 ----------------------------------------------------------------------
 # b3lyp/6-31G* Opt=(ModRedundant, maxcycles=1000, calcfc) geom=nocrowd
 ----------------------------------------------------------------------

 ------------------
 Phi Psi fixed scan
 ------------------
 Symbolic Z-matrix:
 Charge =  0 Multiplicity = 1

 SCF Done:  E(RB3LYP) =  -495.829981818     A.U. after   15 cycles

  Exact polarizability:   0.000   0.000   0.000   0.000   0.000   0.000
 Approx polarizability: 105.842 -10.464 127.332  -0.320  14.656 103.796

 SCF Done:  E(RB3LYP) =  -495.836256949     A.U. after   13 cycles
 SCF Done:  E(RB3LYP) =  -495.843476182     A.U. after   13 cycles
 SCF Done:  E(RB3LYP) =  -495.842163485     A.U. after   15 cycles
 SCF Done:  E(RB3LYP) =  -495.844361512     A.U. after   14 cycles
 SCF Done:  E(RB3LYP) =  -495.845499427     A.U. after   12 cycles
 SCF Done:  E(RB3LYP) =  -495.847028197     A.U. after   13 cycles
 SCF Done:  E(RB3LYP) =  -495.847190225     A.U. after   13 cycles
 SCF Done:  E(RB3LYP) =  -495.846589969     A.U. after   13 cycles
 SCF Done:  E(RB3LYP) =  -495.847376865     A.U. after   12 cycles
 SCF Done:  E(RB3LYP) =  -495.847873318     A.U. after   11 cycles
 SCF Done:  E(RB3LYP) =  -495.847903347     A.U. after   11 cycles
 SCF Done:  E(RB3LYP) =  -495.847920518     A.U. after   10 cycles
 SCF Done:  E(RB3LYP) =  -495.847955884     A.U. after   11 cycles
 SCF Done:  E(RB3LYP) =  -495.848009508     A.U. after   11 cycles
 SCF Done:  E(RB3LYP) =  -495.848046714     A.U. after   11 cycles
 SCF Done:  E(RB3LYP) =  -495.848051119     A.U. after   10 cycles
 SCF Done:  E(RB3LYP) =  -495.848052191     A.U. after    9 cycles
 SCF Done:  E(RB3LYP) =  -495.848052428     A.U. after    9 cycles
 SCF Done:  E(RB3LYP) =  -495.848052459     A.U. after    6 cycles
 Optimization completed.
    -- Stationary point found.

                         Standard orientation:
 ---------------------------------------------------------------------
 Center     Atomic      Atomic             Coordinates (Angstroms)
 Number     Number       Type             X           Y           Z
 ---------------------------------------------------------------------
      1          1           0       -3.618164   -1.552331    0.192904
      2          6           0       -3.018057   -0.788790    0.692607
      3          1           0       -2.761154   -1.165492    1.689638
      4          1           0       -3.612908    0.122570    0.809349
      5          6           0       -1.738959   -0.575526   -0.101407
      6          8           0       -1.165086   -1.509227   -0.658333
      7          7           0       -1.307970    0.721385   -0.184871
      8          1           0       -1.770778    1.372321    0.438212
      9          6           0        0.061466    1.124962   -0.561760
     10          1           0        0.158726    0.954130   -1.641373
     11          6           0        0.239425    2.610056   -0.264080
     12          1           0        0.247611    2.779771    0.816722
     13          1           0        1.196992    2.961805   -0.657157
     14          1           0       -0.561671    3.194656   -0.729323
     15          6           0        1.174004    0.298053    0.145241
     16          8           0        1.689005    0.695222    1.186028
     17          7           0        1.572636   -0.822087   -0.517604
     18          1           0        0.849717   -1.242276   -1.095077
     19          6           0        2.528937   -1.726413    0.104048
     20          1           0        3.341748   -1.139324    0.534918
     21          1           0        2.074393   -2.322819    0.906433
     22          1           0        2.930574   -2.400118   -0.657386
 ---------------------------------------------------------------------

 The electronic state is 1-A.
 Alpha  occ. eigenvalues --  -19.12282 -19.10757 -14.37060 -14.34520 -10.29846
 Alpha  occ. eigenvalues --  -10.27665 -10.23905 -10.20697 -10.19944 -10.18832
 Alpha  occ. eigenvalues --   -1.04124  -1.02342  -0.93043  -0.90789  -0.78374
 Alpha  occ. eigenvalues --   -0.73384  -0.70410  -0.63806  -0.59506  -0.56116
 Alpha  occ. eigenvalues --   -0.52295  -0.49762  -0.48522  -0.45988  -0.44868
 Alpha  occ. eigenvalues --   -0.43542  -0.41946  -0.41639  -0.40893  -0.38976
 Alpha  occ. eigenvalues --   -0.38557  -0.37841  -0.37278  -0.35746  -0.35515
 Alpha  occ. eigenvalues --   -0.28115  -0.26434  -0.24776  -0.23111
 Alpha virt. eigenvalues --    0.01271   0.02379   0.07162   0.10486   0.11962
 Alpha virt. eigenvalues --    0.12806   0.13362   0.14731   0.15310   0.16444
 Alpha virt. eigenvalues --    0.17005   0.17203   0.18262   0.18860   0.20749

 Mulliken atomic charges:
              1
     1  H    0.190415
     2  C   -0.542302
     3  H    0.188662
     4  H    0.154179
     5  C    0.599161
     6  O   -0.521913
     7  N   -0.589775
     8  H    0.328105
     9  C   -0.021739
    10  H    0.160448
    11  C   -0.480012
    12  H    0.177742
    13  H    0.171624
    14  H    0.147630
    15  C    0.587677
    16  O   -0.521989
    17  N   -0.579139
    18  H    0.358023
    19  C   -0.304663
    20  H    0.184758
    21  H    0.161063
    22  H    0.152047
 Sum of Mulliken atomic charges =   0.00000

 Dipole moment (field-independent basis, Debye):
    X=             -2.2430    Y=              0.9060    Z=             -0.4768  Tot=              2.4656
 Quadrupole moment (field-independent basis, Debye-Ang):
   XX=            -55.7565   YY=            -58.3190   ZZ=            -62.3826
   XY=             -6.1884   XZ=             -7.1340   YZ=             -2.9156

 Normal termination of Gaussian 09 at Sat Feb 11 01:08:49 2017.
