 Gaussian 09, Revision A.02,
 Gaussian 09:  EM64L-G09RevA.02 11-Jun-2009

 ----------------------------------------------------------------------
 # b3lyp/6-31G* Opt=(ModRedundant, maxcycles=1000, calcfc) geom=nocrowd
 ----------------------------------------------------------------------

 ------------------
 Phi Psi fixed scan
 ------------------
 Symbolic Z-matrix:
 Charge =  0 Multiplicity = 1

 SCF Done:  E(RB3LYP) =  -495.813122591     A.U. after   16 cycles

  Exact polarizability:   0.000   0.000   0.000   0.000   0.000   0.000
 Approx polarizability: 103.444  -1.417 122.220   4.102  20.417 111.608

 SCF Done:  E(RB3LYP) =  -495.820837661     A.U. after   17 cycles
 SCF Done:  E(RB3LYP) =  -495.828826174     A.U. after   15 cycles
 SCF Done:  E(RB3LYP) =  -495.831105716     A.U. after   14 cycles
 SCF Done:  E(RB3LYP) =  -495.828296714     A.U. after   16 cycles
 SCF Done:  E(RB3LYP) =  -495.831219954     A.U. after   16 cycles
 SCF Done:  E(RB3LYP) =  -495.831674877     A.U. after   12 cycles
 SCF Done:  E(RB3LYP) =  -495.832038378     A.U. after   13 cycles
 SCF Done:  E(RB3LYP) =  -495.831595493     A.U. after   14 cycles
 SCF Done:  E(RB3LYP) =  -495.832158507     A.U. after   13 cycles
 SCF Done:  E(RB3LYP) =  -495.832670443     A.U. after   11 cycles
 SCF Done:  E(RB3LYP) =  -495.832669129     A.U. after   12 cycles
 SCF Done:  E(RB3LYP) =  -495.832710963     A.U. after   12 cycles
 SCF Done:  E(RB3LYP) =  -495.832713535     A.U. after   12 cycles
 SCF Done:  E(RB3LYP) =  -495.832721728     A.U. after   10 cycles
 SCF Done:  E(RB3LYP) =  -495.832723166     A.U. after    9 cycles
 SCF Done:  E(RB3LYP) =  -495.832722723     A.U. after   10 cycles
 SCF Done:  E(RB3LYP) =  -495.832723872     A.U. after    8 cycles
 SCF Done:  E(RB3LYP) =  -495.832723908     A.U. after    8 cycles
 SCF Done:  E(RB3LYP) =  -495.832723919     A.U. after    7 cycles
 Optimization completed.
    -- Stationary point found.

                         Standard orientation:
 ---------------------------------------------------------------------
 Center     Atomic      Atomic             Coordinates (Angstroms)
 Number     Number       Type             X           Y           Z
 ---------------------------------------------------------------------
      1          1           0        3.527212   -1.381404   -1.141436
      2          6           0        3.330191   -0.430261   -0.641756
      3          1           0        3.482341    0.389255   -1.352304
      4          1           0        4.059330   -0.325000    0.169871
      5          6           0        1.925196   -0.477690   -0.046738
      6          8           0        1.471454   -1.488417    0.462358
      7          7           0        1.232441    0.706569   -0.135612
      8          1           0        1.736299    1.501673   -0.504806
      9          6           0       -0.038469    1.029151    0.526405
     10          1           0        0.135103    1.093319    1.608708
     11          6           0       -0.526834    2.391608    0.026884
     12          1           0       -0.670241    2.407338   -1.059868
     13          1           0       -1.475737    2.655352    0.501032
     14          1           0        0.203220    3.171161    0.277412
     15          6           0       -1.106341   -0.097885    0.436292
     16          8           0       -1.312942   -0.847269    1.374628
     17          7           0       -1.938447   -0.036931   -0.655222
     18          1           0       -1.590793    0.439632   -1.476993
     19          6           0       -2.938426   -1.072997   -0.872507
     20          1           0       -3.396617   -1.311896    0.088200
     21          1           0       -3.703033   -0.698140   -1.558792
     22          1           0       -2.505043   -1.994827   -1.282553
 ---------------------------------------------------------------------

 The electronic state is 1-A.
 Alpha  occ. eigenvalues --  -19.10394 -19.10320 -14.36250 -14.35657 -10.28440
 Alpha  occ. eigenvalues --  -10.27851 -10.23899 -10.21262 -10.20256 -10.19143
 Alpha  occ. eigenvalues --   -1.02929  -1.02035  -0.92431  -0.91113  -0.78483
 Alpha  occ. eigenvalues --   -0.72890  -0.70250  -0.64992  -0.59236  -0.57220
 Alpha  occ. eigenvalues --   -0.51226  -0.50555  -0.47213  -0.44937  -0.44304
 Alpha  occ. eigenvalues --   -0.43879  -0.42579  -0.41776  -0.40026  -0.39365
 Alpha  occ. eigenvalues --   -0.38874  -0.38552  -0.37779  -0.35634  -0.34661
 Alpha  occ. eigenvalues --   -0.26317  -0.24755  -0.23863  -0.23506
 Alpha virt. eigenvalues --    0.02428   0.03109   0.06164   0.08085   0.11361
 Alpha virt. eigenvalues --    0.12776   0.12948   0.13869   0.15428   0.16057
 Alpha virt. eigenvalues --    0.16521   0.17719   0.18132   0.18866   0.20041

 Mulliken atomic charges:
              1
     1  H    0.187720
     2  C   -0.542603
     3  H    0.141764
     4  H    0.183641
     5  C    0.588428
     6  O   -0.480470
     7  N   -0.614739
     8  H    0.317653
     9  C   -0.015745
    10  H    0.176260
    11  C   -0.484497
    12  H    0.143930
    13  H    0.180898
    14  H    0.153110
    15  C    0.617855
    16  O   -0.492886
    17  N   -0.585472
    18  H    0.320384
    19  C   -0.303728
    20  H    0.195783
    21  H    0.147379
    22  H    0.165335
 Sum of Mulliken atomic charges =   0.00000

 Dipole moment (field-independent basis, Debye):
    X=              0.6863    Y=              4.6318    Z=             -4.0046  Tot=              6.1613
 Quadrupole moment (field-independent basis, Debye-Ang):
   XX=            -51.7493   YY=            -61.0198   ZZ=            -60.8230
   XY=              3.6198   XZ=              2.7681   YZ=              4.2998

 Normal termination of Gaussian 09 at Sat Feb 11 00:54:45 2017.
