 Gaussian 09, Revision A.02,
 Gaussian 09:  EM64L-G09RevA.02 11-Jun-2009

 ----------------------------------------------------------------------
 # b3lyp/6-31G* Opt=(ModRedundant, maxcycles=1000, calcfc) geom=nocrowd
 ----------------------------------------------------------------------

 ------------------
 Phi Psi fixed scan
 ------------------
 Symbolic Z-matrix:
 Charge =  0 Multiplicity = 1

 SCF Done:  E(RB3LYP) =  -495.822700965     A.U. after   14 cycles

  Exact polarizability:   0.000   0.000   0.000   0.000   0.000   0.000
 Approx polarizability: 115.046   2.973 120.605 -17.000   3.394 102.300

 SCF Done:  E(RB3LYP) =  -495.830508723     A.U. after   12 cycles
 SCF Done:  E(RB3LYP) =  -495.839874875     A.U. after   14 cycles
 SCF Done:  E(RB3LYP) =  -495.842675069     A.U. after   14 cycles
 SCF Done:  E(RB3LYP) =  -495.842514171     A.U. after   15 cycles
 SCF Done:  E(RB3LYP) =  -495.843141501     A.U. after   12 cycles
 SCF Done:  E(RB3LYP) =  -495.829689824     A.U. after   13 cycles
 SCF Done:  E(RB3LYP) =  -495.843269425     A.U. after   14 cycles
 SCF Done:  E(RB3LYP) =  -495.843668807     A.U. after   12 cycles
 SCF Done:  E(RB3LYP) =  -495.844084188     A.U. after   13 cycles
 SCF Done:  E(RB3LYP) =  -495.844302154     A.U. after   11 cycles
 SCF Done:  E(RB3LYP) =  -495.844316080     A.U. after   11 cycles
 SCF Done:  E(RB3LYP) =  -495.844326947     A.U. after   10 cycles
 SCF Done:  E(RB3LYP) =  -495.844351900     A.U. after   11 cycles
 SCF Done:  E(RB3LYP) =  -495.844380639     A.U. after   11 cycles
 SCF Done:  E(RB3LYP) =  -495.844408686     A.U. after   11 cycles
 SCF Done:  E(RB3LYP) =  -495.844411843     A.U. after   10 cycles
 SCF Done:  E(RB3LYP) =  -495.844412103     A.U. after    9 cycles
 SCF Done:  E(RB3LYP) =  -495.844412150     A.U. after    7 cycles
 SCF Done:  E(RB3LYP) =  -495.844412153     A.U. after    7 cycles
 Optimization completed.
    -- Stationary point found.

                         Standard orientation:
 ---------------------------------------------------------------------
 Center     Atomic      Atomic             Coordinates (Angstroms)
 Number     Number       Type             X           Y           Z
 ---------------------------------------------------------------------
      1          1           0       -3.452560   -1.428177    0.824433
      2          6           0       -3.304316   -0.480148    0.300246
      3          1           0       -3.601485    0.344066    0.956051
      4          1           0       -3.961517   -0.485960   -0.575790
      5          6           0       -1.860480   -0.406189   -0.177394
      6          8           0       -1.341223   -1.339119   -0.788428
      7          7           0       -1.207716    0.753330    0.114702
      8          1           0       -1.719138    1.438800    0.653056
      9          6           0        0.133071    1.178416   -0.313273
     10          1           0        0.084908    1.450380   -1.375868
     11          6           0        0.519252    2.430059    0.487276
     12          1           0        0.590937    2.199165    1.556343
     13          1           0        1.489217    2.790117    0.141135
     14          1           0       -0.220840    3.227271    0.346507
     15          6           0        1.316914    0.181911   -0.243888
     16          8           0        2.374455    0.542008   -0.749296
     17          7           0        1.183974   -0.960219    0.487545
     18          1           0        0.260197   -1.377868    0.456082
     19          6           0        2.303418   -1.894184    0.525650
     20          1           0        3.212391   -1.353142    0.794632
     21          1           0        2.098897   -2.657214    1.281196
     22          1           0        2.472171   -2.381512   -0.443421
 ---------------------------------------------------------------------

 The electronic state is 1-A.
 Alpha  occ. eigenvalues --  -19.12068 -19.10482 -14.37500 -14.34470 -10.30097
 Alpha  occ. eigenvalues --  -10.27854 -10.24203 -10.20605 -10.20279 -10.19386
 Alpha  occ. eigenvalues --   -1.04193  -1.02383  -0.93433  -0.90596  -0.78719
 Alpha  occ. eigenvalues --   -0.73661  -0.70010  -0.64498  -0.60218  -0.56498
 Alpha  occ. eigenvalues --   -0.52186  -0.50456  -0.48349  -0.45930  -0.45131
 Alpha  occ. eigenvalues --   -0.43070  -0.42336  -0.41719  -0.40920  -0.39641
 Alpha  occ. eigenvalues --   -0.39057  -0.38162  -0.37564  -0.36266  -0.34318
 Alpha  occ. eigenvalues --   -0.27182  -0.26494  -0.24793  -0.23587
 Alpha virt. eigenvalues --    0.01279   0.02809   0.06104   0.11104   0.11529
 Alpha virt. eigenvalues --    0.12430   0.14021   0.15121   0.15477   0.15856
 Alpha virt. eigenvalues --    0.16703   0.17236   0.18202   0.18830   0.19546

 Mulliken atomic charges:
              1
     1  H    0.187736
     2  C   -0.534919
     3  H    0.146741
     4  H    0.191549
     5  C    0.589573
     6  O   -0.525758
     7  N   -0.614535
     8  H    0.329170
     9  C    0.006845
    10  H    0.179419
    11  C   -0.488509
    12  H    0.160341
    13  H    0.198631
    14  H    0.144931
    15  C    0.600582
    16  O   -0.526094
    17  N   -0.595104
    18  H    0.357383
    19  C   -0.303186
    20  H    0.181637
    21  H    0.147793
    22  H    0.165773
 Sum of Mulliken atomic charges =   0.00000

 Dipole moment (field-independent basis, Debye):
    X=             -3.5680    Y=              1.3607    Z=              2.7675  Tot=              4.7160
 Quadrupole moment (field-independent basis, Debye-Ang):
   XX=            -59.6888   YY=            -56.4499   ZZ=            -61.8089
   XY=             -6.9149   XZ=              0.8567   YZ=             -1.6409

 Normal termination of Gaussian 09 at Sat Feb 11 00:53:49 2017.
