 Gaussian 09, Revision A.02,
 Gaussian 09:  EM64L-G09RevA.02 11-Jun-2009

 ----------------------------------------------------------------------
 # b3lyp/6-31G* Opt=(ModRedundant, maxcycles=1000, calcfc) geom=nocrowd
 ----------------------------------------------------------------------

 ------------------
 Phi Psi fixed scan
 ------------------
 Symbolic Z-matrix:
 Charge =  0 Multiplicity = 1

 SCF Done:  E(RB3LYP) =  -495.826047833     A.U. after   15 cycles

  Exact polarizability:   0.000   0.000   0.000   0.000   0.000   0.000
 Approx polarizability: 118.222  -0.734 120.449 -15.507  -3.088  96.753

 SCF Done:  E(RB3LYP) =  -495.830814549     A.U. after   12 cycles
 SCF Done:  E(RB3LYP) =  -495.837315637     A.U. after   13 cycles
 SCF Done:  E(RB3LYP) =  -495.839903372     A.U. after   13 cycles
 SCF Done:  E(RB3LYP) =  -495.840763002     A.U. after   12 cycles
 SCF Done:  E(RB3LYP) =  -495.820379498     A.U. after   15 cycles
 SCF Done:  E(RB3LYP) =  -495.841656947     A.U. after   15 cycles
 SCF Done:  E(RB3LYP) =  -495.842196452     A.U. after   11 cycles
 SCF Done:  E(RB3LYP) =  -495.842889291     A.U. after   13 cycles
 SCF Done:  E(RB3LYP) =  -495.842604792     A.U. after   13 cycles
 SCF Done:  E(RB3LYP) =  -495.843288671     A.U. after   11 cycles
 SCF Done:  E(RB3LYP) =  -495.843362520     A.U. after   11 cycles
 SCF Done:  E(RB3LYP) =  -495.843445551     A.U. after   12 cycles
 SCF Done:  E(RB3LYP) =  -495.843507807     A.U. after   11 cycles
 SCF Done:  E(RB3LYP) =  -495.843548480     A.U. after   11 cycles
 SCF Done:  E(RB3LYP) =  -495.843556201     A.U. after   11 cycles
 SCF Done:  E(RB3LYP) =  -495.843556948     A.U. after    9 cycles
 SCF Done:  E(RB3LYP) =  -495.843557353     A.U. after    8 cycles
 SCF Done:  E(RB3LYP) =  -495.843557724     A.U. after    9 cycles
 SCF Done:  E(RB3LYP) =  -495.843557792     A.U. after    7 cycles
 Optimization completed.
    -- Stationary point found.

                         Standard orientation:
 ---------------------------------------------------------------------
 Center     Atomic      Atomic             Coordinates (Angstroms)
 Number     Number       Type             X           Y           Z
 ---------------------------------------------------------------------
      1          1           0       -3.717226   -1.456291    0.024384
      2          6           0       -3.113106   -0.706708    0.538479
      3          1           0       -2.784161   -1.124762    1.497520
      4          1           0       -3.721061    0.182109    0.739339
      5          6           0       -1.887119   -0.396304   -0.300654
      6          8           0       -1.425702   -1.172180   -1.122497
      7          7           0       -1.340849    0.865469   -0.106493
      8          1           0       -1.632622    1.308654    0.758409
      9          6           0        0.072959    1.058518   -0.402216
     10          1           0        0.189932    1.065165   -1.493362
     11          6           0        0.535176    2.407103    0.164638
     12          1           0        0.472773    2.405553    1.259591
     13          1           0        1.574079    2.610220   -0.108658
     14          1           0       -0.091892    3.217325   -0.221755
     15          6           0        0.934719   -0.096507    0.170666
     16          8           0        0.559433   -0.782091    1.111214
     17          7           0        2.203293   -0.150834   -0.338010
     18          1           0        2.370995    0.306809   -1.224193
     19          6           0        3.140701   -1.187585    0.066238
     20          1           0        2.886176   -1.488298    1.083150
     21          1           0        3.084407   -2.071793   -0.581848
     22          1           0        4.161662   -0.794067    0.046302
 ---------------------------------------------------------------------

 The electronic state is 1-A.
 Alpha  occ. eigenvalues --  -19.10991 -19.10391 -14.36148 -14.34980 -10.28172
 Alpha  occ. eigenvalues --  -10.27835 -10.23628 -10.21656 -10.19746 -10.18268
 Alpha  occ. eigenvalues --   -1.03413  -1.01869  -0.91907  -0.91560  -0.77930
 Alpha  occ. eigenvalues --   -0.72416  -0.70757  -0.64094  -0.58427  -0.57055
 Alpha  occ. eigenvalues --   -0.52374  -0.48567  -0.47460  -0.45536  -0.44428
 Alpha  occ. eigenvalues --   -0.43489  -0.42594  -0.41283  -0.39929  -0.39171
 Alpha  occ. eigenvalues --   -0.38723  -0.38220  -0.37754  -0.35766  -0.33593
 Alpha  occ. eigenvalues --   -0.26770  -0.25134  -0.24445  -0.23674
 Alpha virt. eigenvalues --    0.02342   0.03551   0.06992   0.08442   0.11999
 Alpha virt. eigenvalues --    0.12800   0.14252   0.14878   0.15106   0.15862
 Alpha virt. eigenvalues --    0.16515   0.16990   0.17524   0.18924   0.19520

 Mulliken atomic charges:
              1
     1  H    0.183274
     2  C   -0.553264
     3  H    0.191742
     4  H    0.152598
     5  C    0.610881
     6  O   -0.503562
     7  N   -0.579056
     8  H    0.318623
     9  C   -0.039721
    10  H    0.158305
    11  C   -0.471861
    12  H    0.161115
    13  H    0.159714
    14  H    0.166278
    15  C    0.630042
    16  O   -0.525858
    17  N   -0.592961
    18  H    0.323612
    19  C   -0.306806
    20  H    0.199292
    21  H    0.165583
    22  H    0.152031
 Sum of Mulliken atomic charges =   0.00000

 Dipole moment (field-independent basis, Debye):
    X=              1.6947    Y=              3.2643    Z=              0.1437  Tot=              3.6808
 Quadrupole moment (field-independent basis, Debye-Ang):
   XX=            -48.6522   YY=            -60.2937   ZZ=            -61.9401
   XY=             -2.3547   XZ=             -7.8949   YZ=             -0.6655

 Normal termination of Gaussian 09 at Sat Feb 11 00:53:28 2017.
