 Gaussian 09, Revision A.02,
 Gaussian 09:  EM64L-G09RevA.02 11-Jun-2009

 ----------------------------------------------------------------------
 # b3lyp/6-31G* Opt=(ModRedundant, maxcycles=1000, calcfc) geom=nocrowd
 ----------------------------------------------------------------------

 ------------------
 Phi Psi fixed scan
 ------------------
 Symbolic Z-matrix:
 Charge =  0 Multiplicity = 1

 SCF Done:  E(RB3LYP) =  -495.838392914     A.U. after   14 cycles

  Exact polarizability:   0.000   0.000   0.000   0.000   0.000   0.000
 Approx polarizability: 112.362 -10.256 115.249 -13.745   1.455 107.952

 SCF Done:  E(RB3LYP) =  -495.841291661     A.U. after   11 cycles
 SCF Done:  E(RB3LYP) =  -495.844695115     A.U. after   12 cycles
 SCF Done:  E(RB3LYP) =  -495.845984720     A.U. after   12 cycles
 SCF Done:  E(RB3LYP) =  -495.835678929     A.U. after   13 cycles
 SCF Done:  E(RB3LYP) =  -495.840360275     A.U. after   12 cycles
 SCF Done:  E(RB3LYP) =  -495.843063578     A.U. after   12 cycles
 SCF Done:  E(RB3LYP) =  -495.844447540     A.U. after   12 cycles
 SCF Done:  E(RB3LYP) =  -495.844377014     A.U. after   12 cycles
 SCF Done:  E(RB3LYP) =  -495.845984825     A.U. after   13 cycles
 SCF Done:  E(RB3LYP) =  -495.846762320     A.U. after   13 cycles
 SCF Done:  E(RB3LYP) =  -495.847081506     A.U. after   12 cycles
 SCF Done:  E(RB3LYP) =  -495.847165163     A.U. after   12 cycles
 SCF Done:  E(RB3LYP) =  -495.847184295     A.U. after   11 cycles
 SCF Done:  E(RB3LYP) =  -495.847192471     A.U. after   11 cycles
 SCF Done:  E(RB3LYP) =  -495.847196044     A.U. after   10 cycles
 SCF Done:  E(RB3LYP) =  -495.847199777     A.U. after   10 cycles
 SCF Done:  E(RB3LYP) =  -495.847203173     A.U. after   10 cycles
 SCF Done:  E(RB3LYP) =  -495.847204181     A.U. after    9 cycles
 SCF Done:  E(RB3LYP) =  -495.847204244     A.U. after    6 cycles
 Optimization completed.
    -- Stationary point found.

                         Standard orientation:
 ---------------------------------------------------------------------
 Center     Atomic      Atomic             Coordinates (Angstroms)
 Number     Number       Type             X           Y           Z
 ---------------------------------------------------------------------
      1          1           0       -3.576587   -1.693787   -0.088046
      2          6           0       -3.082856   -0.881290    0.449047
      3          1           0       -2.881002   -1.224898    1.470606
      4          1           0       -3.752266   -0.016426    0.500287
      5          6           0       -1.762953   -0.568878   -0.233912
      6          8           0       -1.088213   -1.422747   -0.796348
      7          7           0       -1.371471    0.749262   -0.201446
      8          1           0       -1.828841    1.336955    0.484765
      9          6           0        0.019186    1.088480   -0.493713
     10          1           0        0.168838    0.993277   -1.576592
     11          6           0        0.299673    2.530905   -0.065364
     12          1           0        0.211106    2.621840    1.022665
     13          1           0        1.316405    2.820246   -0.347504
     14          1           0       -0.401758    3.222254   -0.545052
     15          6           0        0.984870    0.133662    0.245175
     16          8           0        0.880147   -0.054748    1.450338
     17          7           0        2.017280   -0.343736   -0.509750
     18          1           0        1.855701   -0.394457   -1.506903
     19          6           0        2.950860   -1.309125    0.052280
     20          1           0        3.181617   -1.009522    1.075654
     21          1           0        2.528803   -2.322144    0.076927
     22          1           0        3.869165   -1.314584   -0.541437
 ---------------------------------------------------------------------

 The electronic state is 1-A.
 Alpha  occ. eigenvalues --  -19.11015 -19.10539 -14.35685 -14.35517 -10.28460
 Alpha  occ. eigenvalues --  -10.27710 -10.23535 -10.21120 -10.19266 -10.18925
 Alpha  occ. eigenvalues --   -1.03376  -1.02057  -0.91986  -0.91348  -0.77984
 Alpha  occ. eigenvalues --   -0.72770  -0.70505  -0.63843  -0.58588  -0.57021
 Alpha  occ. eigenvalues --   -0.52157  -0.49132  -0.47817  -0.45769  -0.44151
 Alpha  occ. eigenvalues --   -0.43513  -0.42029  -0.41332  -0.39848  -0.39138
 Alpha  occ. eigenvalues --   -0.38524  -0.38226  -0.37432  -0.35781  -0.34076
 Alpha  occ. eigenvalues --   -0.26712  -0.25328  -0.24674  -0.23566
 Alpha virt. eigenvalues --    0.02010   0.03595   0.07776   0.08530   0.11913
 Alpha virt. eigenvalues --    0.12930   0.13759   0.15017   0.15369   0.16107
 Alpha virt. eigenvalues --    0.16547   0.17661   0.18273   0.18931   0.20112

 Mulliken atomic charges:
              1
     1  H    0.185517
     2  C   -0.548142
     3  H    0.191001
     4  H    0.151969
     5  C    0.607776
     6  O   -0.515668
     7  N   -0.581932
     8  H    0.325854
     9  C   -0.015162
    10  H    0.142925
    11  C   -0.484120
    12  H    0.172811
    13  H    0.166688
    14  H    0.157393
    15  C    0.628524
    16  O   -0.537045
    17  N   -0.584536
    18  H    0.331075
    19  C   -0.305534
    20  H    0.190501
    21  H    0.170739
    22  H    0.149365
 Sum of Mulliken atomic charges =   0.00000

 Dipole moment (field-independent basis, Debye):
    X=             -0.2013    Y=              2.2071    Z=             -1.2266  Tot=              2.5330
 Quadrupole moment (field-independent basis, Debye-Ang):
   XX=            -49.6597   YY=            -58.9863   ZZ=            -62.5279
   XY=             -3.9562   XZ=             -6.9963   YZ=             -0.9490

 Normal termination of Gaussian 09 at Sat Feb 11 00:41:24 2017.
