 Gaussian 09, Revision A.02,
 Gaussian 09:  EM64L-G09RevA.02 11-Jun-2009

 ----------------------------------------------------------------------
 # b3lyp/6-31G* Opt=(ModRedundant, maxcycles=1000, calcfc) geom=nocrowd
 ----------------------------------------------------------------------

 ------------------
 Phi Psi fixed scan
 ------------------
 Symbolic Z-matrix:
 Charge =  0 Multiplicity = 1

 SCF Done:  E(RB3LYP) =  -495.811752714     A.U. after   15 cycles

  Exact polarizability:   0.000   0.000   0.000   0.000   0.000   0.000
 Approx polarizability: 120.978   3.293 124.708 -13.086  -1.328  91.322

 SCF Done:  E(RB3LYP) =  -495.820928518     A.U. after   13 cycles
 SCF Done:  E(RB3LYP) =  -495.830256680     A.U. after   16 cycles
 SCF Done:  E(RB3LYP) =  -495.830462553     A.U. after   16 cycles
 SCF Done:  E(RB3LYP) =  -495.834006800     A.U. after   16 cycles
 SCF Done:  E(RB3LYP) =  -495.835365972     A.U. after   11 cycles
 SCF Done:  E(RB3LYP) =  -495.837435577     A.U. after   13 cycles
 SCF Done:  E(RB3LYP) =  -495.838883071     A.U. after   12 cycles
 SCF Done:  E(RB3LYP) =  -495.839336517     A.U. after   14 cycles
 SCF Done:  E(RB3LYP) =  -495.839152477     A.U. after   14 cycles
 SCF Done:  E(RB3LYP) =  -495.839692422     A.U. after   11 cycles
 SCF Done:  E(RB3LYP) =  -495.839744758     A.U. after   11 cycles
 SCF Done:  E(RB3LYP) =  -495.839814186     A.U. after   11 cycles
 SCF Done:  E(RB3LYP) =  -495.839854755     A.U. after   10 cycles
 SCF Done:  E(RB3LYP) =  -495.839914489     A.U. after   11 cycles
 SCF Done:  E(RB3LYP) =  -495.839975119     A.U. after   12 cycles
 SCF Done:  E(RB3LYP) =  -495.839986129     A.U. after   12 cycles
 SCF Done:  E(RB3LYP) =  -495.839987467     A.U. after    9 cycles
 SCF Done:  E(RB3LYP) =  -495.839987589     A.U. after    8 cycles
 SCF Done:  E(RB3LYP) =  -495.839987578     A.U. after    6 cycles
 Optimization completed.
    -- Stationary point found.

                         Standard orientation:
 ---------------------------------------------------------------------
 Center     Atomic      Atomic             Coordinates (Angstroms)
 Number     Number       Type             X           Y           Z
 ---------------------------------------------------------------------
      1          1           0        3.746236   -1.363246   -0.179601
      2          6           0        3.061408   -0.670577   -0.671667
      3          1           0        2.628454   -1.169533   -1.546803
      4          1           0        3.613407    0.211734   -1.014615
      5          6           0        1.937708   -0.317971    0.285766
      6          8           0        1.630481   -1.010473    1.240401
      7          7           0        1.315169    0.907247    0.039800
      8          1           0        1.519103    1.268111   -0.887690
      9          6           0       -0.095640    1.053007    0.379466
     10          1           0       -0.169427    1.099471    1.473794
     11          6           0       -0.621784    2.366720   -0.214694
     12          1           0       -0.614723    2.329112   -1.310898
     13          1           0       -1.648629    2.569711    0.100286
     14          1           0        0.008382    3.200988    0.109639
     15          6           0       -0.930844   -0.172799   -0.087080
     16          8           0       -0.467163   -1.055140   -0.794667
     17          7           0       -2.265942   -0.087534    0.207559
     18          1           0       -2.546106    0.559461    0.932672
     19          6           0       -3.178172   -1.181002   -0.094959
     20          1           0       -2.819182   -1.677076   -0.997310
     21          1           0       -3.222567   -1.922380    0.713568
     22          1           0       -4.182139   -0.783711   -0.271428
 ---------------------------------------------------------------------

 The electronic state is 1-A.
 Alpha  occ. eigenvalues --  -19.11398 -19.10029 -14.36401 -14.34743 -10.28470
 Alpha  occ. eigenvalues --  -10.27606 -10.23784 -10.21898 -10.19990 -10.18013
 Alpha  occ. eigenvalues --   -1.03647  -1.01675  -0.92141  -0.91419  -0.77920
 Alpha  occ. eigenvalues --   -0.72266  -0.70812  -0.64340  -0.58489  -0.56927
 Alpha  occ. eigenvalues --   -0.52469  -0.48314  -0.47276  -0.45414  -0.44735
 Alpha  occ. eigenvalues --   -0.43560  -0.42724  -0.41364  -0.40040  -0.39396
 Alpha  occ. eigenvalues --   -0.38664  -0.38268  -0.37783  -0.35740  -0.33443
 Alpha  occ. eigenvalues --   -0.27105  -0.25247  -0.24494  -0.23262
 Alpha virt. eigenvalues --    0.02372   0.03431   0.06338   0.08516   0.11822
 Alpha virt. eigenvalues --    0.12905   0.14010   0.14909   0.15200   0.15487
 Alpha virt. eigenvalues --    0.16482   0.17091   0.17280   0.19153   0.19220

 Mulliken atomic charges:
              1
     1  H    0.182323
     2  C   -0.554219
     3  H    0.191455
     4  H    0.151194
     5  C    0.613375
     6  O   -0.499134
     7  N   -0.578379
     8  H    0.313495
     9  C   -0.053138
    10  H    0.170945
    11  C   -0.468619
    12  H    0.158487
    13  H    0.152586
    14  H    0.169920
    15  C    0.621629
    16  O   -0.514417
    17  N   -0.591386
    18  H    0.323166
    19  C   -0.306016
    20  H    0.199332
    21  H    0.164749
    22  H    0.152652
 Sum of Mulliken atomic charges =   0.00000

 Dipole moment (field-independent basis, Debye):
    X=             -2.5320    Y=              3.4338    Z=             -1.0345  Tot=              4.3900
 Quadrupole moment (field-independent basis, Debye-Ang):
   XX=            -49.3465   YY=            -60.7039   ZZ=            -61.6480
   XY=              1.6448   XZ=             -8.2275   YZ=              0.9735

 Normal termination of Gaussian 09 at Sat Feb 11 00:52:10 2017.
