 Gaussian 09, Revision A.02,
 Gaussian 09:  EM64L-G09RevA.02 11-Jun-2009

 ----------------------------------------------------------------------
 # b3lyp/6-31G* Opt=(ModRedundant, maxcycles=1000, calcfc) geom=nocrowd
 ----------------------------------------------------------------------

 ------------------
 Phi Psi fixed scan
 ------------------
 Symbolic Z-matrix:
 Charge =  0 Multiplicity = 1

 SCF Done:  E(RB3LYP) =  -495.799775328     A.U. after   16 cycles

  Exact polarizability:   0.000   0.000   0.000   0.000   0.000   0.000
 Approx polarizability: 109.694   2.948 127.262   5.995  19.362 102.131

 SCF Done:  E(RB3LYP) =  -495.810848086     A.U. after   14 cycles
 SCF Done:  E(RB3LYP) =  -495.821792411     A.U. after   17 cycles
 SCF Done:  E(RB3LYP) =  -495.819338484     A.U. after   14 cycles
 SCF Done:  E(RB3LYP) =  -495.824996924     A.U. after   13 cycles
 SCF Done:  E(RB3LYP) =  -495.825754572     A.U. after   12 cycles
 SCF Done:  E(RB3LYP) =  -495.826750206     A.U. after   12 cycles
 SCF Done:  E(RB3LYP) =  -495.827011899     A.U. after   12 cycles
 SCF Done:  E(RB3LYP) =  -495.827282549     A.U. after   12 cycles
 SCF Done:  E(RB3LYP) =  -495.827552299     A.U. after   12 cycles
 SCF Done:  E(RB3LYP) =  -495.829094781     A.U. after   12 cycles
 SCF Done:  E(RB3LYP) =  -495.829150766     A.U. after   12 cycles
 SCF Done:  E(RB3LYP) =  -495.829161139     A.U. after   12 cycles
 SCF Done:  E(RB3LYP) =  -495.829184385     A.U. after   10 cycles
 SCF Done:  E(RB3LYP) =  -495.829206448     A.U. after   11 cycles
 SCF Done:  E(RB3LYP) =  -495.829209487     A.U. after   10 cycles
 SCF Done:  E(RB3LYP) =  -495.829210280     A.U. after   10 cycles
 SCF Done:  E(RB3LYP) =  -495.829210622     A.U. after    8 cycles
 SCF Done:  E(RB3LYP) =  -495.829210762     A.U. after    8 cycles
 SCF Done:  E(RB3LYP) =  -495.829210851     A.U. after    7 cycles
 Optimization completed.
    -- Stationary point found.

                         Standard orientation:
 ---------------------------------------------------------------------
 Center     Atomic      Atomic             Coordinates (Angstroms)
 Number     Number       Type             X           Y           Z
 ---------------------------------------------------------------------
      1          1           0       -3.857616   -1.074545    0.778610
      2          6           0       -3.026515   -0.456982    1.123006
      3          1           0       -2.565182   -0.954786    1.985111
      4          1           0       -3.408208    0.515198    1.454586
      5          6           0       -2.009332   -0.337583   -0.009742
      6          8           0       -1.934802   -1.151178   -0.909691
      7          7           0       -1.228420    0.808331    0.063087
      8          1           0       -1.312521    1.298705    0.946782
      9          6           0        0.090838    0.994005   -0.567681
     10          1           0       -0.080348    0.997368   -1.650274
     11          6           0        0.631817    2.365739   -0.160948
     12          1           0        0.756912    2.458961    0.927589
     13          1           0        1.598839    2.560608   -0.633032
     14          1           0       -0.067661    3.147054   -0.474568
     15          6           0        1.063241   -0.208514   -0.392200
     16          8           0        0.971592   -1.211000   -1.080188
     17          7           0        2.074130   -0.028198    0.518850
     18          1           0        2.067951    0.791226    1.107072
     19          6           0        3.045642   -1.069415    0.807098
     20          1           0        3.001677   -1.792169   -0.008542
     21          1           0        4.053538   -0.645013    0.866565
     22          1           0        2.824188   -1.589622    1.748372
 ---------------------------------------------------------------------

 The electronic state is 1-A.
 Alpha  occ. eigenvalues --  -19.10513 -19.10335 -14.36224 -14.35822 -10.28154
 Alpha  occ. eigenvalues --  -10.28132 -10.23968 -10.21748 -10.20590 -10.18876
 Alpha  occ. eigenvalues --   -1.03001  -1.02021  -0.92273  -0.91464  -0.78512
 Alpha  occ. eigenvalues --   -0.72744  -0.70712  -0.65219  -0.58701  -0.57731
 Alpha  occ. eigenvalues --   -0.52472  -0.49073  -0.47005  -0.45407  -0.44649
 Alpha  occ. eigenvalues --   -0.43779  -0.43114  -0.41913  -0.40032  -0.39578
 Alpha  occ. eigenvalues --   -0.38961  -0.38678  -0.37623  -0.35637  -0.34651
 Alpha  occ. eigenvalues --   -0.27183  -0.24993  -0.24445  -0.22334
 Alpha virt. eigenvalues --    0.02175   0.03364   0.05706   0.08529   0.11274
 Alpha virt. eigenvalues --    0.12378   0.12965   0.13607   0.15158   0.15938
 Alpha virt. eigenvalues --    0.16041   0.17099   0.17796   0.18075   0.19564

 Mulliken atomic charges:
              1
     1  H    0.189531
     2  C   -0.549611
     3  H    0.173166
     4  H    0.152743
     5  C    0.584176
     6  O   -0.461515
     7  N   -0.598514
     8  H    0.308321
     9  C   -0.013369
    10  H    0.187954
    11  C   -0.499536
    12  H    0.134611
    13  H    0.175772
    14  H    0.176237
    15  C    0.593696
    16  O   -0.483428
    17  N   -0.597531
    18  H    0.320064
    19  C   -0.308928
    20  H    0.206983
    21  H    0.152875
    22  H    0.156304
 Sum of Mulliken atomic charges =   0.00000

 Dipole moment (field-independent basis, Debye):
    X=              1.7771    Y=              4.4845    Z=              4.7798  Tot=              6.7908
 Quadrupole moment (field-independent basis, Debye-Ang):
   XX=            -54.2485   YY=            -61.1954   ZZ=            -60.2311
   XY=             -1.4872   XZ=             -1.7572   YZ=             -4.2932

 Normal termination of Gaussian 09 at Sat Feb 11 01:11:19 2017.
