 Gaussian 09, Revision A.02,
 Gaussian 09:  EM64L-G09RevA.02 11-Jun-2009

 ----------------------------------------------------------------------
 # b3lyp/6-31G* Opt=(ModRedundant, maxcycles=1000, calcfc) geom=nocrowd
 ----------------------------------------------------------------------

 ------------------
 Phi Psi fixed scan
 ------------------
 Symbolic Z-matrix:
 Charge =  0 Multiplicity = 1

 SCF Done:  E(RB3LYP) =  -495.743308581     A.U. after   15 cycles

  Exact polarizability:   0.000   0.000   0.000   0.000   0.000   0.000
 Approx polarizability: 131.037   6.978 129.178  -6.373   4.474  89.112

 SCF Done:  E(RB3LYP) =  -495.766968270     A.U. after   13 cycles
 SCF Done:  E(RB3LYP) =  -495.794913283     A.U. after   14 cycles
 SCF Done:  E(RB3LYP) =  -495.819963690     A.U. after   14 cycles
 SCF Done:  E(RB3LYP) =  -495.830262180     A.U. after   15 cycles
 SCF Done:  E(RB3LYP) =  -495.829409800     A.U. after   15 cycles
 SCF Done:  E(RB3LYP) =  -495.837010895     A.U. after   13 cycles
 SCF Done:  E(RB3LYP) =  -495.840554065     A.U. after   12 cycles
 SCF Done:  E(RB3LYP) =  -495.842130737     A.U. after   12 cycles
 SCF Done:  E(RB3LYP) =  -495.843674612     A.U. after   14 cycles
 SCF Done:  E(RB3LYP) =  -495.845289167     A.U. after   12 cycles
 SCF Done:  E(RB3LYP) =  -495.846146941     A.U. after   13 cycles
 SCF Done:  E(RB3LYP) =  -495.846170641     A.U. after   10 cycles
 SCF Done:  E(RB3LYP) =  -495.846178464     A.U. after    9 cycles
 SCF Done:  E(RB3LYP) =  -495.846182083     A.U. after    9 cycles
 SCF Done:  E(RB3LYP) =  -495.846184632     A.U. after    8 cycles
 SCF Done:  E(RB3LYP) =  -495.846186176     A.U. after    8 cycles
 SCF Done:  E(RB3LYP) =  -495.846186992     A.U. after    8 cycles
 SCF Done:  E(RB3LYP) =  -495.846187229     A.U. after    8 cycles
 SCF Done:  E(RB3LYP) =  -495.846187269     A.U. after    7 cycles
 Optimization completed.
    -- Stationary point found.

                         Standard orientation:
 ---------------------------------------------------------------------
 Center     Atomic      Atomic             Coordinates (Angstroms)
 Number     Number       Type             X           Y           Z
 ---------------------------------------------------------------------
      1          1           0       -3.987276   -0.675850   -0.361810
      2          6           0       -3.287271   -0.416768    0.438046
      3          1           0       -3.349406   -1.207175    1.192617
      4          1           0       -3.597477    0.530791    0.888790
      5          6           0       -1.879061   -0.405469   -0.140058
      6          8           0       -1.435764   -1.399724   -0.719474
      7          7           0       -1.200894    0.763504    0.010288
      8          1           0       -1.668693    1.461466    0.571963
      9          6           0        0.172718    1.149439   -0.378051
     10          1           0        0.177284    1.265735   -1.472290
     11          6           0        0.459081    2.520629    0.242753
     12          1           0        0.427422    2.464900    1.337620
     13          1           0        1.457125    2.844565   -0.050351
     14          1           0       -0.275145    3.260344   -0.096371
     15          6           0        1.378334    0.201366   -0.105022
     16          8           0        2.505529    0.685975   -0.178461
     17          7           0        1.146746   -1.094309    0.206502
     18          1           0        0.241899   -1.479577   -0.063741
     19          6           0        2.273239   -2.003285    0.359107
     20          1           0        3.005417   -1.568832    1.043582
     21          1           0        1.907614   -2.947501    0.770333
     22          1           0        2.779905   -2.198711   -0.595040
 ---------------------------------------------------------------------

 The electronic state is 1-A.
 Alpha  occ. eigenvalues --  -19.12530 -19.10147 -14.37836 -14.34022 -10.30482
 Alpha  occ. eigenvalues --  -10.27697 -10.24495 -10.20552 -10.20396 -10.18995
 Alpha  occ. eigenvalues --   -1.04476  -1.02097  -0.93683  -0.90335  -0.78763
 Alpha  occ. eigenvalues --   -0.73661  -0.70158  -0.64351  -0.60312  -0.56459
 Alpha  occ. eigenvalues --   -0.52431  -0.50494  -0.48630  -0.45767  -0.45227
 Alpha  occ. eigenvalues --   -0.43156  -0.42162  -0.41680  -0.41193  -0.39575
 Alpha  occ. eigenvalues --   -0.38772  -0.38105  -0.37382  -0.36420  -0.34402
 Alpha  occ. eigenvalues --   -0.27707  -0.26630  -0.24455  -0.23386
 Alpha virt. eigenvalues --    0.00978   0.03396   0.06118   0.11070   0.11914
 Alpha virt. eigenvalues --    0.12768   0.13719   0.14776   0.15440   0.16230
 Alpha virt. eigenvalues --    0.16560   0.17230   0.18439   0.18823   0.20469

 Mulliken atomic charges:
              1
     1  H    0.193123
     2  C   -0.533338
     3  H    0.189223
     4  H    0.147551
     5  C    0.602018
     6  O   -0.533525
     7  N   -0.612181
     8  H    0.333733
     9  C   -0.015457
    10  H    0.182871
    11  C   -0.488103
    12  H    0.155178
    13  H    0.205786
    14  H    0.143545
    15  C    0.602034
    16  O   -0.529943
    17  N   -0.618190
    18  H    0.382969
    19  C   -0.297756
    20  H    0.178460
    21  H    0.149559
    22  H    0.162445
 Sum of Mulliken atomic charges =   0.00000

 Dipole moment (field-independent basis, Debye):
    X=             -3.6183    Y=              1.1459    Z=              1.6255  Tot=              4.1289
 Quadrupole moment (field-independent basis, Debye-Ang):
   XX=            -61.8446   YY=            -57.2469   ZZ=            -60.0534
   XY=             -8.1033   XZ=             -2.2515   YZ=             -1.6594

 Normal termination of Gaussian 09 at Sat Feb 11 00:44:59 2017.
