 Gaussian 09, Revision A.02,
 Gaussian 09:  EM64L-G09RevA.02 11-Jun-2009

 ----------------------------------------------------------------------
 # b3lyp/6-31G* Opt=(ModRedundant, maxcycles=1000, calcfc) geom=nocrowd
 ----------------------------------------------------------------------

 ------------------
 Phi Psi fixed scan
 ------------------
 Symbolic Z-matrix:
 Charge =  0 Multiplicity = 1

 SCF Done:  E(RB3LYP) =  -495.823974595     A.U. after   16 cycles

  Exact polarizability:   0.000   0.000   0.000   0.000   0.000   0.000
 Approx polarizability: 100.250   4.727 115.763  -1.463 -17.506 120.438

 SCF Done:  E(RB3LYP) =  -495.829439584     A.U. after   13 cycles
 SCF Done:  E(RB3LYP) =  -495.835659655     A.U. after   12 cycles
 SCF Done:  E(RB3LYP) =  -495.837253869     A.U. after   14 cycles
 SCF Done:  E(RB3LYP) =  -495.835819111     A.U. after   14 cycles
 SCF Done:  E(RB3LYP) =  -495.837398772     A.U. after   13 cycles
 SCF Done:  E(RB3LYP) =  -495.837539756     A.U. after   12 cycles
 SCF Done:  E(RB3LYP) =  -495.827378466     A.U. after   13 cycles
 SCF Done:  E(RB3LYP) =  -495.837664342     A.U. after   13 cycles
 SCF Done:  E(RB3LYP) =  -495.837755954     A.U. after   12 cycles
 SCF Done:  E(RB3LYP) =  -495.837826271     A.U. after   11 cycles
 SCF Done:  E(RB3LYP) =  -495.837862202     A.U. after   12 cycles
 SCF Done:  E(RB3LYP) =  -495.837889198     A.U. after   11 cycles
 SCF Done:  E(RB3LYP) =  -495.837900899     A.U. after   11 cycles
 SCF Done:  E(RB3LYP) =  -495.837907299     A.U. after   10 cycles
 SCF Done:  E(RB3LYP) =  -495.837914820     A.U. after   10 cycles
 SCF Done:  E(RB3LYP) =  -495.837919441     A.U. after   10 cycles
 SCF Done:  E(RB3LYP) =  -495.837920623     A.U. after   10 cycles
 SCF Done:  E(RB3LYP) =  -495.837920760     A.U. after    7 cycles
 SCF Done:  E(RB3LYP) =  -495.837920782     A.U. after    7 cycles
 Optimization completed.
    -- Stationary point found.

                         Standard orientation:
 ---------------------------------------------------------------------
 Center     Atomic      Atomic             Coordinates (Angstroms)
 Number     Number       Type             X           Y           Z
 ---------------------------------------------------------------------
      1          1           0        3.425038   -1.583245   -0.918680
      2          6           0        3.268304   -0.577167   -0.523158
      3          1           0        3.482364    0.157592   -1.306407
      4          1           0        3.981197   -0.428468    0.296085
      5          6           0        1.850377   -0.486255    0.028436
      6          8           0        1.321408   -1.412364    0.623097
      7          7           0        1.216849    0.711188   -0.201341
      8          1           0        1.768530    1.455661   -0.607513
      9          6           0       -0.037935    1.126350    0.437398
     10          1           0        0.144855    1.308390    1.504056
     11          6           0       -0.538752    2.419086   -0.211804
     12          1           0       -0.727907    2.293045   -1.283001
     13          1           0       -1.469662    2.741392    0.262935
     14          1           0        0.197843    3.222668   -0.085986
     15          6           0       -1.114074    0.010851    0.459784
     16          8           0       -1.518413   -0.451531    1.513021
     17          7           0       -1.728810   -0.226534   -0.745340
     18          1           0       -1.191647   -0.003052   -1.574174
     19          6           0       -2.694503   -1.309907   -0.869082
     20          1           0       -3.335470   -1.297636    0.013490
     21          1           0       -3.303319   -1.150842   -1.763644
     22          1           0       -2.212556   -2.294667   -0.928775
 ---------------------------------------------------------------------

 The electronic state is 1-A.
 Alpha  occ. eigenvalues --  -19.11021 -19.10214 -14.36583 -14.35321 -10.28905
 Alpha  occ. eigenvalues --  -10.27693 -10.23703 -10.21008 -10.19978 -10.19534
 Alpha  occ. eigenvalues --   -1.03306  -1.02059  -0.92711  -0.90894  -0.78471
 Alpha  occ. eigenvalues --   -0.73208  -0.70092  -0.64751  -0.59437  -0.56927
 Alpha  occ. eigenvalues --   -0.51301  -0.50528  -0.47621  -0.45049  -0.44487
 Alpha  occ. eigenvalues --   -0.43591  -0.42422  -0.41806  -0.40124  -0.39466
 Alpha  occ. eigenvalues --   -0.38969  -0.38470  -0.37710  -0.35585  -0.34871
 Alpha  occ. eigenvalues --   -0.26397  -0.24811  -0.24467  -0.23593
 Alpha virt. eigenvalues --    0.02412   0.02906   0.06297   0.08528   0.11455
 Alpha virt. eigenvalues --    0.12668   0.13160   0.14434   0.15339   0.15514
 Alpha virt. eigenvalues --    0.16569   0.17670   0.18153   0.18859   0.19955

 Mulliken atomic charges:
              1
     1  H    0.188729
     2  C   -0.543077
     3  H    0.144589
     4  H    0.185641
     5  C    0.590238
     6  O   -0.484990
     7  N   -0.614461
     8  H    0.318544
     9  C   -0.024313
    10  H    0.174866
    11  C   -0.475659
    12  H    0.149548
    13  H    0.180398
    14  H    0.148435
    15  C    0.622781
    16  O   -0.504097
    17  N   -0.580335
    18  H    0.320414
    19  C   -0.304722
    20  H    0.194017
    21  H    0.146598
    22  H    0.166856
 Sum of Mulliken atomic charges =   0.00000

 Dipole moment (field-independent basis, Debye):
    X=              1.7498    Y=              3.5312    Z=             -4.4805  Tot=              5.9671
 Quadrupole moment (field-independent basis, Debye-Ang):
   XX=            -53.1565   YY=            -59.0437   ZZ=            -62.2460
   XY=              3.8841   XZ=              2.9421   YZ=              4.2730

 Normal termination of Gaussian 09 at Sat Feb 11 00:50:27 2017.
