 Gaussian 09, Revision A.02,
 Gaussian 09:  EM64L-G09RevA.02 11-Jun-2009

 ----------------------------------------------------------------------
 # b3lyp/6-31G* Opt=(ModRedundant, maxcycles=1000, calcfc) geom=nocrowd
 ----------------------------------------------------------------------

 ------------------
 Phi Psi fixed scan
 ------------------
 Symbolic Z-matrix:
 Charge =  0 Multiplicity = 1

 SCF Done:  E(RB3LYP) =  -495.773450782     A.U. after   17 cycles

  Exact polarizability:   0.000   0.000   0.000   0.000   0.000   0.000
 Approx polarizability: 125.344   7.498 131.742  -3.850   6.701  87.452

 SCF Done:  E(RB3LYP) =  -495.794247888     A.U. after   14 cycles
 SCF Done:  E(RB3LYP) =  -495.803603706     A.U. after   15 cycles
 SCF Done:  E(RB3LYP) =  -495.815612017     A.U. after   15 cycles
 SCF Done:  E(RB3LYP) =  -495.817401966     A.U. after   12 cycles
 SCF Done:  E(RB3LYP) =  -495.804955633     A.U. after   14 cycles
 SCF Done:  E(RB3LYP) =  -495.819145502     A.U. after   14 cycles
 SCF Done:  E(RB3LYP) =  -495.820148566     A.U. after   12 cycles
 SCF Done:  E(RB3LYP) =  -495.821379266     A.U. after   12 cycles
 SCF Done:  E(RB3LYP) =  -495.822224434     A.U. after   13 cycles
 SCF Done:  E(RB3LYP) =  -495.830977678     A.U. after   15 cycles
 SCF Done:  E(RB3LYP) =  -495.831023433     A.U. after   10 cycles
 SCF Done:  E(RB3LYP) =  -495.831084729     A.U. after   11 cycles
 SCF Done:  E(RB3LYP) =  -495.831100135     A.U. after   11 cycles
 SCF Done:  E(RB3LYP) =  -495.831117314     A.U. after   12 cycles
 SCF Done:  E(RB3LYP) =  -495.831126018     A.U. after   11 cycles
 SCF Done:  E(RB3LYP) =  -495.831127474     A.U. after   10 cycles
 SCF Done:  E(RB3LYP) =  -495.831127610     A.U. after    7 cycles
 SCF Done:  E(RB3LYP) =  -495.831127705     A.U. after    7 cycles
 SCF Done:  E(RB3LYP) =  -495.831127758     A.U. after    7 cycles
 Optimization completed.
    -- Stationary point found.

                         Standard orientation:
 ---------------------------------------------------------------------
 Center     Atomic      Atomic             Coordinates (Angstroms)
 Number     Number       Type             X           Y           Z
 ---------------------------------------------------------------------
      1          1           0        3.679989   -1.322487   -0.624874
      2          6           0        2.878417   -0.684396   -0.999874
      3          1           0        2.254702   -1.268839   -1.687000
      4          1           0        3.308965    0.155710   -1.557699
      5          6           0        2.022328   -0.225053    0.168574
      6          8           0        2.058084   -0.748375    1.264543
      7          7           0        1.260785    0.931753   -0.082817
      8          1           0        1.303578    1.183838   -1.068068
      9          6           0       -0.122349    1.041318    0.392969
     10          1           0       -0.066064    1.116660    1.488170
     11          6           0       -0.721729    2.344581   -0.147784
     12          1           0       -0.915217    2.285432   -1.225596
     13          1           0       -1.659735    2.607788    0.352666
     14          1           0       -0.020564    3.164338    0.034234
     15          6           0       -0.952293   -0.250495    0.125764
     16          8           0       -0.434975   -1.350551    0.003012
     17          7           0       -2.294258   -0.055535   -0.072331
     18          1           0       -2.692888    0.845914    0.142683
     19          6           0       -3.209684   -1.176580   -0.222863
     20          1           0       -2.654456   -2.006641   -0.660933
     21          1           0       -3.625192   -1.506029    0.738625
     22          1           0       -4.031815   -0.894063   -0.887324
 ---------------------------------------------------------------------

 The electronic state is 1-A.
 Alpha  occ. eigenvalues --  -19.11395 -19.09813 -14.36680 -14.34642 -10.28773
 Alpha  occ. eigenvalues --  -10.27534 -10.24101 -10.22111 -10.20440 -10.18023
 Alpha  occ. eigenvalues --   -1.03726  -1.01500  -0.92323  -0.91296  -0.78067
 Alpha  occ. eigenvalues --   -0.72266  -0.70913  -0.64924  -0.58689  -0.56879
 Alpha  occ. eigenvalues --   -0.52621  -0.47929  -0.47133  -0.45557  -0.45062
 Alpha  occ. eigenvalues --   -0.43674  -0.42880  -0.41730  -0.40068  -0.39561
 Alpha  occ. eigenvalues --   -0.38918  -0.38426  -0.37912  -0.35545  -0.33503
 Alpha  occ. eigenvalues --   -0.27426  -0.25573  -0.24116  -0.22676
 Alpha virt. eigenvalues --    0.01716   0.03732   0.06058   0.08705   0.11387
 Alpha virt. eigenvalues --    0.12785   0.13776   0.13822   0.14797   0.15939
 Alpha virt. eigenvalues --    0.16337   0.16558   0.17696   0.18748   0.19877

 Mulliken atomic charges:
              1
     1  H    0.183860
     2  C   -0.553911
     3  H    0.184474
     4  H    0.151317
     5  C    0.612580
     6  O   -0.480735
     7  N   -0.581975
     8  H    0.305051
     9  C   -0.051626
    10  H    0.188944
    11  C   -0.490926
    12  H    0.159171
    13  H    0.148418
    14  H    0.179984
    15  C    0.601566
    16  O   -0.498338
    17  N   -0.593284
    18  H    0.324669
    19  C   -0.307297
    20  H    0.202132
    21  H    0.162593
    22  H    0.153336
 Sum of Mulliken atomic charges =   0.00000

 Dipole moment (field-independent basis, Debye):
    X=             -3.6791    Y=              3.5567    Z=             -2.7647  Tot=              5.8163
 Quadrupole moment (field-independent basis, Debye-Ang):
   XX=            -51.9001   YY=            -60.7812   ZZ=            -61.1112
   XY=              0.2795   XZ=             -7.5359   YZ=              2.0726

 Normal termination of Gaussian 09 at Sat Feb 11 01:00:24 2017.
