 Gaussian 09, Revision A.02,
 Gaussian 09:  EM64L-G09RevA.02 11-Jun-2009

 ----------------------------------------------------------------------
 # b3lyp/6-31G* Opt=(ModRedundant, maxcycles=1000, calcfc) geom=nocrowd
 ----------------------------------------------------------------------

 ------------------
 Phi Psi fixed scan
 ------------------
 Symbolic Z-matrix:
 Charge =  0 Multiplicity = 1

 SCF Done:  E(RB3LYP) =  -495.768698032     A.U. after   15 cycles

  Exact polarizability:   0.000   0.000   0.000   0.000   0.000   0.000
 Approx polarizability: 119.023   2.808 135.167   4.721  12.208  91.708

 SCF Done:  E(RB3LYP) =  -495.790648532     A.U. after   13 cycles
 SCF Done:  E(RB3LYP) =  -495.817311786     A.U. after   14 cycles
 SCF Done:  E(RB3LYP) =  -495.834488491     A.U. after   13 cycles
 SCF Done:  E(RB3LYP) =  -495.840287813     A.U. after   15 cycles
 SCF Done:  E(RB3LYP) =  -495.836080608     A.U. after   13 cycles
 SCF Done:  E(RB3LYP) =  -495.842378217     A.U. after   13 cycles
 SCF Done:  E(RB3LYP) =  -495.841671683     A.U. after   14 cycles
 SCF Done:  E(RB3LYP) =  -495.842960723     A.U. after   12 cycles
 SCF Done:  E(RB3LYP) =  -495.843100143     A.U. after   12 cycles
 SCF Done:  E(RB3LYP) =  -495.847210230     A.U. after   11 cycles
 SCF Done:  E(RB3LYP) =  -495.847281555     A.U. after   11 cycles
 SCF Done:  E(RB3LYP) =  -495.847510163     A.U. after   11 cycles
 SCF Done:  E(RB3LYP) =  -495.847548970     A.U. after   11 cycles
 SCF Done:  E(RB3LYP) =  -495.847558405     A.U. after   10 cycles
 SCF Done:  E(RB3LYP) =  -495.847561881     A.U. after    9 cycles
 SCF Done:  E(RB3LYP) =  -495.847563210     A.U. after    8 cycles
 SCF Done:  E(RB3LYP) =  -495.847563787     A.U. after    8 cycles
 SCF Done:  E(RB3LYP) =  -495.847563953     A.U. after    8 cycles
 SCF Done:  E(RB3LYP) =  -495.847563980     A.U. after    7 cycles
 Optimization completed.
    -- Stationary point found.

                         Standard orientation:
 ---------------------------------------------------------------------
 Center     Atomic      Atomic             Coordinates (Angstroms)
 Number     Number       Type             X           Y           Z
 ---------------------------------------------------------------------
      1          1           0       -3.859137   -1.103292    0.101331
      2          6           0       -3.141885   -0.520563    0.684174
      3          1           0       -2.976340   -1.050813    1.628899
      4          1           0       -3.569736    0.462079    0.905446
      5          6           0       -1.829146   -0.461635   -0.083301
      6          8           0       -1.397561   -1.461443   -0.660200
      7          7           0       -1.231643    0.764056   -0.115059
      8          1           0       -1.657687    1.451481    0.493668
      9          6           0        0.150859    1.127840   -0.508624
     10          1           0        0.198082    1.029533   -1.602962
     11          6           0        0.375864    2.590720   -0.137631
     12          1           0        0.371260    2.721393    0.949534
     13          1           0        1.351399    2.922020   -0.495725
     14          1           0       -0.400600    3.220107   -0.586513
     15          6           0        1.313042    0.242715    0.042197
     16          8           0        2.230164    0.761725    0.675594
     17          7           0        1.291242   -1.067091   -0.288996
     18          1           0        0.422009   -1.447527   -0.662583
     19          6           0        2.334367   -1.962159    0.182457
     20          1           0        3.317722   -1.540281   -0.041724
     21          1           0        2.278766   -2.124237    1.266841
     22          1           0        2.227645   -2.922989   -0.326617
 ---------------------------------------------------------------------

 The electronic state is 1-A.
 Alpha  occ. eigenvalues --  -19.12740 -19.10190 -14.37688 -14.33957 -10.30430
 Alpha  occ. eigenvalues --  -10.27475 -10.24279 -10.20650 -10.20316 -10.18790
 Alpha  occ. eigenvalues --   -1.04497  -1.01969  -0.93556  -0.90324  -0.78633
 Alpha  occ. eigenvalues --   -0.73585  -0.70382  -0.64011  -0.60022  -0.56314
 Alpha  occ. eigenvalues --   -0.52468  -0.50170  -0.48794  -0.45624  -0.45211
 Alpha  occ. eigenvalues --   -0.43541  -0.41931  -0.41641  -0.41299  -0.39157
 Alpha  occ. eigenvalues --   -0.38586  -0.37567  -0.37428  -0.36389  -0.35078
 Alpha  occ. eigenvalues --   -0.28357  -0.26509  -0.24131  -0.23176
 Alpha virt. eigenvalues --    0.00984   0.02952   0.06645   0.10609   0.12015
 Alpha virt. eigenvalues --    0.12781   0.13785   0.14567   0.15206   0.16044
 Alpha virt. eigenvalues --    0.16766   0.16939   0.18412   0.18869   0.21543

 Mulliken atomic charges:
              1
     1  H    0.192894
     2  C   -0.537296
     3  H    0.188661
     4  H    0.152389
     5  C    0.602730
     6  O   -0.527125
     7  N   -0.601216
     8  H    0.331253
     9  C   -0.030637
    10  H    0.173198
    11  C   -0.471493
    12  H    0.164985
    13  H    0.185569
    14  H    0.143409
    15  C    0.590982
    16  O   -0.526393
    17  N   -0.606576
    18  H    0.380962
    19  C   -0.295142
    20  H    0.177433
    21  H    0.159775
    22  H    0.151636
 Sum of Mulliken atomic charges =   0.00000

 Dipole moment (field-independent basis, Debye):
    X=             -3.0543    Y=              0.8944    Z=              0.3547  Tot=              3.2023
 Quadrupole moment (field-independent basis, Debye-Ang):
   XX=            -60.2720   YY=            -57.9422   ZZ=            -60.5250
   XY=             -7.8188   XZ=             -6.8202   YZ=             -2.7097

 Normal termination of Gaussian 09 at Sat Feb 11 00:58:05 2017.
