 Gaussian 09, Revision A.02,
 Gaussian 09:  EM64L-G09RevA.02 11-Jun-2009

 ----------------------------------------------------------------------
 # b3lyp/6-31G* Opt=(ModRedundant, maxcycles=1000, calcfc) geom=nocrowd
 ----------------------------------------------------------------------

 ------------------
 Phi Psi fixed scan
 ------------------
 Symbolic Z-matrix:
 Charge =  0 Multiplicity = 1

 SCF Done:  E(RB3LYP) =  -495.835278138     A.U. after   16 cycles

  Exact polarizability:   0.000   0.000   0.000   0.000   0.000   0.000
 Approx polarizability: 104.058   3.192 112.302 -14.900  -5.749 119.763

 SCF Done:  E(RB3LYP) =  -495.838968670     A.U. after   12 cycles
 SCF Done:  E(RB3LYP) =  -495.843043104     A.U. after   12 cycles
 SCF Done:  E(RB3LYP) =  -495.843952343     A.U. after   12 cycles
 SCF Done:  E(RB3LYP) =  -495.839468884     A.U. after   13 cycles
 SCF Done:  E(RB3LYP) =  -495.843975031     A.U. after   14 cycles
 SCF Done:  E(RB3LYP) =  -495.844119890     A.U. after   12 cycles
 SCF Done:  E(RB3LYP) =  -495.835554456     A.U. after   14 cycles
 SCF Done:  E(RB3LYP) =  -495.844173982     A.U. after   14 cycles
 SCF Done:  E(RB3LYP) =  -495.844264472     A.U. after   11 cycles
 SCF Done:  E(RB3LYP) =  -495.844291464     A.U. after   11 cycles
 SCF Done:  E(RB3LYP) =  -495.844305515     A.U. after   10 cycles
 SCF Done:  E(RB3LYP) =  -495.844320484     A.U. after   11 cycles
 SCF Done:  E(RB3LYP) =  -495.844331404     A.U. after   10 cycles
 SCF Done:  E(RB3LYP) =  -495.844341216     A.U. after   10 cycles
 SCF Done:  E(RB3LYP) =  -495.844345172     A.U. after   11 cycles
 SCF Done:  E(RB3LYP) =  -495.844345358     A.U. after    8 cycles
 SCF Done:  E(RB3LYP) =  -495.844345357     A.U. after    7 cycles
 Optimization completed.
    -- Stationary point found.

                         Standard orientation:
 ---------------------------------------------------------------------
 Center     Atomic      Atomic             Coordinates (Angstroms)
 Number     Number       Type             X           Y           Z
 ---------------------------------------------------------------------
      1          1           0        3.263179   -1.669397   -0.666748
      2          6           0        3.179126   -0.628602   -0.343770
      3          1           0        3.445037    0.030561   -1.176569
      4          1           0        3.902282   -0.477709    0.465229
      5          6           0        1.775950   -0.396466    0.200980
      6          8           0        1.229155   -1.190588    0.954062
      7          7           0        1.175513    0.769194   -0.202593
      8          1           0        1.705559    1.409709   -0.777530
      9          6           0       -0.120573    1.233589    0.296336
     10          1           0       -0.016604    1.555668    1.339266
     11          6           0       -0.605841    2.415701   -0.549663
     12          1           0       -0.747771    2.122276   -1.595444
     13          1           0       -1.562046    2.774868   -0.159644
     14          1           0        0.109539    3.246497   -0.509725
     15          6           0       -1.209564    0.140836    0.359059
     16          8           0       -2.017651    0.139949    1.275621
     17          7           0       -1.303525   -0.667023   -0.739790
     18          1           0       -0.472701   -0.736855   -1.311798
     19          6           0       -2.202281   -1.811015   -0.737249
     20          1           0       -3.110097   -1.529171   -0.202272
     21          1           0       -2.455493   -2.081620   -1.766570
     22          1           0       -1.757730   -2.679165   -0.233137
 ---------------------------------------------------------------------

 The electronic state is 1-A.
 Alpha  occ. eigenvalues --  -19.11596 -19.10170 -14.37123 -14.34980 -10.29475
 Alpha  occ. eigenvalues --  -10.27618 -10.23678 -10.20781 -10.20039 -10.19746
 Alpha  occ. eigenvalues --   -1.03820  -1.02052  -0.93169  -0.90746  -0.78575
 Alpha  occ. eigenvalues --   -0.73565  -0.70149  -0.64579  -0.59866  -0.56951
 Alpha  occ. eigenvalues --   -0.51860  -0.50465  -0.48136  -0.45160  -0.44966
 Alpha  occ. eigenvalues --   -0.43301  -0.42527  -0.41847  -0.40513  -0.39420
 Alpha  occ. eigenvalues --   -0.39034  -0.38461  -0.37757  -0.36001  -0.34533
 Alpha  occ. eigenvalues --   -0.26800  -0.25522  -0.24547  -0.23526
 Alpha virt. eigenvalues --    0.01899   0.03367   0.06049   0.09801   0.11134
 Alpha virt. eigenvalues --    0.12456   0.13787   0.14463   0.15129   0.15638
 Alpha virt. eigenvalues --    0.16665   0.17484   0.17818   0.18776   0.19141

 Mulliken atomic charges:
              1
     1  H    0.187581
     2  C   -0.540647
     3  H    0.144201
     4  H    0.190255
     5  C    0.585081
     6  O   -0.494065
     7  N   -0.625491
     8  H    0.323486
     9  C   -0.003931
    10  H    0.177731
    11  C   -0.484013
    12  H    0.157659
    13  H    0.186625
    14  H    0.149337
    15  C    0.618514
    16  O   -0.520891
    17  N   -0.576199
    18  H    0.323003
    19  C   -0.307273
    20  H    0.193393
    21  H    0.146164
    22  H    0.169481
 Sum of Mulliken atomic charges =   0.00000

 Dipole moment (field-independent basis, Debye):
    X=              3.1180    Y=              1.8789    Z=             -4.5645  Tot=              5.8384
 Quadrupole moment (field-independent basis, Debye-Ang):
   XX=            -57.5177   YY=            -55.9330   ZZ=            -63.2460
   XY=              4.4342   XZ=              2.0694   YZ=              2.9709

 Normal termination of Gaussian 09 at Sat Feb 11 00:52:29 2017.
