 Gaussian 09, Revision A.02,
 Gaussian 09:  EM64L-G09RevA.02 11-Jun-2009

 ----------------------------------------------------------------------
 # b3lyp/6-31G* Opt=(ModRedundant, maxcycles=1000, calcfc) geom=nocrowd
 ----------------------------------------------------------------------

 ------------------
 Phi Psi fixed scan
 ------------------
 Symbolic Z-matrix:
 Charge =  0 Multiplicity = 1

 SCF Done:  E(RB3LYP) =  -495.672234463     A.U. after   16 cycles

  Exact polarizability:   0.000   0.000   0.000   0.000   0.000   0.000
 Approx polarizability: 139.072   5.272 134.349  -0.671   5.069  86.330

 SCF Done:  E(RB3LYP) =  -495.711169875     A.U. after   14 cycles
 SCF Done:  E(RB3LYP) =  -495.768520787     A.U. after   14 cycles
 SCF Done:  E(RB3LYP) =  -495.811799345     A.U. after   13 cycles
 SCF Done:  E(RB3LYP) =  -495.813752201     A.U. after   12 cycles
 SCF Done:  E(RB3LYP) =  -495.815196003     A.U. after   12 cycles
 SCF Done:  E(RB3LYP) =  -495.824856247     A.U. after   13 cycles
 SCF Done:  E(RB3LYP) =  -495.826786159     A.U. after   15 cycles
 SCF Done:  E(RB3LYP) =  -495.828012339     A.U. after   12 cycles
 SCF Done:  E(RB3LYP) =  -495.796874800     A.U. after   14 cycles
 SCF Done:  E(RB3LYP) =  -495.846664543     A.U. after   10 cycles
 SCF Done:  E(RB3LYP) =  -495.846668601     A.U. after    9 cycles
 SCF Done:  E(RB3LYP) =  -495.846672090     A.U. after   10 cycles
 SCF Done:  E(RB3LYP) =  -495.846673840     A.U. after    8 cycles
 SCF Done:  E(RB3LYP) =  -495.846674838     A.U. after    8 cycles
 SCF Done:  E(RB3LYP) =  -495.846677293     A.U. after    9 cycles
 SCF Done:  E(RB3LYP) =  -495.846681122     A.U. after   10 cycles
 SCF Done:  E(RB3LYP) =  -495.846681970     A.U. after    9 cycles
 SCF Done:  E(RB3LYP) =  -495.846682031     A.U. after    7 cycles
 SCF Done:  E(RB3LYP) =  -495.846682060     A.U. after    6 cycles
 Optimization completed.
    -- Stationary point found.

                         Standard orientation:
 ---------------------------------------------------------------------
 Center     Atomic      Atomic             Coordinates (Angstroms)
 Number     Number       Type             X           Y           Z
 ---------------------------------------------------------------------
      1          1           0       -3.974612   -0.794052   -0.190552
      2          6           0       -3.247026   -0.423601    0.536820
      3          1           0       -3.230427   -1.132747    1.371119
      4          1           0       -3.576878    0.551452    0.907965
      5          6           0       -1.873585   -0.411609   -0.119314
      6          8           0       -1.457575   -1.414050   -0.705218
      7          7           0       -1.204045    0.770166   -0.036944
      8          1           0       -1.646189    1.463656    0.551259
      9          6           0        0.178754    1.138397   -0.419111
     10          1           0        0.203445    1.168850   -1.519534
     11          6           0        0.436963    2.554505    0.098435
     12          1           0        0.389802    2.583217    1.193686
     13          1           0        1.436292    2.872313   -0.196328
     14          1           0       -0.302071    3.253111   -0.309458
     15          6           0        1.374428    0.209229   -0.042407
     16          8           0        2.480932    0.722203    0.115975
     17          7           0        1.158744   -1.119428    0.053718
     18          1           0        0.267055   -1.488429   -0.278094
     19          6           0        2.275782   -2.021382    0.282764
     20          1           0        2.863662   -1.678779    1.138362
     21          1           0        1.882025   -3.019447    0.489743
     22          1           0        2.946248   -2.072762   -0.584751
 ---------------------------------------------------------------------

 The electronic state is 1-A.
 Alpha  occ. eigenvalues --  -19.12659 -19.10054 -14.37847 -14.33934 -10.30522
 Alpha  occ. eigenvalues --  -10.27594 -10.24498 -10.20594 -10.20395 -10.18856
 Alpha  occ. eigenvalues --   -1.04524  -1.01983  -0.93691  -0.90269  -0.78734
 Alpha  occ. eigenvalues --   -0.73634  -0.70265  -0.64238  -0.60237  -0.56516
 Alpha  occ. eigenvalues --   -0.52509  -0.50389  -0.48722  -0.45654  -0.45224
 Alpha  occ. eigenvalues --   -0.43311  -0.42056  -0.41674  -0.41250  -0.39457
 Alpha  occ. eigenvalues --   -0.38575  -0.38081  -0.37330  -0.36470  -0.34566
 Alpha  occ. eigenvalues --   -0.28010  -0.26539  -0.24157  -0.23369
 Alpha virt. eigenvalues --    0.00939   0.03504   0.06269   0.10892   0.11930
 Alpha virt. eigenvalues --    0.12924   0.13718   0.14472   0.15412   0.16112
 Alpha virt. eigenvalues --    0.16596   0.17163   0.18363   0.18842   0.20947

 Mulliken atomic charges:
              1
     1  H    0.193329
     2  C   -0.534159
     3  H    0.189311
     4  H    0.148865
     5  C    0.605269
     6  O   -0.533493
     7  N   -0.608443
     8  H    0.333569
     9  C   -0.028048
    10  H    0.181847
    11  C   -0.482060
    12  H    0.155092
    13  H    0.202499
    14  H    0.143568
    15  C    0.600853
    16  O   -0.529548
    17  N   -0.620143
    18  H    0.387477
    19  C   -0.295020
    20  H    0.176371
    21  H    0.150297
    22  H    0.162566
 Sum of Mulliken atomic charges =   0.00000

 Dipole moment (field-independent basis, Debye):
    X=             -3.4862    Y=              1.0233    Z=              1.1727  Tot=              3.8178
 Quadrupole moment (field-independent basis, Debye-Ang):
   XX=            -62.1750   YY=            -57.5032   ZZ=            -59.7033
   XY=             -8.2642   XZ=             -4.1238   YZ=             -1.9639

 Normal termination of Gaussian 09 at Sat Feb 11 01:03:46 2017.
