 Gaussian 09, Revision A.02,
 Gaussian 09:  EM64L-G09RevA.02 11-Jun-2009

 ----------------------------------------------------------------------
 # b3lyp/6-31G* Opt=(ModRedundant, maxcycles=1000, calcfc) geom=nocrowd
 ----------------------------------------------------------------------

 ------------------
 Phi Psi fixed scan
 ------------------
 Symbolic Z-matrix:
 Charge =  0 Multiplicity = 1

 SCF Done:  E(RB3LYP) =  -495.783773018     A.U. after   17 cycles

  Exact polarizability:   0.000   0.000   0.000   0.000   0.000   0.000
 Approx polarizability: 117.196   6.363 130.273   4.568  15.842  94.696

 SCF Done:  E(RB3LYP) =  -495.800104129     A.U. after   14 cycles
 SCF Done:  E(RB3LYP) =  -495.810577992     A.U. after   15 cycles
 SCF Done:  E(RB3LYP) =  -495.819702157     A.U. after   14 cycles
 SCF Done:  E(RB3LYP) =  -495.820955605     A.U. after   12 cycles
 SCF Done:  E(RB3LYP) =  -495.822615223     A.U. after   12 cycles
 SCF Done:  E(RB3LYP) =  -495.823299865     A.U. after   13 cycles
 SCF Done:  E(RB3LYP) =  -495.823858857     A.U. after   13 cycles
 SCF Done:  E(RB3LYP) =  -495.824130736     A.U. after   12 cycles
 SCF Done:  E(RB3LYP) =  -495.824294820     A.U. after   12 cycles
 SCF Done:  E(RB3LYP) =  -495.827729105     A.U. after   12 cycles
 SCF Done:  E(RB3LYP) =  -495.827803763     A.U. after   12 cycles
 SCF Done:  E(RB3LYP) =  -495.827828751     A.U. after   12 cycles
 SCF Done:  E(RB3LYP) =  -495.827853512     A.U. after   12 cycles
 SCF Done:  E(RB3LYP) =  -495.827847728     A.U. after   12 cycles
 SCF Done:  E(RB3LYP) =  -495.827863463     A.U. after   11 cycles
 SCF Done:  E(RB3LYP) =  -495.827872910     A.U. after   11 cycles
 SCF Done:  E(RB3LYP) =  -495.827873688     A.U. after   10 cycles
 SCF Done:  E(RB3LYP) =  -495.827873607     A.U. after    8 cycles
 SCF Done:  E(RB3LYP) =  -495.827873486     A.U. after    8 cycles
 Optimization completed.
    -- Stationary point found.

                         Standard orientation:
 ---------------------------------------------------------------------
 Center     Atomic      Atomic             Coordinates (Angstroms)
 Number     Number       Type             X           Y           Z
 ---------------------------------------------------------------------
      1          1           0       -2.379717   -1.003412    1.971756
      2          6           0       -2.944037   -0.498003    1.177922
      3          1           0       -3.331761    0.443245    1.584757
      4          1           0       -3.777721   -1.137751    0.885028
      5          6           0       -2.046371   -0.278698   -0.035976
      6          8           0       -2.099515   -0.980189   -1.025368
      7          7           0       -1.231582    0.852095    0.067566
      8          1           0       -1.250892    1.243470    1.005085
      9          6           0        0.111376    0.989016   -0.526910
     10          1           0       -0.037323    0.998726   -1.613965
     11          6           0        0.678940    2.347960   -0.113192
     12          1           0        0.832691    2.418083    0.972965
     13          1           0        1.632497    2.547894   -0.611720
     14          1           0       -0.021760    3.138738   -0.397277
     15          6           0        1.026580   -0.252967   -0.319952
     16          8           0        0.733790   -1.349124   -0.768180
     17          7           0        2.193028   -0.025315    0.365267
     18          1           0        2.381354    0.892724    0.736251
     19          6           0        3.162706   -1.078126    0.614055
     20          1           0        2.824018   -1.964757    0.076706
     21          1           0        4.155684   -0.790003    0.250215
     22          1           0        3.233432   -1.315000    1.683070
 ---------------------------------------------------------------------

 The electronic state is 1-A.
 Alpha  occ. eigenvalues --  -19.10605 -19.10275 -14.36395 -14.35431 -10.28391
 Alpha  occ. eigenvalues --  -10.27953 -10.24085 -10.21847 -10.20609 -10.18669
 Alpha  occ. eigenvalues --   -1.03131  -1.01904  -0.92164  -0.91516  -0.78444
 Alpha  occ. eigenvalues --   -0.72626  -0.70791  -0.65236  -0.58601  -0.57491
 Alpha  occ. eigenvalues --   -0.52596  -0.48533  -0.47022  -0.45618  -0.44668
 Alpha  occ. eigenvalues --   -0.43747  -0.43165  -0.41943  -0.40021  -0.39603
 Alpha  occ. eigenvalues --   -0.38959  -0.38682  -0.37756  -0.35477  -0.34372
 Alpha  occ. eigenvalues --   -0.27334  -0.25131  -0.24463  -0.22210
 Alpha virt. eigenvalues --    0.01839   0.03559   0.06369   0.08628   0.11224
 Alpha virt. eigenvalues --    0.12599   0.13063   0.13751   0.14630   0.15900
 Alpha virt. eigenvalues --    0.16071   0.16705   0.17651   0.18007   0.19353

 Mulliken atomic charges:
              1
     1  H    0.173032
     2  C   -0.551412
     3  H    0.155342
     4  H    0.188423
     5  C    0.589977
     6  O   -0.458447
     7  N   -0.593238
     8  H    0.305762
     9  C   -0.017980
    10  H    0.189729
    11  C   -0.506039
    12  H    0.142166
    13  H    0.167298
    14  H    0.180781
    15  C    0.590243
    16  O   -0.486178
    17  N   -0.602085
    18  H    0.324823
    19  C   -0.312156
    20  H    0.209121
    21  H    0.155463
    22  H    0.155374
 Sum of Mulliken atomic charges =   0.00000

 Dipole moment (field-independent basis, Debye):
    X=              2.7859    Y=              4.3179    Z=              4.2325  Tot=              6.6573
 Quadrupole moment (field-independent basis, Debye-Ang):
   XX=            -53.6931   YY=            -61.2606   ZZ=            -60.2707
   XY=             -0.9016   XZ=             -3.8247   YZ=             -3.6988

 Normal termination of Gaussian 09 at Sat Feb 11 00:52:01 2017.
