 Gaussian 09, Revision A.02,
 Gaussian 09:  EM64L-G09RevA.02 11-Jun-2009

 -------------------
 #SP MP2/aug-cc-pVDZ
 -------------------

 -------------------------------
 Single Point calculation at MP2
 -------------------------------
 Symbolic Z-matrix:
 Charge =  0 Multiplicity = 1

                         Standard orientation:
 ---------------------------------------------------------------------
 Center     Atomic      Atomic             Coordinates (Angstroms)
 Number     Number       Type             X           Y           Z
 ---------------------------------------------------------------------
      1          1           0        4.082908   -1.007080   -0.161894
      2          6           0        3.141007   -0.890483   -0.700294
      3          1           0        2.732711   -1.886785   -0.908794
      4          1           0        3.322405   -0.387682   -1.656494
      5          6           0        2.158404   -0.132487    0.175106
      6          8           0        2.257004   -0.083086    1.391306
      7          7           0        1.154902    0.525309   -0.518694
      8          1           0        1.020903    0.205109   -1.471094
      9          6           0       -0.071299    0.880505    0.181306
     10          1           0        0.214200    0.924106    1.238906
     11          6           0       -0.577905    2.259303   -0.264294
     12          1           0       -0.932905    2.250102   -1.301594
     13          1           0       -1.391206    2.625100    0.374406
     14          1           0        0.239193    2.982106   -0.190694
     15          6           0       -1.079295   -0.290999    0.045906
     16          8           0       -0.684691   -1.443397   -0.087894
     17          7           0       -2.403096    0.042496    0.048806
     18          1           0       -2.664300    1.002795    0.211906
     19          6           0       -3.456193   -0.959008    0.015706
     20          1           0       -2.996789   -1.908606   -0.260394
     21          1           0       -3.940792   -1.071310    0.993806
     22          1           0       -4.215794   -0.691611   -0.726794
 ---------------------------------------------------------------------

 SCF Done:  E(RHF) =  -492.920482413     A.U. after   14 cycles
 E2 =    -0.1601065140D+01 EUMP2 =    -0.49452154755355D+03

 The electronic state is 1-A.
 Alpha  occ. eigenvalues --  -20.53321 -20.52787 -15.60160 -15.58802 -11.36317
 Alpha  occ. eigenvalues --  -11.35649 -11.29141 -11.27211 -11.24877 -11.23887
 Alpha  occ. eigenvalues --   -1.39080  -1.37839  -1.23812  -1.23247  -1.05479
 Alpha  occ. eigenvalues --   -0.98900  -0.95811  -0.88424  -0.79481  -0.78501
 Alpha  occ. eigenvalues --   -0.72984  -0.67116  -0.65724  -0.64212  -0.62437
 Alpha  occ. eigenvalues --   -0.61529  -0.59462  -0.58534  -0.57050  -0.56317
 Alpha  occ. eigenvalues --   -0.55099  -0.54506  -0.53324  -0.51122  -0.49844
 Alpha  occ. eigenvalues --   -0.43307  -0.42058  -0.39877  -0.39356
 Alpha virt. eigenvalues --    0.02620   0.03736   0.04176   0.04606   0.05735
 Alpha virt. eigenvalues --    0.05916   0.06161   0.06901   0.07277   0.08230
 Alpha virt. eigenvalues --    0.08914   0.09213   0.11354   0.12339   0.12621

 Mulliken atomic charges:
              1
     1  H   -0.037931
     2  C    0.309283
     3  H    0.082996
     4  H   -0.045036
     5  C    0.736522
     6  O   -0.859118
     7  N   -0.521222
     8  H   -0.046727
     9  C   -0.044798
    10  H   -0.062844
    11  C    0.769558
    12  H   -0.024081
    13  H    0.020156
    14  H   -0.114242
    15  C    0.958535
    16  O   -0.854342
    17  N   -0.519428
    18  H   -0.132494
    19  C    0.746757
    20  H   -0.149716
    21  H   -0.080598
    22  H   -0.131231
 Sum of Mulliken atomic charges =   0.00000

 Dipole moment (field-independent basis, Debye):
    X=             -3.2261    Y=              2.7271    Z=             -3.0782  Tot=              5.2268
 Quadrupole moment (field-independent basis, Debye-Ang):
   XX=            -52.7209   YY=            -62.6284   ZZ=            -63.7110
   XY=             -4.1510   XZ=             -9.2304   YZ=              1.4751

 Normal termination of Gaussian 09 at Mon Feb 13 11:21:37 2017.
