 Gaussian 09, Revision A.02,
 Gaussian 09:  EM64L-G09RevA.02 11-Jun-2009

 -------------------
 #SP MP2/aug-cc-pVDZ
 -------------------

 -------------------------------
 Single Point calculation at MP2
 -------------------------------
 Symbolic Z-matrix:
 Charge =  0 Multiplicity = 1

                         Standard orientation:
 ---------------------------------------------------------------------
 Center     Atomic      Atomic             Coordinates (Angstroms)
 Number     Number       Type             X           Y           Z
 ---------------------------------------------------------------------
      1          1           0       -4.049104   -1.091513    0.015310
      2          6           0       -3.176605   -0.856411    0.628510
      3          1           0       -2.848603   -1.781010    1.118710
      4          1           0       -3.454506   -0.135611    1.403810
      5          6           0       -2.063106   -0.349108   -0.273590
      6          8           0       -1.923905   -0.736208   -1.426390
      7          7           0       -1.237908    0.596694    0.300610
      8          1           0       -1.214908    0.606494    1.314910
      9          6           0        0.048592    0.899196   -0.308690
     10          1           0       -0.071008    0.707296   -1.378390
     11          6           0        0.434289    2.366297   -0.068390
     12          1           0        0.540188    2.564997    1.004110
     13          1           0        1.389188    2.602499   -0.549890
     14          1           0       -0.337613    3.028395   -0.471590
     15          6           0        1.124994   -0.031701    0.285910
     16          8           0        1.064694   -0.395102    1.456810
     17          7           0        2.156794   -0.335599   -0.549390
     18          1           0        2.062394   -0.097399   -1.526790
     19          6           0        3.264096   -1.188897   -0.150990
     20          1           0        3.203296   -1.319197    0.930110
     21          1           0        3.206298   -2.173797   -0.630390
     22          1           0        4.222295   -0.724595   -0.408390
 ---------------------------------------------------------------------

 SCF Done:  E(RHF) =  -492.927720046     A.U. after   14 cycles
 E2 =    -0.1599719549D+01 EUMP2 =    -0.49452743959539D+03

 The electronic state is 1-A.
 Alpha  occ. eigenvalues --  -20.53605 -20.53294 -15.60167 -15.58999 -11.36257
 Alpha  occ. eigenvalues --  -11.36177 -11.29024 -11.27171 -11.24348 -11.24223
 Alpha  occ. eigenvalues --   -1.39208  -1.38256  -1.23904  -1.23482  -1.05545
 Alpha  occ. eigenvalues --   -0.99125  -0.96144  -0.87535  -0.79973  -0.78336
 Alpha  occ. eigenvalues --   -0.73089  -0.67491  -0.66191  -0.63605  -0.62632
 Alpha  occ. eigenvalues --   -0.61937  -0.59995  -0.58301  -0.57499  -0.56496
 Alpha  occ. eigenvalues --   -0.55082  -0.53863  -0.52762  -0.51429  -0.50374
 Alpha  occ. eigenvalues --   -0.43507  -0.42705  -0.40147  -0.39238
 Alpha virt. eigenvalues --    0.03050   0.03842   0.04351   0.04824   0.05610
 Alpha virt. eigenvalues --    0.06129   0.06171   0.07084   0.07205   0.07857
 Alpha virt. eigenvalues --    0.09246   0.09602   0.10550   0.11917   0.12648

 Mulliken atomic charges:
              1
     1  H   -0.013530
     2  C    0.339296
     3  H    0.063286
     4  H   -0.073733
     5  C    0.651804
     6  O   -0.852827
     7  N   -0.459281
     8  H   -0.014058
     9  C   -0.227049
    10  H   -0.185749
    11  C    0.820449
    12  H   -0.021406
    13  H   -0.040134
    14  H   -0.046244
    15  C    1.180980
    16  O   -0.878738
    17  N   -0.482431
    18  H   -0.109883
    19  C    0.708285
    20  H   -0.143857
    21  H   -0.083156
    22  H   -0.132024
 Sum of Mulliken atomic charges =   0.00000

 Dipole moment (field-independent basis, Debye):
    X=              1.4997    Y=              1.5540    Z=             -0.0837  Tot=              2.1613
 Quadrupole moment (field-independent basis, Debye-Ang):
   XX=            -53.0624   YY=            -60.1658   ZZ=            -66.7745
   XY=             -1.5585   XZ=            -12.8938   YZ=             -1.5033

 Normal termination of Gaussian 09 at Mon Feb 13 11:14:21 2017.
