 Gaussian 09, Revision A.02,
 Gaussian 09:  EM64L-G09RevA.02 11-Jun-2009

 -------------------
 #SP MP2/aug-cc-pVDZ
 -------------------

 -------------------------------
 Single Point calculation at MP2
 -------------------------------
 Symbolic Z-matrix:
 Charge =  0 Multiplicity = 1

                         Standard orientation:
 ---------------------------------------------------------------------
 Center     Atomic      Atomic             Coordinates (Angstroms)
 Number     Number       Type             X           Y           Z
 ---------------------------------------------------------------------
      1          1           0        3.460605   -1.679987   -0.485409
      2          6           0        3.225406   -0.615687   -0.563209
      3          1           0        3.181106   -0.330487   -1.619209
      4          1           0        4.043706   -0.062887   -0.088409
      5          6           0        1.937806   -0.337886    0.198991
      6          8           0        1.705106   -0.836086    1.294891
      7          7           0        1.057007    0.510515   -0.418009
      8          1           0        1.300607    0.890115   -1.322609
      9          6           0       -0.127093    1.059915    0.240791
     10          1           0        0.095607    1.062115    1.314891
     11          6           0       -0.384592    2.492216   -0.232009
     12          1           0       -0.532692    2.527416   -1.319009
     13          1           0       -1.294292    2.869016    0.237491
     14          1           0        0.457208    3.141615    0.028291
     15          6           0       -1.414293    0.209816    0.102191
     16          8           0       -2.504993    0.703417    0.368991
     17          7           0       -1.250094   -1.071884   -0.324109
     18          1           0       -0.309994   -1.440284   -0.326209
     19          6           0       -2.355695   -2.014983   -0.333309
     20          1           0       -3.281894   -1.443683   -0.407209
     21          1           0       -2.269895   -2.685983   -1.194009
     22          1           0       -2.388595   -2.616383    0.584491
 ---------------------------------------------------------------------

 SCF Done:  E(RHF) =  -492.925112462     A.U. after   14 cycles
 E2 =    -0.1601991214D+01 EUMP2 =    -0.49452710367578D+03

 The electronic state is 1-A.
 Alpha  occ. eigenvalues --  -20.54351 -20.52607 -15.61061 -15.58970 -11.37641
 Alpha  occ. eigenvalues --  -11.35562 -11.29541 -11.26313 -11.25993 -11.23839
 Alpha  occ. eigenvalues --   -1.39800  -1.37980  -1.25399  -1.22415  -1.06012
 Alpha  occ. eigenvalues --   -1.00066  -0.95780  -0.87683  -0.81256  -0.78344
 Alpha  occ. eigenvalues --   -0.72757  -0.68762  -0.67389  -0.63631  -0.62174
 Alpha  occ. eigenvalues --   -0.62050  -0.59706  -0.59298  -0.58236  -0.55195
 Alpha  occ. eigenvalues --   -0.54580  -0.54254  -0.53216  -0.52231  -0.49787
 Alpha  occ. eigenvalues --   -0.44686  -0.43726  -0.39952  -0.38280
 Alpha virt. eigenvalues --    0.02337   0.03770   0.04265   0.04537   0.05748
 Alpha virt. eigenvalues --    0.06208   0.06274   0.06640   0.07029   0.08069
 Alpha virt. eigenvalues --    0.08926   0.09548   0.11393   0.11927   0.12448

 Mulliken atomic charges:
              1
     1  H    0.030005
     2  C    0.350733
     3  H   -0.146986
     4  H    0.059137
     5  C    0.505372
     6  O   -0.843902
     7  N   -0.307136
     8  H   -0.060600
     9  C   -0.115298
    10  H    0.020037
    11  C    0.744043
    12  H   -0.050786
    13  H   -0.045734
    14  H   -0.038113
    15  C    0.945306
    16  O   -0.852790
    17  N   -0.505371
    18  H   -0.068446
    19  C    0.734493
    20  H   -0.141526
    21  H   -0.143824
    22  H   -0.068614
 Sum of Mulliken atomic charges =   0.00000

 Dipole moment (field-independent basis, Debye):
    X=              3.5384    Y=             -0.0961    Z=             -3.9340  Tot=              5.2921
 Quadrupole moment (field-independent basis, Debye-Ang):
   XX=            -65.1234   YY=            -57.1641   ZZ=            -63.8804
   XY=              7.4820   XZ=             -4.4962   YZ=              2.2915

 Normal termination of Gaussian 09 at Mon Feb 13 11:18:41 2017.
