 Gaussian 09, Revision A.02,
 Gaussian 09:  EM64L-G09RevA.02 11-Jun-2009

 -------------------
 #SP MP2/aug-cc-pVDZ
 -------------------

 -------------------------------
 Single Point calculation at MP2
 -------------------------------
 Symbolic Z-matrix:
 Charge =  0 Multiplicity = 1

                         Standard orientation:
 ---------------------------------------------------------------------
 Center     Atomic      Atomic             Coordinates (Angstroms)
 Number     Number       Type             X           Y           Z
 ---------------------------------------------------------------------
      1          1           0       -4.048094   -0.976684    0.527496
      2          6           0       -3.039094   -0.903586    0.937096
      3          1           0       -2.645696   -1.919187    1.065696
      4          1           0       -3.075993   -0.422386    1.920596
      5          6           0       -2.158193   -0.154588   -0.049604
      6          8           0       -2.392793   -0.115487   -1.246104
      7          7           0       -1.085891    0.509510    0.523796
      8          1           0       -0.878692    0.265309    1.485396
      9          6           0        0.064310    0.889808   -0.291804
     10          1           0       -0.320190    0.915908   -1.316104
     11          6           0        0.573212    2.281807    0.096196
     12          1           0        0.916812    2.321306    1.138196
     13          1           0        1.394913    2.603405   -0.554804
     14          1           0       -0.238486    3.006908   -0.008404
     15          6           0        1.094107   -0.268995   -0.270604
     16          8           0        0.765205   -1.394494   -0.621704
     17          7           0        2.335008    0.021203    0.225596
     18          1           0        2.564110    0.980002    0.438596
     19          6           0        3.401006   -0.965499    0.271296
     20          1           0        2.955404   -1.936798    0.053496
     21          1           0        4.178706   -0.756201   -0.473904
     22          1           0        3.862006   -0.990400    1.264996
 ---------------------------------------------------------------------

 SCF Done:  E(RHF) =  -492.916877470     A.U. after   14 cycles
 E2 =    -0.1601912941D+01 EUMP2 =    -0.49451879041139D+03

 The electronic state is 1-A.
 Alpha  occ. eigenvalues --  -20.52959 -20.52734 -15.60239 -15.59366 -11.36172
 Alpha  occ. eigenvalues --  -11.35817 -11.29159 -11.27219 -11.24952 -11.24188
 Alpha  occ. eigenvalues --   -1.38850  -1.37827  -1.23974  -1.23246  -1.05623
 Alpha  occ. eigenvalues --   -0.99076  -0.95826  -0.88677  -0.79410  -0.78991
 Alpha  occ. eigenvalues --   -0.72824  -0.67144  -0.65468  -0.64892  -0.62433
 Alpha  occ. eigenvalues --   -0.61404  -0.59053  -0.58781  -0.57257  -0.56405
 Alpha  occ. eigenvalues --   -0.55122  -0.54770  -0.53070  -0.51220  -0.50081
 Alpha  occ. eigenvalues --   -0.43839  -0.42006  -0.39668  -0.38840
 Alpha virt. eigenvalues --    0.02440   0.03623   0.04005   0.04581   0.05588
 Alpha virt. eigenvalues --    0.06009   0.06069   0.06764   0.07394   0.08086
 Alpha virt. eigenvalues --    0.08791   0.09009   0.11391   0.11854   0.12648

 Mulliken atomic charges:
              1
     1  H   -0.029338
     2  C    0.317487
     3  H    0.072492
     4  H   -0.064917
     5  C    0.732561
     6  O   -0.829882
     7  N   -0.516924
     8  H   -0.082504
     9  C   -0.237165
    10  H   -0.075427
    11  C    0.832163
    12  H    0.043174
    13  H    0.019076
    14  H   -0.164279
    15  C    1.114219
    16  O   -0.873007
    17  N   -0.534088
    18  H   -0.148678
    19  C    0.780596
    20  H   -0.148231
    21  H   -0.083503
    22  H   -0.123827
 Sum of Mulliken atomic charges =   0.00000

 Dipole moment (field-independent basis, Debye):
    X=              3.3147    Y=              2.8407    Z=              4.5878  Tot=              6.3328
 Quadrupole moment (field-independent basis, Debye-Ang):
   XX=            -54.9730   YY=            -62.1431   ZZ=            -63.2639
   XY=              3.9826   XZ=             -7.0810   YZ=             -3.6563

 Normal termination of Gaussian 09 at Mon Feb 13 11:20:16 2017.
