 Gaussian 09, Revision A.02,
 Gaussian 09:  EM64L-G09RevA.02 11-Jun-2009

 -------------------
 #SP MP2/aug-cc-pVDZ
 -------------------

 -------------------------------
 Single Point calculation at MP2
 -------------------------------
 Symbolic Z-matrix:
 Charge =  0 Multiplicity = 1

                         Standard orientation:
 ---------------------------------------------------------------------
 Center     Atomic      Atomic             Coordinates (Angstroms)
 Number     Number       Type             X           Y           Z
 ---------------------------------------------------------------------
      1          1           0        3.350904   -1.570233   -0.896091
      2          6           0        3.217312   -0.518532   -0.627991
      3          1           0        3.295316    0.095868   -1.530191
      4          1           0        4.032014   -0.249438    0.052609
      5          6           0        1.897713   -0.361522    0.107609
      6          8           0        1.601807   -1.074620    1.069109
      7          7           0        1.053920    0.595484   -0.363591
      8          1           0        1.332824    1.137682   -1.169691
      9          6           0       -0.138477    1.050193    0.361009
     10          1           0        0.068122    0.865992    1.423009
     11          6           0       -0.366066    2.540095    0.122809
     12          1           0       -0.528564    2.748296   -0.940991
     13          1           0       -1.263363    2.866402    0.651309
     14          1           0        0.492839    3.120589    0.474909
     15          6           0       -1.407483    0.228903    0.007509
     16          8           0       -2.480179    0.774011   -0.229491
     17          7           0       -1.206693   -1.116499   -0.022291
     18          1           0       -0.336396   -1.460805    0.375709
     19          6           0       -2.300400   -2.048291   -0.233291
     20          1           0       -3.112196   -1.510684   -0.725291
     21          1           0       -1.973006   -2.877193   -0.869591
     22          1           0       -2.677703   -2.459588    0.712609
 ---------------------------------------------------------------------

 SCF Done:  E(RHF) =  -492.927219085     A.U. after   14 cycles
 E2 =    -0.1602844696D+01 EUMP2 =    -0.49453006378043D+03

 The electronic state is 1-A.
 Alpha  occ. eigenvalues --  -20.54472 -20.52652 -15.61246 -15.57955 -11.37876
 Alpha  occ. eigenvalues --  -11.35260 -11.29612 -11.26013 -11.25853 -11.23671
 Alpha  occ. eigenvalues --   -1.39902  -1.37773  -1.25383  -1.21935  -1.06077
 Alpha  occ. eigenvalues --   -1.00135  -0.95538  -0.87328  -0.81428  -0.77702
 Alpha  occ. eigenvalues --   -0.72330  -0.69118  -0.67448  -0.63885  -0.62080
 Alpha  occ. eigenvalues --   -0.61479  -0.59801  -0.59233  -0.58198  -0.54677
 Alpha  occ. eigenvalues --   -0.54443  -0.53382  -0.53118  -0.52220  -0.50507
 Alpha  occ. eigenvalues --   -0.44690  -0.43936  -0.39698  -0.37894
 Alpha virt. eigenvalues --    0.02486   0.04006   0.04379   0.04428   0.05867
 Alpha virt. eigenvalues --    0.06015   0.06427   0.06791   0.07098   0.08069
 Alpha virt. eigenvalues --    0.09324   0.10036   0.11095   0.12094   0.12246

 Mulliken atomic charges:
              1
     1  H    0.047735
     2  C    0.398467
     3  H   -0.145463
     4  H    0.063417
     5  C    0.532253
     6  O   -0.910935
     7  N   -0.325644
     8  H   -0.075090
     9  C   -0.096246
    10  H   -0.107186
    11  C    0.797230
    12  H   -0.047312
    13  H   -0.042350
    14  H   -0.032591
    15  C    0.945894
    16  O   -0.812226
    17  N   -0.480585
    18  H   -0.089637
    19  C    0.748547
    20  H   -0.151913
    21  H   -0.139602
    22  H   -0.076760
 Sum of Mulliken atomic charges =   0.00000

 Dipole moment (field-independent basis, Debye):
    X=              3.7608    Y=              0.5071    Z=             -1.9279  Tot=              4.2565
 Quadrupole moment (field-independent basis, Debye-Ang):
   XX=            -64.5066   YY=            -58.6389   ZZ=            -62.0092
   XY=              8.6520   XZ=             -7.2396   YZ=              2.8484

 Normal termination of Gaussian 09 at Mon Feb 13 12:52:17 2017.
