 Gaussian 09, Revision A.02,
 Gaussian 09:  EM64L-G09RevA.02 11-Jun-2009

 -------------------
 #SP MP2/aug-cc-pVDZ
 -------------------

 -------------------------------
 Single Point calculation at MP2
 -------------------------------
 Symbolic Z-matrix:
 Charge =  0 Multiplicity = 1

                         Standard orientation:
 ---------------------------------------------------------------------
 Center     Atomic      Atomic             Coordinates (Angstroms)
 Number     Number       Type             X           Y           Z
 ---------------------------------------------------------------------
      1          1           0        3.260187   -1.581748   -1.028097
      2          6           0        3.179500   -0.544147   -0.691597
      3          1           0        3.269708    0.121652   -1.555297
      4          1           0        4.017002   -0.355857   -0.011897
      5          6           0        1.881602   -0.375831    0.078603
      6          8           0        1.590293   -1.112227    1.024403
      7          7           0        1.058014    0.622779   -0.338097
      8          1           0        1.323821    1.181276   -1.137497
      9          6           0       -0.133281    1.042394    0.410303
     10          1           0        0.068816    0.790991    1.457903
     11          6           0       -0.355262    2.543297    0.257503
     12          1           0       -0.553059    2.806099   -0.786997
     13          1           0       -1.230958    2.851808    0.832903
     14          1           0        0.519045    3.097986    0.613603
     15          6           0       -1.387591    0.242409   -0.031297
     16          8           0       -2.375184    0.792322   -0.507397
     17          7           0       -1.264607   -1.097992    0.158503
     18          1           0       -0.408711   -1.432603    0.595203
     19          6           0       -2.313219   -2.037579   -0.190897
     20          1           0       -3.134312   -1.470969   -0.632697
     21          1           0       -1.955228   -2.777584   -0.916997
     22          1           0       -2.681525   -2.568575    0.695303
 ---------------------------------------------------------------------

 SCF Done:  E(RHF) =  -492.928259764     A.U. after   14 cycles
 E2 =    -0.1603036739D+01 EUMP2 =    -0.49453129650324D+03

 The electronic state is 1-A.
 Alpha  occ. eigenvalues --  -20.54428 -20.52548 -15.61300 -15.57921 -11.37877
 Alpha  occ. eigenvalues --  -11.35199 -11.29497 -11.25964 -11.25849 -11.23600
 Alpha  occ. eigenvalues --   -1.39857  -1.37657  -1.25331  -1.21967  -1.06055
 Alpha  occ. eigenvalues --   -1.00103  -0.95620  -0.87217  -0.81428  -0.77739
 Alpha  occ. eigenvalues --   -0.72317  -0.69111  -0.67394  -0.63973  -0.62077
 Alpha  occ. eigenvalues --   -0.61117  -0.60110  -0.59342  -0.58103  -0.54762
 Alpha  occ. eigenvalues --   -0.54336  -0.53283  -0.52785  -0.52142  -0.50957
 Alpha  occ. eigenvalues --   -0.44636  -0.43835  -0.39372  -0.37959
 Alpha virt. eigenvalues --    0.02545   0.04058   0.04295   0.04525   0.05822
 Alpha virt. eigenvalues --    0.05996   0.06449   0.06896   0.07033   0.08122
 Alpha virt. eigenvalues --    0.09314   0.09988   0.11159   0.12102   0.12168

 Mulliken atomic charges:
              1
     1  H    0.049406
     2  C    0.412047
     3  H   -0.148309
     4  H    0.059584
     5  C    0.551479
     6  O   -0.921685
     7  N   -0.370653
     8  H   -0.075175
     9  C   -0.131042
    10  H   -0.153889
    11  C    0.792227
    12  H   -0.024400
    13  H   -0.052084
    14  H   -0.027103
    15  C    1.051336
    16  O   -0.812349
    17  N   -0.493898
    18  H   -0.087416
    19  C    0.749859
    20  H   -0.164551
    21  H   -0.105811
    22  H   -0.097570
 Sum of Mulliken atomic charges =   0.00000

 Dipole moment (field-independent basis, Debye):
    X=              3.5665    Y=              0.4809    Z=             -1.3822  Tot=              3.8551
 Quadrupole moment (field-independent basis, Debye-Ang):
   XX=            -63.7053   YY=            -58.9832   ZZ=            -62.1206
   XY=              8.6553   XZ=             -8.7112   YZ=              3.4273

 Normal termination of Gaussian 09 at Mon Feb 13 12:54:21 2017.
