 Gaussian 09, Revision A.02,
 Gaussian 09:  EM64L-G09RevA.02 11-Jun-2009

 -------------------
 #SP MP2/aug-cc-pVDZ
 -------------------

 -------------------------------
 Single Point calculation at MP2
 -------------------------------
 Symbolic Z-matrix:
 Charge =  0 Multiplicity = 1

                         Standard orientation:
 ---------------------------------------------------------------------
 Center     Atomic      Atomic             Coordinates (Angstroms)
 Number     Number       Type             X           Y           Z
 ---------------------------------------------------------------------
      1          1           0        3.414703   -1.765507   -0.352991
      2          6           0        3.203807   -0.708306   -0.533291
      3          1           0        3.133408   -0.532906   -1.611691
      4          1           0        4.051010   -0.134610   -0.141491
      5          6           0        1.948609   -0.319101    0.235209
      6          8           0        1.757007   -0.662900    1.392909
      7          7           0        1.047812    0.454203   -0.459591
      8          1           0        1.296514    0.773702   -1.385991
      9          6           0       -0.116085    1.066608    0.178409
     10          1           0        0.135315    1.186907    1.237709
     11          6           0       -0.412479    2.437409   -0.437191
     12          1           0       -0.604280    2.354310   -1.514991
     13          1           0       -1.306277    2.853813    0.031009
     14          1           0        0.427824    3.122106   -0.283491
     15          6           0       -1.397489    0.201414    0.178009
     16          8           0       -2.425487    0.646318    0.677509
     17          7           0       -1.302194   -1.019987   -0.408891
     18          1           0       -0.385695   -1.318491   -0.708291
     19          6           0       -2.391998   -1.978282   -0.389491
     20          1           0       -3.285996   -1.451278   -0.052891
     21          1           0       -2.566700   -2.386781   -1.391091
     22          1           0       -2.187502   -2.806583    0.300309
 ---------------------------------------------------------------------

 SCF Done:  E(RHF) =  -492.925085682     A.U. after   14 cycles
 E2 =    -0.1601979227D+01 EUMP2 =    -0.49452706490932D+03

 The electronic state is 1-A.
 Alpha  occ. eigenvalues --  -20.54260 -20.52349 -15.61057 -15.59190 -11.37541
 Alpha  occ. eigenvalues --  -11.35493 -11.29359 -11.26477 -11.25970 -11.24111
 Alpha  occ. eigenvalues --   -1.39759  -1.37818  -1.25412  -1.22509  -1.05988
 Alpha  occ. eigenvalues --   -1.00088  -0.95943  -0.87813  -0.81158  -0.78464
 Alpha  occ. eigenvalues --   -0.72726  -0.68649  -0.67568  -0.63265  -0.62212
 Alpha  occ. eigenvalues --   -0.62112  -0.59860  -0.59398  -0.58222  -0.55676
 Alpha  occ. eigenvalues --   -0.54680  -0.54376  -0.53349  -0.52078  -0.49584
 Alpha  occ. eigenvalues --   -0.44531  -0.43542  -0.39590  -0.38597
 Alpha virt. eigenvalues --    0.02191   0.03690   0.04117   0.04563   0.05659
 Alpha virt. eigenvalues --    0.06120   0.06334   0.06522   0.07107   0.08103
 Alpha virt. eigenvalues --    0.08611   0.09384   0.11501   0.11839   0.12087

 Mulliken atomic charges:
              1
     1  H    0.031280
     2  C    0.346369
     3  H   -0.154106
     4  H    0.052606
     5  C    0.548361
     6  O   -0.842914
     7  N   -0.330368
     8  H   -0.051186
     9  C   -0.248340
    10  H    0.032878
    11  C    0.773473
    12  H   -0.053388
    13  H   -0.043535
    14  H   -0.047764
    15  C    1.077701
    16  O   -0.881093
    17  N   -0.525166
    18  H   -0.070425
    19  C    0.726538
    20  H   -0.148053
    21  H   -0.113359
    22  H   -0.079508
 Sum of Mulliken atomic charges =   0.00000

 Dipole moment (field-independent basis, Debye):
    X=              3.3192    Y=             -0.3782    Z=             -5.0725  Tot=              6.0738
 Quadrupole moment (field-independent basis, Debye-Ang):
   XX=            -64.6318   YY=            -56.4771   ZZ=            -65.0395
   XY=              6.4728   XZ=             -3.1490   YZ=              1.8604

 Normal termination of Gaussian 09 at Mon Feb 13 11:09:42 2017.
