 Gaussian 09, Revision A.02,
 Gaussian 09:  EM64L-G09RevA.02 11-Jun-2009

 -------------------
 #SP MP2/aug-cc-pVDZ
 -------------------

 -------------------------------
 Single Point calculation at MP2
 -------------------------------
 Symbolic Z-matrix:
 Charge =  0 Multiplicity = 1

                         Standard orientation:
 ---------------------------------------------------------------------
 Center     Atomic      Atomic             Coordinates (Angstroms)
 Number     Number       Type             X           Y           Z
 ---------------------------------------------------------------------
      1          1           0       -4.021506   -0.949183    0.675319
      2          6           0       -2.985806   -0.925586    1.019419
      3          1           0       -2.629209   -1.959987    1.094519
      4          1           0       -2.941304   -0.472786    2.015819
      5          6           0       -2.143103   -0.184589   -0.007381
      6          8           0       -2.420503   -0.165388   -1.194881
      7          7           0       -1.056601    0.493107    0.519319
      8          1           0       -0.819102    0.280307    1.481219
      9          6           0        0.056701    0.907504   -0.333781
     10          1           0       -0.361199    0.938005   -1.343281
     11          6           0        0.555905    2.300802    0.060519
     12          1           0        0.882105    2.344601    1.108619
     13          1           0        1.389506    2.619099   -0.575981
     14          1           0       -0.255392    3.025305   -0.053881
     15          6           0        1.110697   -0.227100   -0.369681
     16          8           0        0.879693   -1.275499   -0.955681
     17          7           0        2.248897   -0.020504    0.363719
     18          1           0        2.428100    0.900896    0.733619
     19          6           0        3.326494   -0.995107    0.405719
     20          1           0        2.931191   -1.935606    0.020319
     21          1           0        4.177295   -0.688810   -0.216281
     22          1           0        3.674594   -1.138509    1.434319
 ---------------------------------------------------------------------

 SCF Done:  E(RHF) =  -492.915989137     A.U. after   14 cycles
 E2 =    -0.1601968838D+01 EUMP2 =    -0.49451795797428D+03

 The electronic state is 1-A.
 Alpha  occ. eigenvalues --  -20.53020 -20.52832 -15.60183 -15.59688 -11.36102
 Alpha  occ. eigenvalues --  -11.36002 -11.29165 -11.27207 -11.25030 -11.24421
 Alpha  occ. eigenvalues --   -1.38849  -1.37946  -1.24166  -1.23174  -1.05724
 Alpha  occ. eigenvalues --   -0.99213  -0.95837  -0.88749  -0.79455  -0.79178
 Alpha  occ. eigenvalues --   -0.72756  -0.67261  -0.65588  -0.64904  -0.62540
 Alpha  occ. eigenvalues --   -0.61424  -0.59106  -0.58758  -0.57479  -0.56538
 Alpha  occ. eigenvalues --   -0.55196  -0.54758  -0.52815  -0.51312  -0.50427
 Alpha  occ. eigenvalues --   -0.44171  -0.42116  -0.39641  -0.38705
 Alpha virt. eigenvalues --    0.02333   0.03612   0.03938   0.04583   0.05527
 Alpha virt. eigenvalues --    0.05997   0.06099   0.06640   0.07496   0.07977
 Alpha virt. eigenvalues --    0.08714   0.09081   0.11419   0.11586   0.12679

 Mulliken atomic charges:
              1
     1  H   -0.018895
     2  C    0.321420
     3  H    0.065773
     4  H   -0.080401
     5  C    0.712901
     6  O   -0.821052
     7  N   -0.485253
     8  H   -0.083788
     9  C   -0.131835
    10  H   -0.099760
    11  C    0.766104
    12  H    0.030745
    13  H   -0.013284
    14  H   -0.149701
    15  C    1.086276
    16  O   -0.864188
    17  N   -0.525096
    18  H   -0.131343
    19  C    0.778830
    20  H   -0.143069
    21  H   -0.081608
    22  H   -0.132777
 Sum of Mulliken atomic charges =   0.00000

 Dipole moment (field-independent basis, Debye):
    X=              3.0836    Y=              2.7510    Z=              5.2940  Tot=              6.7159
 Quadrupole moment (field-independent basis, Debye-Ang):
   XX=            -56.3507   YY=            -61.2457   ZZ=            -63.8584
   XY=              3.7440   XZ=             -5.8295   YZ=             -4.5555

 Normal termination of Gaussian 09 at Mon Feb 13 11:46:09 2017.
