 Gaussian 09, Revision A.02,
 Gaussian 09:  EM64L-G09RevA.02 11-Jun-2009

 -------------------
 #SP MP2/aug-cc-pVDZ
 -------------------

 -------------------------------
 Single Point calculation at MP2
 -------------------------------
 Symbolic Z-matrix:
 Charge =  0 Multiplicity = 1

                         Standard orientation:
 ---------------------------------------------------------------------
 Center     Atomic      Atomic             Coordinates (Angstroms)
 Number     Number       Type             X           Y           Z
 ---------------------------------------------------------------------
      1          1           0       -3.025677   -1.749331    1.228377
      2          6           0       -3.121288   -0.755832    0.779377
      3          1           0       -3.268996   -0.017134    1.573077
      4          1           0       -4.009088   -0.771742    0.139777
      5          6           0       -1.902391   -0.487319   -0.087223
      6          8           0       -1.606283   -1.212415   -1.034723
      7          7           0       -1.168303    0.618790    0.240577
      8          1           0       -1.328008    1.087288    1.121977
      9          6           0        0.048493    0.955103   -0.496523
     10          1           0       -0.093502    0.558102   -1.503623
     11          6           0        0.253476    2.469005   -0.537923
     12          1           0        0.442472    2.854007    0.469077
     13          1           0        1.123174    2.717615   -1.155123
     14          1           0       -0.627229    2.963096   -0.959923
     15          6           0        1.247101    0.268516    0.190177
     16          8           0        1.721396    0.701522    1.234977
     17          7           0        1.725113   -0.820678   -0.477323
     18          1           0        1.110117   -1.223985   -1.174223
     19          6           0        2.765222   -1.665767    0.086977
     20          1           0        3.362216   -1.054560    0.765177
     21          1           0        2.348932   -2.509471    0.653177
     22          1           0        3.403327   -2.055760   -0.711723
 ---------------------------------------------------------------------

 SCF Done:  E(RHF) =  -492.928624945     A.U. after   14 cycles
 E2 =    -0.1601153478D+01 EUMP2 =    -0.49452977842270D+03

 The electronic state is 1-A.
 Alpha  occ. eigenvalues --  -20.53728 -20.53105 -15.60476 -15.59249 -11.37131
 Alpha  occ. eigenvalues --  -11.35625 -11.29103 -11.26465 -11.25297 -11.23619
 Alpha  occ. eigenvalues --   -1.39254  -1.38172  -1.24598  -1.22870  -1.05771
 Alpha  occ. eigenvalues --   -0.99659  -0.95882  -0.87273  -0.80658  -0.78317
 Alpha  occ. eigenvalues --   -0.72687  -0.68190  -0.66714  -0.64273  -0.62116
 Alpha  occ. eigenvalues --   -0.61611  -0.59989  -0.58912  -0.57598  -0.55960
 Alpha  occ. eigenvalues --   -0.54368  -0.53659  -0.51908  -0.51732  -0.51350
 Alpha  occ. eigenvalues --   -0.44047  -0.43259  -0.39750  -0.38720
 Alpha virt. eigenvalues --    0.03019   0.03903   0.04214   0.04945   0.05718
 Alpha virt. eigenvalues --    0.05987   0.06203   0.07152   0.07342   0.07951
 Alpha virt. eigenvalues --    0.08991   0.09545   0.11347   0.11933   0.12141

 Mulliken atomic charges:
              1
     1  H    0.049042
     2  C    0.401736
     3  H   -0.146431
     4  H    0.050742
     5  C    0.622443
     6  O   -0.879548
     7  N   -0.330302
     8  H   -0.081964
     9  C   -0.226638
    10  H   -0.287508
    11  C    0.716682
    12  H   -0.016621
    13  H   -0.009913
    14  H   -0.010177
    15  C    1.214950
    16  O   -0.844895
    17  N   -0.553080
    18  H   -0.039870
    19  C    0.733321
    20  H   -0.129649
    21  H   -0.085559
    22  H   -0.146760
 Sum of Mulliken atomic charges =   0.00000

 Dipole moment (field-independent basis, Debye):
    X=             -1.5733    Y=              0.3494    Z=              0.0204  Tot=              1.6118
 Quadrupole moment (field-independent basis, Debye-Ang):
   XX=            -57.7614   YY=            -60.0697   ZZ=            -64.6095
   XY=             -7.5034   XZ=            -10.8945   YZ=             -4.3916

 Normal termination of Gaussian 09 at Mon Feb 13 11:23:23 2017.
