 Gaussian 09, Revision A.02,
 Gaussian 09:  EM64L-G09RevA.02 11-Jun-2009

 -------------------
 #SP MP2/aug-cc-pVDZ
 -------------------

 -------------------------------
 Single Point calculation at MP2
 -------------------------------
 Symbolic Z-matrix:
 Charge =  0 Multiplicity = 1

                         Standard orientation:
 ---------------------------------------------------------------------
 Center     Atomic      Atomic             Coordinates (Angstroms)
 Number     Number       Type             X           Y           Z
 ---------------------------------------------------------------------
      1          1           0        3.330901   -1.869993   -0.706500
      2          6           0        3.206600   -0.785693   -0.780100
      3          1           0        3.070699   -0.514893   -1.832200
      4          1           0        4.129599   -0.326892   -0.411400
      5          6           0        2.054299   -0.365195    0.122600
      6          8           0        2.018700   -0.651395    1.308600
      7          7           0        1.052198    0.348304   -0.497100
      8          1           0        1.233698    0.697404   -1.428800
      9          6           0       -0.032803    0.974703    0.261500
     10          1           0        0.336797    1.138003    1.276900
     11          6           0       -0.440504    2.305302   -0.377700
     12          1           0       -0.791404    2.170602   -1.408200
     13          1           0       -1.256105    2.760701    0.191600
     14          1           0        0.405095    3.002003   -0.384500
     15          6           0       -1.249001    0.038001    0.448900
     16          8           0       -1.717401   -0.184000    1.554900
     17          7           0       -1.837201   -0.388600   -0.715300
     18          1           0       -1.262201   -0.367099   -1.547300
     19          6           0       -2.941300   -1.335601   -0.696000
     20          1           0       -3.520400   -1.154802    0.210400
     21          1           0       -3.577400   -1.179902   -1.572700
     22          1           0       -2.598398   -2.379001   -0.683700
 ---------------------------------------------------------------------

 SCF Done:  E(RHF) =  -492.918251938     A.U. after   14 cycles
 E2 =    -0.1601085760D+01 EUMP2 =    -0.49451933769880D+03

 The electronic state is 1-A.
 Alpha  occ. eigenvalues --  -20.53553 -20.53046 -15.60703 -15.59253 -11.36875
 Alpha  occ. eigenvalues --  -11.35460 -11.29239 -11.26649 -11.25425 -11.25139
 Alpha  occ. eigenvalues --   -1.39173  -1.38168  -1.24945  -1.22515  -1.06095
 Alpha  occ. eigenvalues --   -0.99876  -0.95504  -0.88483  -0.80802  -0.78245
 Alpha  occ. eigenvalues --   -0.71818  -0.68095  -0.67479  -0.63588  -0.62493
 Alpha  occ. eigenvalues --   -0.61802  -0.59206  -0.59077  -0.58121  -0.56439
 Alpha  occ. eigenvalues --   -0.55055  -0.54516  -0.53346  -0.51713  -0.50305
 Alpha  occ. eigenvalues --   -0.44090  -0.42859  -0.39369  -0.39152
 Alpha virt. eigenvalues --    0.01999   0.03607   0.03830   0.04534   0.05558
 Alpha virt. eigenvalues --    0.05688   0.06259   0.06682   0.07195   0.07794
 Alpha virt. eigenvalues --    0.08583   0.09202   0.10781   0.11796   0.11923

 Mulliken atomic charges:
              1
     1  H    0.049260
     2  C    0.369091
     3  H   -0.183210
     4  H    0.049065
     5  C    0.563411
     6  O   -0.827139
     7  N   -0.311638
     8  H   -0.061317
     9  C    0.014642
    10  H   -0.177283
    11  C    0.864333
    12  H   -0.055514
    13  H   -0.060175
    14  H   -0.075849
    15  C    0.904855
    16  O   -0.813589
    17  N   -0.583984
    18  H   -0.055136
    19  C    0.746972
    20  H   -0.116551
    21  H   -0.159257
    22  H   -0.080989
 Sum of Mulliken atomic charges =   0.00000

 Dipole moment (field-independent basis, Debye):
    X=              0.9878    Y=              1.6325    Z=             -7.1276  Tot=              7.3786
 Quadrupole moment (field-independent basis, Debye-Ang):
   XX=            -58.8849   YY=            -57.6444   ZZ=            -67.2233
   XY=              2.6329   XZ=             -1.3975   YZ=              3.8380

 Normal termination of Gaussian 09 at Mon Feb 13 11:42:41 2017.
