 Gaussian 09, Revision A.02,
 Gaussian 09:  EM64L-G09RevA.02 11-Jun-2009

 -------------------
 #SP MP2/aug-cc-pVDZ
 -------------------

 -------------------------------
 Single Point calculation at MP2
 -------------------------------
 Symbolic Z-matrix:
 Charge =  0 Multiplicity = 1

                         Standard orientation:
 ---------------------------------------------------------------------
 Center     Atomic      Atomic             Coordinates (Angstroms)
 Number     Number       Type             X           Y           Z
 ---------------------------------------------------------------------
      1          1           0        4.063307   -1.079561    0.107690
      2          6           0        3.198006   -0.885466   -0.528010
      3          1           0        2.806711   -1.845168   -0.887310
      4          1           0        3.503103   -0.295264   -1.398610
      5          6           0        2.126402   -0.187472    0.291990
      6          8           0        2.084803   -0.245272    1.512590
      7          7           0        1.214598    0.541223   -0.452410
      8          1           0        1.143500    0.255423   -1.423110
      9          6           0       -0.063104    0.891616    0.143490
     10          1           0        0.111596    0.923617    1.223990
     11          6           0       -0.533011    2.268314   -0.354610
     12          1           0       -0.708411    2.255713   -1.436710
     13          1           0       -1.464013    2.583509    0.128090
     14          1           0        0.234685    3.017318   -0.140510
     15          6           0       -1.090297   -0.228589   -0.155910
     16          8           0       -0.800992   -1.194488   -0.853310
     17          7           0       -2.340299   -0.022196    0.351290
     18          1           0       -2.468903    0.731403    1.011890
     19          6           0       -3.404293   -1.004902    0.222190
     20          1           0       -3.129289   -1.682401   -0.586810
     21          1           0       -3.534490   -1.589803    1.141690
     22          1           0       -4.350596   -0.510907   -0.021510
 ---------------------------------------------------------------------

 SCF Done:  E(RHF) =  -492.925074765     A.U. after   14 cycles
 E2 =    -0.1599719995D+01 EUMP2 =    -0.49452479476004D+03

 The electronic state is 1-A.
 Alpha  occ. eigenvalues --  -20.53796 -20.53099 -15.60086 -15.58629 -11.36384
 Alpha  occ. eigenvalues --  -11.35819 -11.29073 -11.27226 -11.24613 -11.23985
 Alpha  occ. eigenvalues --   -1.39335  -1.38089  -1.23841  -1.23316  -1.05466
 Alpha  occ. eigenvalues --   -0.98943  -0.95888  -0.87933  -0.79688  -0.78198
 Alpha  occ. eigenvalues --   -0.73049  -0.67309  -0.66099  -0.63293  -0.62912
 Alpha  occ. eigenvalues --   -0.61810  -0.59701  -0.58373  -0.57212  -0.56406
 Alpha  occ. eigenvalues --   -0.55178  -0.54073  -0.53322  -0.51211  -0.50069
 Alpha  occ. eigenvalues --   -0.43306  -0.42447  -0.39983  -0.39620
 Alpha virt. eigenvalues --    0.02813   0.03855   0.04309   0.04671   0.05640
 Alpha virt. eigenvalues --    0.06090   0.06224   0.06919   0.07377   0.08024
 Alpha virt. eigenvalues --    0.09088   0.09629   0.10488   0.11755   0.12420

 Mulliken atomic charges:
              1
     1  H   -0.044823
     2  C    0.304343
     3  H    0.076849
     4  H   -0.029537
     5  C    0.686078
     6  O   -0.847688
     7  N   -0.558889
     8  H   -0.011122
     9  C   -0.028615
    10  H   -0.074072
    11  C    0.812680
    12  H   -0.032354
    13  H   -0.096650
    14  H   -0.057555
    15  C    0.994737
    16  O   -0.830607
    17  N   -0.523308
    18  H   -0.101731
    19  C    0.715725
    20  H   -0.136661
    21  H   -0.074727
    22  H   -0.142074
 Sum of Mulliken atomic charges =   0.00000

 Dipole moment (field-independent basis, Debye):
    X=             -2.5365    Y=              2.3572    Z=             -1.3551  Tot=              3.7184
 Quadrupole moment (field-independent basis, Debye-Ang):
   XX=            -52.0765   YY=            -61.8235   ZZ=            -65.2782
   XY=             -2.8900   XZ=            -11.5432   YZ=              0.0727

 Normal termination of Gaussian 09 at Mon Feb 13 11:28:26 2017.
