 Gaussian 09, Revision A.02,
 Gaussian 09:  EM64L-G09RevA.02 11-Jun-2009

 -------------------
 #SP MP2/aug-cc-pVDZ
 -------------------

 -------------------------------
 Single Point calculation at MP2
 -------------------------------
 Symbolic Z-matrix:
 Charge =  0 Multiplicity = 1

                         Standard orientation:
 ---------------------------------------------------------------------
 Center     Atomic      Atomic             Coordinates (Angstroms)
 Number     Number       Type             X           Y           Z
 ---------------------------------------------------------------------
      1          1           0        3.581605   -1.845726    0.123306
      2          6           0        3.195708   -1.042525   -0.509594
      3          1           0        2.849807   -1.466223   -1.457994
      4          1           0        4.026910   -0.358027   -0.712294
      5          6           0        2.114711   -0.294321    0.256806
      6          8           0        2.256712    0.037478    1.422906
      7          7           0        0.959911   -0.035817   -0.459894
      8          1           0        1.026311   -0.134917   -1.466194
      9          6           0       -0.051585    0.900986    0.033006
     10          1           0        0.293716    1.211585    1.022906
     11          6           0       -0.181081    2.133186   -0.872494
     12          1           0       -0.468682    1.846187   -1.892294
     13          1           0       -0.955279    2.794989   -0.476894
     14          1           0        0.767220    2.678183   -0.916894
     15          6           0       -1.440688    0.270191    0.251406
     16          8           0       -2.316585    0.904994    0.826206
     17          7           0       -1.639992   -0.950809   -0.324794
     18          1           0       -0.806693   -1.464511   -0.578994
     19          6           0       -2.880094   -1.685105   -0.137894
     20          1           0       -3.667192   -0.960202    0.074206
     21          1           0       -3.129096   -2.239404   -1.048494
     22          1           0       -2.820896   -2.389805    0.702106
 ---------------------------------------------------------------------

 SCF Done:  E(RHF) =  -492.923722573     A.U. after   14 cycles
 E2 =    -0.1601337236D+01 EUMP2 =    -0.49452505980858D+03

 The electronic state is 1-A.
 Alpha  occ. eigenvalues --  -20.54332 -20.52853 -15.60961 -15.59563 -11.37575
 Alpha  occ. eigenvalues --  -11.35748 -11.29102 -11.26841 -11.25891 -11.24142
 Alpha  occ. eigenvalues --   -1.39796  -1.38253  -1.25451  -1.22678  -1.05907
 Alpha  occ. eigenvalues --   -1.00063  -0.96038  -0.88001  -0.80782  -0.78473
 Alpha  occ. eigenvalues --   -0.73030  -0.68463  -0.66857  -0.63282  -0.62823
 Alpha  occ. eigenvalues --   -0.62337  -0.59641  -0.59249  -0.58402  -0.56636
 Alpha  occ. eigenvalues --   -0.54793  -0.54616  -0.53075  -0.52061  -0.49799
 Alpha  occ. eigenvalues --   -0.44420  -0.43567  -0.39717  -0.39408
 Alpha virt. eigenvalues --    0.02123   0.03645   0.04039   0.04632   0.05532
 Alpha virt. eigenvalues --    0.05965   0.06347   0.06531   0.07455   0.07976
 Alpha virt. eigenvalues --    0.08299   0.09321   0.11588   0.11974   0.12509

 Mulliken atomic charges:
              1
     1  H    0.033299
     2  C    0.357608
     3  H   -0.153383
     4  H    0.047476
     5  C    0.639434
     6  O   -0.845644
     7  N   -0.287120
     8  H   -0.061853
     9  C   -0.436929
    10  H    0.014436
    11  C    0.820985
    12  H   -0.060933
    13  H   -0.034278
    14  H   -0.069239
    15  C    1.161035
    16  O   -0.890705
    17  N   -0.568502
    18  H   -0.072411
    19  C    0.750001
    20  H   -0.129218
    21  H   -0.142824
    22  H   -0.071235
 Sum of Mulliken atomic charges =   0.00000

 Dipole moment (field-independent basis, Debye):
    X=              1.8711    Y=             -2.8296    Z=             -5.3510  Tot=              6.3357
 Quadrupole moment (field-independent basis, Debye-Ang):
   XX=            -65.7556   YY=            -57.0867   ZZ=            -65.7499
   XY=              4.1828   XZ=             -4.4810   YZ=             -1.3675

 Normal termination of Gaussian 09 at Mon Feb 13 08:31:29 2017.
