 Gaussian 09, Revision A.02,
 Gaussian 09:  EM64L-G09RevA.02 11-Jun-2009

 -------------------
 #SP MP2/aug-cc-pVDZ
 -------------------

 -------------------------------
 Single Point calculation at MP2
 -------------------------------
 Symbolic Z-matrix:
 Charge =  0 Multiplicity = 1

                         Standard orientation:
 ---------------------------------------------------------------------
 Center     Atomic      Atomic             Coordinates (Angstroms)
 Number     Number       Type             X           Y           Z
 ---------------------------------------------------------------------
      1          1           0        4.010509   -1.151209   -0.591210
      2          6           0        2.986909   -1.464008   -0.369310
      3          1           0        3.035708   -2.191808    0.448090
      4          1           0        2.561908   -1.954208   -1.251310
      5          6           0        2.196110   -0.250907    0.099190
      6          8           0        2.640111    0.535892    0.922690
      7          7           0        0.957510   -0.101006   -0.482210
      8          1           0        0.601009   -0.870906   -1.031910
      9          6           0       -0.011189    0.876295    0.019490
     10          1           0        0.428812    1.300194    0.923290
     11          6           0       -0.267088    2.000195   -0.997210
     12          1           0       -0.640288    1.615396   -1.955010
     13          1           0       -0.999587    2.715996   -0.607610
     14          1           0        0.667613    2.532694   -1.196310
     15          6           0       -1.304990    0.172596    0.469990
     16          8           0       -1.694890    0.198897    1.626990
     17          7           0       -1.955490   -0.535803   -0.515010
     18          1           0       -1.754590   -0.295703   -1.476910
     19          6           0       -3.234891   -1.179002   -0.249210
     20          1           0       -3.211891   -1.577202    0.765990
     21          1           0       -4.076890   -0.477901   -0.322710
     22          1           0       -3.387392   -1.997002   -0.958910
 ---------------------------------------------------------------------

 SCF Done:  E(RHF) =  -492.918072138     A.U. after   14 cycles
 E2 =    -0.1600764539D+01 EUMP2 =    -0.49451883667711D+03

 The electronic state is 1-A.
 Alpha  occ. eigenvalues --  -20.54158 -20.53263 -15.60411 -15.60296 -11.36692
 Alpha  occ. eigenvalues --  -11.36559 -11.29172 -11.27557 -11.25082 -11.24604
 Alpha  occ. eigenvalues --   -1.39476  -1.38632  -1.25098  -1.23070  -1.05948
 Alpha  occ. eigenvalues --   -0.99602  -0.96159  -0.88705  -0.80114  -0.79391
 Alpha  occ. eigenvalues --   -0.73380  -0.67779  -0.65926  -0.64262  -0.63483
 Alpha  occ. eigenvalues --   -0.61903  -0.59653  -0.59081  -0.58074  -0.57019
 Alpha  occ. eigenvalues --   -0.55735  -0.54613  -0.52620  -0.52160  -0.50277
 Alpha  occ. eigenvalues --   -0.44600  -0.42654  -0.40592  -0.39096
 Alpha virt. eigenvalues --    0.02090   0.03676   0.03979   0.04649   0.05644
 Alpha virt. eigenvalues --    0.05895   0.06288   0.06583   0.07459   0.07804
 Alpha virt. eigenvalues --    0.08450   0.09610   0.11145   0.11849   0.12173

 Mulliken atomic charges:
              1
     1  H    0.019879
     2  C    0.399479
     3  H    0.059838
     4  H   -0.174183
     5  C    0.598978
     6  O   -0.834705
     7  N   -0.179855
     8  H   -0.059675
     9  C   -0.226011
    10  H   -0.132349
    11  C    0.829479
    12  H   -0.124186
    13  H   -0.024390
    14  H   -0.085725
    15  C    0.951220
    16  O   -0.800461
    17  N   -0.539304
    18  H   -0.093475
    19  C    0.755363
    20  H   -0.105360
    21  H   -0.063355
    22  H   -0.171203
 Sum of Mulliken atomic charges =   0.00000

 Dipole moment (field-independent basis, Debye):
    X=             -1.7349    Y=             -2.4409    Z=             -6.0262  Tot=              6.7292
 Quadrupole moment (field-independent basis, Debye-Ang):
   XX=            -63.6702   YY=            -57.1039   ZZ=            -66.8803
   XY=             -4.4012   XZ=              1.3038   YZ=             -1.0718

 Normal termination of Gaussian 09 at Mon Feb 13 14:49:45 2017.
