 Gaussian 09, Revision A.02,
 Gaussian 09:  EM64L-G09RevA.02 11-Jun-2009

 -------------------
 #SP MP2/aug-cc-pVDZ
 -------------------

 -------------------------------
 Single Point calculation at MP2
 -------------------------------
 Symbolic Z-matrix:
 Charge =  0 Multiplicity = 1

                         Standard orientation:
 ---------------------------------------------------------------------
 Center     Atomic      Atomic             Coordinates (Angstroms)
 Number     Number       Type             X           Y           Z
 ---------------------------------------------------------------------
      1          1           0        3.635912   -1.820420    0.367092
      2          6           0        3.216112   -1.158120   -0.394508
      3          1           0        2.824212   -1.762820   -1.218608
      4          1           0        4.033813   -0.534121   -0.771808
      5          6           0        2.172213   -0.264620    0.260492
      6          8           0        2.380513    0.308980    1.317192
      7          7           0        0.972813   -0.170220   -0.422808
      8          1           0        1.000813   -0.461420   -1.393008
      9          6           0       -0.022287    0.847281   -0.074308
     10          1           0        0.367313    1.351581    0.811892
     11          6           0       -0.222087    1.861581   -1.209108
     12          1           0       -0.574787    1.371381   -2.125008
     13          1           0       -0.970486    2.604581   -0.917308
     14          1           0        0.717514    2.380281   -1.426508
     15          6           0       -1.379587    0.257781    0.357192
     16          8           0       -2.032487    0.779381    1.250192
     17          7           0       -1.862087   -0.758419   -0.427308
     18          1           0       -1.175088   -1.299019   -0.935808
     19          6           0       -3.113388   -1.424518   -0.096808
     20          1           0       -3.789787   -0.680418    0.325392
     21          1           0       -3.555288   -1.846318   -1.004408
     22          1           0       -2.979288   -2.226018    0.642092
 ---------------------------------------------------------------------

 SCF Done:  E(RHF) =  -492.919456125     A.U. after   14 cycles
 E2 =    -0.1600737016D+01 EUMP2 =    -0.49452019314080D+03

 The electronic state is 1-A.
 Alpha  occ. eigenvalues --  -20.54066 -20.53336 -15.60870 -15.59649 -11.37329
 Alpha  occ. eigenvalues --  -11.35803 -11.29057 -11.26929 -11.25681 -11.24618
 Alpha  occ. eigenvalues --   -1.39564  -1.38533  -1.25229  -1.22756  -1.05998
 Alpha  occ. eigenvalues --   -1.00014  -0.95785  -0.88383  -0.80642  -0.78578
 Alpha  occ. eigenvalues --   -0.72694  -0.68275  -0.66669  -0.63594  -0.62887
 Alpha  occ. eigenvalues --   -0.62277  -0.59400  -0.59130  -0.58430  -0.56956
 Alpha  occ. eigenvalues --   -0.54989  -0.54709  -0.52947  -0.51851  -0.50375
 Alpha  occ. eigenvalues --   -0.44485  -0.43313  -0.39692  -0.39606
 Alpha virt. eigenvalues --    0.02000   0.03631   0.03901   0.04621   0.05515
 Alpha virt. eigenvalues --    0.05748   0.06373   0.06645   0.07439   0.07799
 Alpha virt. eigenvalues --    0.08472   0.09366   0.10911   0.11743   0.12506

 Mulliken atomic charges:
              1
     1  H    0.033684
     2  C    0.386342
     3  H   -0.149852
     4  H    0.049979
     5  C    0.605499
     6  O   -0.838224
     7  N   -0.231834
     8  H   -0.067000
     9  C   -0.176647
    10  H   -0.114123
    11  C    0.827385
    12  H   -0.028925
    13  H   -0.065664
    14  H   -0.079230
    15  C    0.952906
    16  O   -0.850950
    17  N   -0.566420
    18  H   -0.074652
    19  C    0.743259
    20  H   -0.117040
    21  H   -0.165669
    22  H   -0.072823
 Sum of Mulliken atomic charges =   0.00000

 Dipole moment (field-independent basis, Debye):
    X=              0.8608    Y=             -3.2145    Z=             -6.1455  Tot=              6.9887
 Quadrupole moment (field-independent basis, Debye-Ang):
   XX=            -63.2940   YY=            -57.4293   ZZ=            -66.8509
   XY=              1.2746   XZ=             -2.8490   YZ=             -2.3084

 Normal termination of Gaussian 09 at Mon Feb 13 09:03:58 2017.
