 Gaussian 09, Revision A.02,
 Gaussian 09:  EM64L-G09RevA.02 11-Jun-2009

 -------------------
 #SP MP2/aug-cc-pVDZ
 -------------------

 -------------------------------
 Single Point calculation at MP2
 -------------------------------
 Symbolic Z-matrix:
 Charge =  0 Multiplicity = 1

                         Standard orientation:
 ---------------------------------------------------------------------
 Center     Atomic      Atomic             Coordinates (Angstroms)
 Number     Number       Type             X           Y           Z
 ---------------------------------------------------------------------
      1          1           0        4.082998   -0.735521   -0.941005
      2          6           0        3.074897   -1.149317   -0.857105
      3          1           0        3.155893   -2.114517   -0.345205
      4          1           0        2.669696   -1.318516   -1.860105
      5          6           0        2.230400   -0.213114   -0.005305
      6          8           0        2.644802    0.269385    1.038795
      7          7           0        0.975201    0.051991   -0.499105
      8          1           0        0.664700   -0.443708   -1.323505
      9          6           0       -0.026696    0.778995    0.278495
     10          1           0        0.407805    0.892093    1.273795
     11          6           0       -0.305590    2.167596   -0.312705
     12          1           0       -0.612790    2.119797   -1.366005
     13          1           0       -1.084188    2.690699    0.254295
     14          1           0        0.608812    2.766792   -0.273105
     15          6           0       -1.257599   -0.133800    0.466295
     16          8           0       -1.316702   -0.939000    1.384595
     17          7           0       -2.218999   -0.040296   -0.506505
     18          1           0       -2.181596    0.738603   -1.147705
     19          6           0       -3.444202   -0.821692   -0.455405
     20          1           0       -3.277805   -1.646492    0.238295
     21          1           0       -4.293900   -0.226688   -0.096405
     22          1           0       -3.685103   -1.219491   -1.446805
 ---------------------------------------------------------------------

 SCF Done:  E(RHF) =  -492.917845250     A.U. after   14 cycles
 E2 =    -0.1601416311D+01 EUMP2 =    -0.49451926156074D+03

 The electronic state is 1-A.
 Alpha  occ. eigenvalues --  -20.53497 -20.52939 -15.60371 -15.60117 -11.36423
 Alpha  occ. eigenvalues --  -11.36402 -11.29187 -11.27391 -11.24802 -11.24756
 Alpha  occ. eigenvalues --   -1.39087  -1.38275  -1.24620  -1.23290  -1.05867
 Alpha  occ. eigenvalues --   -0.99455  -0.96016  -0.89010  -0.79912  -0.79534
 Alpha  occ. eigenvalues --   -0.73067  -0.67485  -0.65804  -0.64941  -0.62806
 Alpha  occ. eigenvalues --   -0.61844  -0.59359  -0.58763  -0.57839  -0.56775
 Alpha  occ. eigenvalues --   -0.55482  -0.54746  -0.52927  -0.52013  -0.50286
 Alpha  occ. eigenvalues --   -0.43968  -0.42367  -0.39934  -0.39078
 Alpha virt. eigenvalues --    0.02242   0.03591   0.04012   0.04616   0.05608
 Alpha virt. eigenvalues --    0.05872   0.06253   0.06634   0.07579   0.07861
 Alpha virt. eigenvalues --    0.08327   0.09355   0.11555   0.11709   0.12415

 Mulliken atomic charges:
              1
     1  H    0.024640
     2  C    0.382519
     3  H    0.065261
     4  H   -0.152762
     5  C    0.599598
     6  O   -0.834186
     7  N   -0.353154
     8  H   -0.087507
     9  C   -0.090681
    10  H   -0.109810
    11  C    0.775004
    12  H   -0.030925
    13  H   -0.044022
    14  H   -0.122778
    15  C    1.083502
    16  O   -0.854431
    17  N   -0.555363
    18  H   -0.096922
    19  C    0.756118
    20  H   -0.138464
    21  H   -0.083181
    22  H   -0.132456
 Sum of Mulliken atomic charges =   0.00000

 Dipole moment (field-independent basis, Debye):
    X=             -2.5484    Y=              0.9951    Z=             -6.0024  Tot=              6.5964
 Quadrupole moment (field-independent basis, Debye-Ang):
   XX=            -59.6991   YY=            -59.4266   ZZ=            -65.5881
   XY=             -6.7564   XZ=             -2.8265   YZ=              3.4535

 Normal termination of Gaussian 09 at Mon Feb 13 08:58:39 2017.
