 Gaussian 09, Revision A.02,
 Gaussian 09:  EM64L-G09RevA.02 11-Jun-2009

 -------------------
 #SP MP2/aug-cc-pVDZ
 -------------------

 -------------------------------
 Single Point calculation at MP2
 -------------------------------
 Symbolic Z-matrix:
 Charge =  0 Multiplicity = 1

                         Standard orientation:
 ---------------------------------------------------------------------
 Center     Atomic      Atomic             Coordinates (Angstroms)
 Number     Number       Type             X           Y           Z
 ---------------------------------------------------------------------
      1          1           0        4.025106   -0.953388   -0.846394
      2          6           0        3.019808   -1.335492   -0.650094
      3          1           0        3.119311   -2.186092    0.032806
      4          1           0        2.579609   -1.687894   -1.588594
      5          6           0        2.208904   -0.246895    0.038206
      6          8           0        2.647401    0.390206    0.984906
      7          7           0        0.958503   -0.028100   -0.490594
      8          1           0        0.619305   -0.660601   -1.202294
      9          6           0       -0.018101    0.844896    0.161506
     10          1           0        0.424298    1.117398    1.121006
     11          6           0       -0.281106    2.117195   -0.657094
     12          1           0       -0.608505    1.896294   -1.681594
     13          1           0       -1.043608    2.741992   -0.178594
     14          1           0        0.643392    2.697299   -0.732594
     15          6           0       -1.279598    0.025991    0.502406
     16          8           0       -1.496696   -0.390210    1.630506
     17          7           0       -2.088996   -0.270312   -0.567394
     18          1           0       -1.979098    0.272588   -1.412394
     19          6           0       -3.336294   -0.999717   -0.394994
     20          1           0       -3.224691   -1.654916    0.469706
     21          1           0       -4.186296   -0.329020   -0.212294
     22          1           0       -3.542691   -1.600618   -1.285794
 ---------------------------------------------------------------------

 SCF Done:  E(RHF) =  -492.918119394     A.U. after   14 cycles
 E2 =    -0.1601030894D+01 EUMP2 =    -0.49451915028713D+03

 The electronic state is 1-A.
 Alpha  occ. eigenvalues --  -20.53854 -20.53072 -15.60357 -15.60242 -11.36566
 Alpha  occ. eigenvalues --  -11.36455 -11.29184 -11.27469 -11.24947 -11.24747
 Alpha  occ. eigenvalues --   -1.39273  -1.38443  -1.24871  -1.23170  -1.05922
 Alpha  occ. eigenvalues --   -0.99531  -0.96090  -0.88914  -0.80019  -0.79508
 Alpha  occ. eigenvalues --   -0.73159  -0.67625  -0.65900  -0.64662  -0.63126
 Alpha  occ. eigenvalues --   -0.61859  -0.59505  -0.58833  -0.58036  -0.56946
 Alpha  occ. eigenvalues --   -0.55623  -0.54686  -0.52688  -0.52055  -0.50441
 Alpha  occ. eigenvalues --   -0.44335  -0.42504  -0.40203  -0.39068
 Alpha virt. eigenvalues --    0.02151   0.03634   0.03977   0.04632   0.05628
 Alpha virt. eigenvalues --    0.05880   0.06307   0.06544   0.07530   0.07824
 Alpha virt. eigenvalues --    0.08372   0.09481   0.11615   0.11767   0.12182

 Mulliken atomic charges:
              1
     1  H    0.028044
     2  C    0.397704
     3  H    0.061386
     4  H   -0.171868
     5  C    0.599960
     6  O   -0.835161
     7  N   -0.253914
     8  H   -0.073491
     9  C   -0.131177
    10  H   -0.136979
    11  C    0.806734
    12  H   -0.098962
    13  H   -0.028341
    14  H   -0.091945
    15  C    1.004691
    16  O   -0.824137
    17  N   -0.554263
    18  H   -0.088211
    19  C    0.737131
    20  H   -0.118637
    21  H   -0.071419
    22  H   -0.157148
 Sum of Mulliken atomic charges =   0.00000

 Dipole moment (field-independent basis, Debye):
    X=             -2.1763    Y=             -0.6311    Z=             -6.3401  Tot=              6.7329
 Quadrupole moment (field-independent basis, Debye-Ang):
   XX=            -61.7087   YY=            -57.4592   ZZ=            -67.0492
   XY=             -5.9140   XZ=             -0.4385   YZ=              1.5021

 Normal termination of Gaussian 09 at Mon Feb 13 08:26:30 2017.
