 Gaussian 09, Revision A.02,
 Gaussian 09:  EM64L-G09RevA.02 11-Jun-2009

 -------------------
 #SP MP2/aug-cc-pVDZ
 -------------------

 -------------------------------
 Single Point calculation at MP2
 -------------------------------
 Symbolic Z-matrix:
 Charge =  0 Multiplicity = 1

                         Standard orientation:
 ---------------------------------------------------------------------
 Center     Atomic      Atomic             Coordinates (Angstroms)
 Number     Number       Type             X           Y           Z
 ---------------------------------------------------------------------
      1          1           0        4.146695   -0.609525   -0.893803
      2          6           0        3.141193   -1.037120   -0.880403
      3          1           0        3.211787   -2.035920   -0.435603
      4          1           0        2.777192   -1.137718   -1.908103
      5          6           0        2.251898   -0.171915   -0.000303
      6          8           0        2.627400    0.262683    1.079297
      7          7           0        1.002799    0.090692   -0.510503
      8          1           0        0.720197   -0.383707   -1.357103
      9          6           0       -0.035797    0.727698    0.295297
     10          1           0        0.377203    0.772895    1.306397
     11          6           0       -0.326089    2.154399   -0.189303
     12          1           0       -0.629389    2.180001   -1.244203
     13          1           0       -1.107587    2.630104    0.414997
     14          1           0        0.583314    2.755494   -0.100203
     15          6           0       -1.241703   -0.234796    0.382697
     16          8           0       -1.175508   -1.258196    1.050197
     17          7           0       -2.329401    0.087310   -0.382403
     18          1           0       -2.356296    0.989910   -0.832403
     19          6           0       -3.541905   -0.714083   -0.378003
     20          1           0       -3.305610   -1.660284    0.110297
     21          1           0       -4.351403   -0.222279    0.176097
     22          1           0       -3.880606   -0.905981   -1.401903
 ---------------------------------------------------------------------

 SCF Done:  E(RHF) =  -492.917957370     A.U. after   14 cycles
 E2 =    -0.1601668450D+01 EUMP2 =    -0.49451962582054D+03

 The electronic state is 1-A.
 Alpha  occ. eigenvalues --  -20.53285 -20.52836 -15.60411 -15.59900 -11.36413
 Alpha  occ. eigenvalues --  -11.36260 -11.29192 -11.27371 -11.24674 -11.24636
 Alpha  occ. eigenvalues --   -1.39004  -1.38141  -1.24380  -1.23402  -1.05784
 Alpha  occ. eigenvalues --   -0.99358  -0.95957  -0.89012  -0.79747  -0.79526
 Alpha  occ. eigenvalues --   -0.73072  -0.67368  -0.65639  -0.65120  -0.62611
 Alpha  occ. eigenvalues --   -0.61802  -0.59187  -0.58824  -0.57591  -0.56572
 Alpha  occ. eigenvalues --   -0.55418  -0.54757  -0.53219  -0.52021  -0.49953
 Alpha  occ. eigenvalues --   -0.43557  -0.42241  -0.39911  -0.39124
 Alpha virt. eigenvalues --    0.02371   0.03583   0.04073   0.04590   0.05629
 Alpha virt. eigenvalues --    0.05902   0.06167   0.06759   0.07582   0.07909
 Alpha virt. eigenvalues --    0.08331   0.09223   0.11410   0.11698   0.12561

 Mulliken atomic charges:
              1
     1  H    0.020504
     2  C    0.374078
     3  H    0.067937
     4  H   -0.139141
     5  C    0.587189
     6  O   -0.836880
     7  N   -0.408063
     8  H   -0.096443
     9  C   -0.138745
    10  H   -0.067140
    11  C    0.803512
    12  H    0.020644
    13  H   -0.030691
    14  H   -0.166386
    15  C    1.102840
    16  O   -0.869422
    17  N   -0.527381
    18  H   -0.126100
    19  C    0.781469
    20  H   -0.145032
    21  H   -0.083840
    22  H   -0.122910
 Sum of Mulliken atomic charges =   0.00000

 Dipole moment (field-independent basis, Debye):
    X=             -2.8388    Y=              1.7343    Z=             -5.3031  Tot=              6.2602
 Quadrupole moment (field-independent basis, Debye-Ang):
   XX=            -57.7706   YY=            -61.2943   ZZ=            -64.2233
   XY=             -7.3521   XZ=             -4.7224   YZ=              3.6160

 Normal termination of Gaussian 09 at Mon Feb 13 08:29:44 2017.
