 Gaussian 09, Revision A.02,
 Gaussian 09:  EM64L-G09RevA.02 11-Jun-2009

 -------------------
 #SP MP2/aug-cc-pVDZ
 -------------------

 -------------------------------
 Single Point calculation at MP2
 -------------------------------
 Symbolic Z-matrix:
 Charge =  0 Multiplicity = 1

                         Standard orientation:
 ---------------------------------------------------------------------
 Center     Atomic      Atomic             Coordinates (Angstroms)
 Number     Number       Type             X           Y           Z
 ---------------------------------------------------------------------
      1          1           0        3.459906   -1.769688   -0.702609
      2          6           0        3.167602   -0.726888   -0.849809
      3          1           0        2.925902   -0.564589   -1.905009
      4          1           0        4.030700   -0.104386   -0.589009
      5          6           0        2.022801   -0.398992    0.095691
      6          8           0        2.032902   -0.741192    1.273791
      7          7           0        0.973799    0.285404   -0.460209
      8          1           0        1.048498    0.587305   -1.422709
      9          6           0       -0.080303    0.901101    0.348091
     10          1           0        0.157098    0.619602    1.379291
     11          6           0       -0.091008    2.421601    0.203391
     12          1           0       -0.302209    2.716900   -0.829709
     13          1           0       -0.876309    2.855798    0.827691
     14          1           0        0.875691    2.835404    0.506491
     15          6           0       -1.454301    0.293897   -0.019809
     16          8           0       -2.379003    0.970294   -0.454609
     17          7           0       -1.525597   -1.051904    0.185991
     18          1           0       -0.708295   -1.517601    0.557891
     19          6           0       -2.714394   -1.833307   -0.099009
     20          1           0       -3.477196   -1.144810   -0.465509
     21          1           0       -2.518892   -2.593107   -0.865709
     22          1           0       -3.085892   -2.332609    0.803691
 ---------------------------------------------------------------------

 SCF Done:  E(RHF) =  -492.925413689     A.U. after   14 cycles
 E2 =    -0.1600959409D+01 EUMP2 =    -0.49452637309795D+03

 The electronic state is 1-A.
 Alpha  occ. eigenvalues --  -20.54064 -20.53256 -15.60820 -15.59131 -11.37482
 Alpha  occ. eigenvalues --  -11.35850 -11.29223 -11.26649 -11.25720 -11.23228
 Alpha  occ. eigenvalues --   -1.39526  -1.38392  -1.25175  -1.22650  -1.05779
 Alpha  occ. eigenvalues --   -0.99808  -0.96147  -0.87410  -0.80757  -0.78639
 Alpha  occ. eigenvalues --   -0.72969  -0.68322  -0.66351  -0.64770  -0.62276
 Alpha  occ. eigenvalues --   -0.61698  -0.60264  -0.59204  -0.58031  -0.55474
 Alpha  occ. eigenvalues --   -0.54514  -0.53197  -0.53082  -0.52027  -0.51137
 Alpha  occ. eigenvalues --   -0.44163  -0.43508  -0.39965  -0.38530
 Alpha virt. eigenvalues --    0.02630   0.03859   0.04345   0.04639   0.05728
 Alpha virt. eigenvalues --    0.05876   0.06329   0.06672   0.07315   0.08037
 Alpha virt. eigenvalues --    0.09164   0.09446   0.11191   0.11958   0.12353

 Mulliken atomic charges:
              1
     1  H    0.029317
     2  C    0.358907
     3  H   -0.129325
     4  H    0.062636
     5  C    0.585942
     6  O   -0.873149
     7  N   -0.329897
     8  H   -0.119565
     9  C   -0.302676
    10  H   -0.136832
    11  C    0.829572
    12  H   -0.026828
    13  H   -0.034588
    14  H   -0.027253
    15  C    1.192112
    16  O   -0.807914
    17  N   -0.551839
    18  H   -0.105191
    19  C    0.734732
    20  H   -0.156655
    21  H   -0.094969
    22  H   -0.096536
 Sum of Mulliken atomic charges =   0.00000

 Dipole moment (field-independent basis, Debye):
    X=              2.1467    Y=             -1.0886    Z=             -2.2798  Tot=              3.3152
 Quadrupole moment (field-independent basis, Debye-Ang):
   XX=            -65.6198   YY=            -58.9640   ZZ=            -62.9534
   XY=              8.8466   XZ=            -10.8346   YZ=              3.1851

 Normal termination of Gaussian 09 at Mon Feb 13 09:18:11 2017.
