 Gaussian 09, Revision A.02,
 Gaussian 09:  EM64L-G09RevA.02 11-Jun-2009

 -------------------
 #SP MP2/aug-cc-pVDZ
 -------------------

 -------------------------------
 Single Point calculation at MP2
 -------------------------------
 Symbolic Z-matrix:
 Charge =  0 Multiplicity = 1

                         Standard orientation:
 ---------------------------------------------------------------------
 Center     Atomic      Atomic             Coordinates (Angstroms)
 Number     Number       Type             X           Y           Z
 ---------------------------------------------------------------------
      1          1           0        3.557811   -1.844905   -0.000296
      2          6           0        3.179210   -0.993105   -0.570796
      3          1           0        2.844711   -1.337406   -1.554796
      4          1           0        4.012309   -0.294804   -0.708496
      5          6           0        2.088709   -0.307907    0.239904
      6          8           0        2.205809   -0.092806    1.436304
      7          7           0        0.958109    0.039492   -0.474196
      8          1           0        1.024909    0.005792   -1.484296
      9          6           0       -0.067792    0.919991    0.084904
     10          1           0        0.247108    1.109191    1.116104
     11          6           0       -0.155594    2.250991   -0.671596
     12          1           0       -0.388593    2.088891   -1.732096
     13          1           0       -0.953394    2.860090   -0.241596
     14          1           0        0.792206    2.793892   -0.602096
     15          6           0       -1.465091    0.272589    0.182804
     16          8           0       -2.415492    0.925288    0.599304
     17          7           0       -1.559590   -1.012911   -0.256696
     18          1           0       -0.689889   -1.492810   -0.443296
     19          6           0       -2.785489   -1.781012   -0.133696
     20          1           0       -3.602290   -1.075213    0.024004
     21          1           0       -2.970388   -2.354512   -1.048296
     22          1           0       -2.750388   -2.473412    0.717404
 ---------------------------------------------------------------------

 SCF Done:  E(RHF) =  -492.924797041     A.U. after   14 cycles
 E2 =    -0.1601447044D+01 EUMP2 =    -0.49452624408432D+03

 The electronic state is 1-A.
 Alpha  occ. eigenvalues --  -20.54338 -20.52712 -15.60981 -15.59526 -11.37624
 Alpha  occ. eigenvalues --  -11.35775 -11.29160 -11.26822 -11.25933 -11.23808
 Alpha  occ. eigenvalues --   -1.39814  -1.38166  -1.25504  -1.22676  -1.05849
 Alpha  occ. eigenvalues --   -1.00018  -0.96153  -0.87837  -0.80846  -0.78573
 Alpha  occ. eigenvalues --   -0.73205  -0.68486  -0.66826  -0.63504  -0.62489
 Alpha  occ. eigenvalues --   -0.62366  -0.59835  -0.59299  -0.58370  -0.56335
 Alpha  occ. eigenvalues --   -0.54823  -0.54428  -0.52917  -0.52120  -0.49852
 Alpha  occ. eigenvalues --   -0.44340  -0.43593  -0.39736  -0.39179
 Alpha virt. eigenvalues --    0.02172   0.03660   0.04108   0.04619   0.05545
 Alpha virt. eigenvalues --    0.06089   0.06276   0.06533   0.07376   0.08047
 Alpha virt. eigenvalues --    0.08353   0.09336   0.11662   0.12185   0.12463

 Mulliken atomic charges:
              1
     1  H    0.028278
     2  C    0.352293
     3  H   -0.147377
     4  H    0.047809
     5  C    0.636081
     6  O   -0.852497
     7  N   -0.328201
     8  H   -0.069005
     9  C   -0.477638
    10  H    0.029514
    11  C    0.852334
    12  H   -0.057573
    13  H   -0.033280
    14  H   -0.060163
    15  C    1.144614
    16  O   -0.872257
    17  N   -0.531735
    18  H   -0.068015
    19  C    0.742839
    20  H   -0.137842
    21  H   -0.125394
    22  H   -0.072784
 Sum of Mulliken atomic charges =   0.00000

 Dipole moment (field-independent basis, Debye):
    X=              2.1564    Y=             -2.5975    Z=             -4.9265  Tot=              5.9722
 Quadrupole moment (field-independent basis, Debye-Ang):
   XX=            -66.8314   YY=            -57.1254   ZZ=            -64.9729
   XY=              5.2477   XZ=             -5.5110   YZ=             -0.4413

 Normal termination of Gaussian 09 at Mon Feb 13 08:20:32 2017.
