 Gaussian 09, Revision A.02,
 Gaussian 09:  EM64L-G09RevA.02 11-Jun-2009

 -------------------
 #SP MP2/aug-cc-pVDZ
 -------------------

 -------------------------------
 Single Point calculation at MP2
 -------------------------------
 Symbolic Z-matrix:
 Charge =  0 Multiplicity = 1

                         Standard orientation:
 ---------------------------------------------------------------------
 Center     Atomic      Atomic             Coordinates (Angstroms)
 Number     Number       Type             X           Y           Z
 ---------------------------------------------------------------------
      1          1           0        4.267496   -0.801225   -0.033896
      2          6           0        3.262295   -1.084319   -0.351696
      3          1           0        3.039289   -2.075617    0.061504
      4          1           0        3.226194   -1.153618   -1.443596
      5          6           0        2.266601   -0.076413    0.199204
      6          8           0        2.471705    0.561086    1.223704
      7          7           0        1.120702    0.075094   -0.554596
      8          1           0        0.890397   -0.709004   -1.156696
      9          6           0       -0.049694    0.704602    0.041004
     10          1           0        0.202407    0.895200    1.092404
     11          6           0       -0.359286    2.049403   -0.639696
     12          1           0       -0.655187    1.908505   -1.684696
     13          1           0       -1.153583    2.606108   -0.127696
     14          1           0        0.539918    2.670998   -0.616596
     15          6           0       -1.209701   -0.315591   -0.000096
     16          8           0       -1.008408   -1.498593   -0.261596
     17          7           0       -2.455098    0.190816    0.218004
     18          1           0       -2.542192    1.158517    0.490504
     19          6           0       -3.638803   -0.650677    0.284104
     20          1           0       -3.378909   -1.619378   -0.143696
     21          1           0       -3.974804   -0.799475    1.318104
     22          1           0       -4.455100   -0.204372   -0.293296
 ---------------------------------------------------------------------

 SCF Done:  E(RHF) =  -492.924140080     A.U. after   14 cycles
 E2 =    -0.1600575549D+01 EUMP2 =    -0.49452471562899D+03

 The electronic state is 1-A.
 Alpha  occ. eigenvalues --  -20.54115 -20.53051 -15.60475 -15.58570 -11.36937
 Alpha  occ. eigenvalues --  -11.35849 -11.29172 -11.27514 -11.24380 -11.24113
 Alpha  occ. eigenvalues --   -1.39665  -1.38138  -1.24235  -1.23264  -1.05481
 Alpha  occ. eigenvalues --   -0.99039  -0.96026  -0.88433  -0.80057  -0.78096
 Alpha  occ. eigenvalues --   -0.73208  -0.67331  -0.65830  -0.64480  -0.62878
 Alpha  occ. eigenvalues --   -0.61764  -0.59667  -0.58850  -0.56934  -0.56433
 Alpha  occ. eigenvalues --   -0.55385  -0.54231  -0.53421  -0.52186  -0.49264
 Alpha  occ. eigenvalues --   -0.43364  -0.42319  -0.40412  -0.39744
 Alpha virt. eigenvalues --    0.02781   0.03977   0.04340   0.04512   0.05732
 Alpha virt. eigenvalues --    0.06071   0.06214   0.06946   0.07415   0.07773
 Alpha virt. eigenvalues --    0.08986   0.09896   0.11136   0.11845   0.12928

 Mulliken atomic charges:
              1
     1  H   -0.033046
     2  C    0.361816
     3  H    0.072052
     4  H   -0.050799
     5  C    0.554309
     6  O   -0.817522
     7  N   -0.554869
     8  H    0.008909
     9  C    0.035867
    10  H   -0.014248
    11  C    0.759595
    12  H   -0.025381
    13  H   -0.073795
    14  H   -0.091177
    15  C    0.980672
    16  O   -0.846521
    17  N   -0.518952
    18  H   -0.108635
    19  C    0.715848
    20  H   -0.142896
    21  H   -0.078760
    22  H   -0.132468
 Sum of Mulliken atomic charges =   0.00000

 Dipole moment (field-independent basis, Debye):
    X=             -3.0727    Y=              1.2060    Z=             -1.7167  Tot=              3.7206
 Quadrupole moment (field-independent basis, Debye-Ang):
   XX=            -54.2110   YY=            -62.9113   ZZ=            -64.1514
   XY=             -9.4766   XZ=             -9.1762   YZ=             -0.9438

 Normal termination of Gaussian 09 at Mon Feb 13 07:38:39 2017.
