 Gaussian 09, Revision A.02,
 Gaussian 09:  EM64L-G09RevA.02 11-Jun-2009

 -------------------
 #SP MP2/aug-cc-pVDZ
 -------------------

 -------------------------------
 Single Point calculation at MP2
 -------------------------------
 Symbolic Z-matrix:
 Charge =  0 Multiplicity = 1

                         Standard orientation:
 ---------------------------------------------------------------------
 Center     Atomic      Atomic             Coordinates (Angstroms)
 Number     Number       Type             X           Y           Z
 ---------------------------------------------------------------------
      1          1           0       -4.184294   -0.493988    0.462500
      2          6           0       -3.222096   -0.971093    0.673300
      3          1           0       -3.321201   -2.030692    0.418000
      4          1           0       -3.006395   -0.878494    1.742100
      5          6           0       -2.161093   -0.348798   -0.222000
      6          8           0       -2.250793   -0.371198   -1.444800
      7          7           0       -1.124890    0.258097    0.436500
      8          1           0       -0.995091    0.099296    1.428100
      9          6           0        0.044313    0.768791   -0.263600
     10          1           0       -0.119388    0.545392   -1.321800
     11          6           0        0.208821    2.283890   -0.066400
     12          1           0        0.350922    2.514889    0.994300
     13          1           0        1.079722    2.656786   -0.617800
     14          1           0       -0.683177    2.804895   -0.426500
     15          6           0        1.275709    0.030785    0.284600
     16          8           0        1.425808   -0.115316    1.495400
     17          7           0        2.161607   -0.411920   -0.647900
     18          1           0        1.925507   -0.299819   -1.623500
     19          6           0        3.387903   -1.110926   -0.302200
     20          1           0        3.446903   -1.144827    0.786400
     21          1           0        3.382698   -2.135126   -0.693000
     22          1           0        4.265306   -0.585331   -0.696000
 ---------------------------------------------------------------------

 SCF Done:  E(RHF) =  -492.927940255     A.U. after   14 cycles
 E2 =    -0.1599996347D+01 EUMP2 =    -0.49452793660229D+03

 The electronic state is 1-A.
 Alpha  occ. eigenvalues --  -20.53739 -20.52802 -15.60606 -15.59373 -11.36601
 Alpha  occ. eigenvalues --  -11.36278 -11.29117 -11.27435 -11.24527 -11.23784
 Alpha  occ. eigenvalues --   -1.39301  -1.38081  -1.24251  -1.23655  -1.05602
 Alpha  occ. eigenvalues --   -0.99168  -0.96460  -0.87836  -0.80340  -0.78957
 Alpha  occ. eigenvalues --   -0.73238  -0.67483  -0.65919  -0.64025  -0.62944
 Alpha  occ. eigenvalues --   -0.61885  -0.60264  -0.58524  -0.57580  -0.56588
 Alpha  occ. eigenvalues --   -0.55347  -0.53847  -0.52400  -0.52124  -0.50028
 Alpha  occ. eigenvalues --   -0.43736  -0.42355  -0.40217  -0.38999
 Alpha virt. eigenvalues --    0.03011   0.03813   0.04292   0.04832   0.05569
 Alpha virt. eigenvalues --    0.06000   0.06297   0.07191   0.07359   0.07643
 Alpha virt. eigenvalues --    0.09100   0.09515   0.11293   0.12269   0.12383

 Mulliken atomic charges:
              1
     1  H    0.044579
     2  C    0.399549
     3  H    0.042913
     4  H   -0.164952
     5  C    0.580926
     6  O   -0.866515
     7  N   -0.215030
     8  H   -0.069818
     9  C   -0.320511
    10  H   -0.198360
    11  C    0.804341
    12  H   -0.017915
    13  H   -0.050970
    14  H   -0.062226
    15  C    1.241854
    16  O   -0.889722
    17  N   -0.521818
    18  H   -0.107789
    19  C    0.715414
    20  H   -0.143810
    21  H   -0.090501
    22  H   -0.109640
 Sum of Mulliken atomic charges =   0.00000

 Dipole moment (field-independent basis, Debye):
    X=              1.5419    Y=              0.1139    Z=             -0.1328  Tot=              1.5518
 Quadrupole moment (field-independent basis, Debye-Ang):
   XX=            -56.5721   YY=            -58.7279   ZZ=            -67.4186
   XY=             -1.0222   XZ=            -15.7293   YZ=             -1.2294

 Normal termination of Gaussian 09 at Mon Feb 13 08:20:43 2017.
