 Gaussian 09, Revision A.02,
 Gaussian 09:  EM64L-G09RevA.02 11-Jun-2009

 -------------------
 #SP MP2/aug-cc-pVDZ
 -------------------

 -------------------------------
 Single Point calculation at MP2
 -------------------------------
 Symbolic Z-matrix:
 Charge =  0 Multiplicity = 1

                         Standard orientation:
 ---------------------------------------------------------------------
 Center     Atomic      Atomic             Coordinates (Angstroms)
 Number     Number       Type             X           Y           Z
 ---------------------------------------------------------------------
      1          1           0        3.420603   -1.554112   -0.726199
      2          6           0        3.259805   -0.502912   -0.472699
      3          1           0        3.395507    0.109888   -1.369299
      4          1           0        4.023506   -0.223113    0.261001
      5          6           0        1.889606   -0.355108    0.170001
      6          8           0        1.508904   -1.104907    1.069301
      7          7           0        1.108908    0.650294   -0.312699
      8          1           0        1.461209    1.200693   -1.083399
      9          6           0       -0.142491    1.107996    0.299401
     10          1           0        0.024909    1.131196    1.385101
     11          6           0       -0.459488    2.522797   -0.187799
     12          1           0       -0.567588    2.545398   -1.279499
     13          1           0       -1.405587    2.847900    0.245701
     14          1           0        0.333314    3.219895    0.103301
     15          6           0       -1.380193    0.191499    0.109401
     16          8           0       -2.502092    0.644602    0.310201
     17          7           0       -1.150196   -1.080701   -0.319999
     18          1           0       -0.240097   -1.463303   -0.085599
     19          6           0       -2.260898   -2.020798   -0.387499
     20          1           0       -3.101697   -1.540896   -0.891499
     21          1           0       -1.948601   -2.898899   -0.958799
     22          1           0       -2.598999   -2.340198    0.607201
 ---------------------------------------------------------------------

 SCF Done:  E(RHF) =  -492.924830222     A.U. after   14 cycles
 E2 =    -0.1602693331D+01 EUMP2 =    -0.49452752355246D+03

 The electronic state is 1-A.
 Alpha  occ. eigenvalues --  -20.54533 -20.52699 -15.61257 -15.58104 -11.37878
 Alpha  occ. eigenvalues --  -11.35352 -11.29857 -11.26067 -11.25814 -11.24033
 Alpha  occ. eigenvalues --   -1.39984  -1.37930  -1.25405  -1.21961  -1.06210
 Alpha  occ. eigenvalues --   -1.00198  -0.95227  -0.87660  -0.81554  -0.77567
 Alpha  occ. eigenvalues --   -0.72142  -0.69266  -0.67682  -0.63512  -0.62262
 Alpha  occ. eigenvalues --   -0.61983  -0.59485  -0.58897  -0.58261  -0.54988
 Alpha  occ. eigenvalues --   -0.54295  -0.54250  -0.53247  -0.52294  -0.49554
 Alpha  occ. eigenvalues --   -0.44570  -0.44050  -0.40161  -0.38117
 Alpha virt. eigenvalues --    0.02393   0.03913   0.04285   0.04515   0.05872
 Alpha virt. eigenvalues --    0.06151   0.06301   0.06676   0.07229   0.07984
 Alpha virt. eigenvalues --    0.09153   0.09933   0.11337   0.11692   0.12327

 Mulliken atomic charges:
              1
     1  H    0.042306
     2  C    0.373748
     3  H   -0.144324
     4  H    0.063048
     5  C    0.472239
     6  O   -0.881336
     7  N   -0.373893
     8  H   -0.047982
     9  C    0.067551
    10  H    0.013075
    11  C    0.699171
    12  H   -0.035731
    13  H   -0.067805
    14  H   -0.047084
    15  C    0.811298
    16  O   -0.848189
    17  N   -0.456170
    18  H   -0.050756
    19  C    0.765786
    20  H   -0.123156
    21  H   -0.191446
    22  H   -0.040351
 Sum of Mulliken atomic charges =   0.00000

 Dipole moment (field-independent basis, Debye):
    X=              4.1078    Y=              0.8786    Z=             -2.9145  Tot=              5.1127
 Quadrupole moment (field-independent basis, Debye-Ang):
   XX=            -63.8574   YY=            -57.6700   ZZ=            -62.9888
   XY=              7.7284   XZ=             -3.2901   YZ=              2.1985

 Normal termination of Gaussian 09 at Mon Feb 13 12:38:38 2017.
