 Gaussian 09, Revision A.02,
 Gaussian 09:  EM64L-G09RevA.02 11-Jun-2009

 -------------------
 #SP MP2/aug-cc-pVDZ
 -------------------

 -------------------------------
 Single Point calculation at MP2
 -------------------------------
 Symbolic Z-matrix:
 Charge =  0 Multiplicity = 1

                         Standard orientation:
 ---------------------------------------------------------------------
 Center     Atomic      Atomic             Coordinates (Angstroms)
 Number     Number       Type             X           Y           Z
 ---------------------------------------------------------------------
      1          1           0        3.931892   -1.241798    0.087901
      2          6           0        3.177293   -0.782597   -0.553199
      3          1           0        2.817592   -1.539496   -1.260799
      4          1           0        3.626494    0.035303   -1.126199
      5          6           0        2.014693   -0.316096    0.305701
      6          8           0        1.759793   -0.802095    1.398401
      7          7           0        1.274194    0.722505   -0.231299
      8          1           0        1.338994    0.810605   -1.239699
      9          6           0       -0.060005    0.962106    0.291301
     10          1           0        0.013894    0.869906    1.378901
     11          6           0       -0.537304    2.371107   -0.089999
     12          1           0       -0.611004    2.475707   -1.179199
     13          1           0       -1.526304    2.580108    0.329601
     14          1           0        0.167797    3.120306    0.282301
     15          6           0       -1.036107   -0.115593   -0.239899
     16          8           0       -0.772307   -0.784493   -1.232099
     17          7           0       -2.226007   -0.186791    0.424101
     18          1           0       -2.303806    0.296109    1.308601
     19          6           0       -3.252308   -1.158590    0.083801
     20          1           0       -3.019408   -1.546791   -0.908299
     21          1           0       -3.271608   -1.995190    0.793601
     22          1           0       -4.239307   -0.684089    0.067001
 ---------------------------------------------------------------------

 SCF Done:  E(RHF) =  -492.926727484     A.U. after   15 cycles
 E2 =    -0.1599784814D+01 EUMP2 =    -0.49452651229815D+03

 The electronic state is 1-A.
 Alpha  occ. eigenvalues --  -20.53482 -20.53210 -15.59832 -15.58794 -11.36048
 Alpha  occ. eigenvalues --  -11.35866 -11.29081 -11.26976 -11.24626 -11.24064
 Alpha  occ. eigenvalues --   -1.39145  -1.38058  -1.23665  -1.23324  -1.05491
 Alpha  occ. eigenvalues --   -0.98982  -0.95862  -0.87607  -0.79629  -0.78142
 Alpha  occ. eigenvalues --   -0.72765  -0.67331  -0.66454  -0.63108  -0.62754
 Alpha  occ. eigenvalues --   -0.61743  -0.59698  -0.58146  -0.57262  -0.56343
 Alpha  occ. eigenvalues --   -0.54904  -0.53929  -0.53237  -0.50797  -0.50479
 Alpha  occ. eigenvalues --   -0.43358  -0.42506  -0.39819  -0.39464
 Alpha virt. eigenvalues --    0.02944   0.03804   0.04375   0.04729   0.05659
 Alpha virt. eigenvalues --    0.06140   0.06187   0.06999   0.07261   0.07973
 Alpha virt. eigenvalues --    0.09091   0.09518   0.10409   0.11958   0.12485

 Mulliken atomic charges:
              1
     1  H   -0.034611
     2  C    0.305876
     3  H    0.071657
     4  H   -0.034507
     5  C    0.667850
     6  O   -0.857328
     7  N   -0.467503
     8  H   -0.007549
     9  C   -0.150959
    10  H   -0.145761
    11  C    0.823124
    12  H   -0.044077
    13  H   -0.068720
    14  H   -0.032698
    15  C    1.095501
    16  O   -0.874402
    17  N   -0.473921
    18  H   -0.112901
    19  C    0.705153
    20  H   -0.142805
    21  H   -0.078095
    22  H   -0.143326
 Sum of Mulliken atomic charges =   0.00000

 Dipole moment (field-independent basis, Debye):
    X=             -1.7534    Y=              2.7633    Z=             -0.3931  Tot=              3.2962
 Quadrupole moment (field-independent basis, Debye-Ang):
   XX=            -50.7166   YY=            -61.4357   ZZ=            -65.5142
   XY=              0.7361   XZ=            -10.9726   YZ=              0.9491

 Normal termination of Gaussian 09 at Mon Feb 13 13:28:47 2017.
