 Gaussian 09, Revision A.02,
 Gaussian 09:  EM64L-G09RevA.02 11-Jun-2009

 -------------------
 #SP MP2/aug-cc-pVDZ
 -------------------

 -------------------------------
 Single Point calculation at MP2
 -------------------------------
 Symbolic Z-matrix:
 Charge =  0 Multiplicity = 1

                         Standard orientation:
 ---------------------------------------------------------------------
 Center     Atomic      Atomic             Coordinates (Angstroms)
 Number     Number       Type             X           Y           Z
 ---------------------------------------------------------------------
      1          1           0       -3.893893   -1.097235    0.693186
      2          6           0       -2.908595   -0.849027    1.091386
      3          1           0       -2.423188   -1.780423    1.408186
      4          1           0       -3.019901   -0.204228    1.970186
      5          6           0       -2.081901   -0.202720   -0.010714
      6          8           0       -2.295799   -0.394222   -1.194014
      7          7           0       -1.097708    0.666988    0.444386
      8          1           0       -0.901108    0.605090    1.437986
      9          6           0        0.072089    0.979598   -0.381414
     10          1           0       -0.305611    1.019895   -1.406714
     11          6           0        0.642878    2.344803    0.008086
     12          1           0        0.941477    2.385305    1.064786
     13          1           0        1.513176    2.600510   -0.606314
     14          1           0       -0.118229    3.115996   -0.140614
     15          6           0        1.056899   -0.219494   -0.378514
     16          8           0        0.787008   -1.258096   -0.963814
     17          7           0        2.186498   -0.068884    0.382886
     18          1           0        2.401990    0.840918    0.761486
     19          6           0        3.201307   -1.105376    0.473386
     20          1           0        2.773314   -2.017079    0.054886
     21          1           0        4.102004   -0.843468   -0.096314
     22          1           0        3.482708   -1.280173    1.517686
 ---------------------------------------------------------------------

 SCF Done:  E(RHF) =  -492.913123392     A.U. after   14 cycles
 E2 =    -0.1602697590D+01 EUMP2 =    -0.49451582098233D+03

 The electronic state is 1-A.
 Alpha  occ. eigenvalues --  -20.52872 -20.52805 -15.60026 -15.59635 -11.35987
 Alpha  occ. eigenvalues --  -11.35831 -11.29305 -11.27098 -11.25250 -11.24380
 Alpha  occ. eigenvalues --   -1.38785  -1.37808  -1.24065  -1.23020  -1.05730
 Alpha  occ. eigenvalues --   -0.99162  -0.95780  -0.88687  -0.79409  -0.78833
 Alpha  occ. eigenvalues --   -0.72481  -0.67189  -0.65741  -0.64692  -0.62457
 Alpha  occ. eigenvalues --   -0.61297  -0.59124  -0.58649  -0.57467  -0.56518
 Alpha  occ. eigenvalues --   -0.55075  -0.54788  -0.52797  -0.50833  -0.50648
 Alpha  occ. eigenvalues --   -0.44479  -0.42073  -0.39501  -0.38386
 Alpha virt. eigenvalues --    0.02299   0.03623   0.03874   0.04588   0.05480
 Alpha virt. eigenvalues --    0.05910   0.06218   0.06635   0.07423   0.07959
 Alpha virt. eigenvalues --    0.08728   0.09192   0.11308   0.11687   0.12641

 Mulliken atomic charges:
              1
     1  H   -0.030162
     2  C    0.310009
     3  H    0.060168
     4  H   -0.060817
     5  C    0.715249
     6  O   -0.812619
     7  N   -0.515977
     8  H   -0.052939
     9  C   -0.033234
    10  H   -0.118386
    11  C    0.747715
    12  H    0.029859
    13  H   -0.018591
    14  H   -0.141438
    15  C    1.029858
    16  O   -0.849002
    17  N   -0.534543
    18  H   -0.132159
    19  C    0.771959
    20  H   -0.147459
    21  H   -0.088650
    22  H   -0.128841
 Sum of Mulliken atomic charges =   0.00000

 Dipole moment (field-independent basis, Debye):
    X=              3.0375    Y=              3.2302    Z=              5.3237  Tot=              6.9284
 Quadrupole moment (field-independent basis, Debye-Ang):
   XX=            -56.0435   YY=            -61.3391   ZZ=            -63.5415
   XY=              2.2361   XZ=             -5.6694   YZ=             -4.9433

 Normal termination of Gaussian 09 at Mon Feb 13 14:08:19 2017.
