 Gaussian 09, Revision A.02,
 Gaussian 09:  EM64L-G09RevA.02 11-Jun-2009

 -------------------
 #SP MP2/aug-cc-pVDZ
 -------------------

 -------------------------------
 Single Point calculation at MP2
 -------------------------------
 Symbolic Z-matrix:
 Charge =  0 Multiplicity = 1

                         Standard orientation:
 ---------------------------------------------------------------------
 Center     Atomic      Atomic             Coordinates (Angstroms)
 Number     Number       Type             X           Y           Z
 ---------------------------------------------------------------------
      1          1           0       -3.877513   -1.213488    0.028190
      2          6           0       -3.093912   -0.827292    0.685290
      3          1           0       -2.846615   -1.617793    1.402490
      4          1           0       -3.476308    0.039110    1.233490
      5          6           0       -1.863910   -0.516798   -0.151110
      6          8           0       -1.438914   -1.291500   -1.002910
      7          7           0       -1.268704    0.696200    0.091590
      8          1           0       -1.473402    1.159101    0.968290
      9          6           0        0.031097    0.991893   -0.506110
     10          1           0       -0.025905    0.662194   -1.546310
     11          6           0        0.314004    2.493792   -0.440210
     12          1           0        0.410606    2.815092    0.602090
     13          1           0        1.254905    2.726388   -0.949410
     14          1           0       -0.492293    3.056896   -0.920710
     15          6           0        1.133393    0.217688    0.245990
     16          8           0        1.360194    0.440187    1.430790
     17          7           0        1.851389   -0.653515   -0.518610
     18          1           0        1.405088   -0.970713   -1.369910
     19          6           0        2.861785   -1.518020    0.071690
     20          1           0        3.317188   -0.985322    0.907690
     21          1           0        2.432881   -2.455118    0.450390
     22          1           0        3.627584   -1.752223   -0.673410
 ---------------------------------------------------------------------

 SCF Done:  E(RHF) =  -492.928575372     A.U. after   14 cycles
 E2 =    -0.1600968811D+01 EUMP2 =    -0.49452954418300D+03

 The electronic state is 1-A.
 Alpha  occ. eigenvalues --  -20.53771 -20.53112 -15.60014 -15.59265 -11.36828
 Alpha  occ. eigenvalues --  -11.35581 -11.29123 -11.26440 -11.25016 -11.23907
 Alpha  occ. eigenvalues --   -1.39266  -1.38141  -1.24247  -1.22921  -1.05674
 Alpha  occ. eigenvalues --   -0.99516  -0.95754  -0.87211  -0.80222  -0.78122
 Alpha  occ. eigenvalues --   -0.72571  -0.68060  -0.66797  -0.63961  -0.62177
 Alpha  occ. eigenvalues --   -0.61587  -0.59745  -0.58677  -0.57446  -0.55973
 Alpha  occ. eigenvalues --   -0.54390  -0.53767  -0.52096  -0.51695  -0.50816
 Alpha  occ. eigenvalues --   -0.43958  -0.43133  -0.40089  -0.38671
 Alpha virt. eigenvalues --    0.03170   0.03827   0.04293   0.04922   0.05789
 Alpha virt. eigenvalues --    0.05982   0.06315   0.07149   0.07223   0.07798
 Alpha virt. eigenvalues --    0.09119   0.09462   0.11190   0.11916   0.12620

 Mulliken atomic charges:
              1
     1  H    0.026041
     2  C    0.384776
     3  H    0.058770
     4  H   -0.124873
     5  C    0.598531
     6  O   -0.866869
     7  N   -0.361581
     8  H   -0.036762
     9  C   -0.037533
    10  H   -0.333704
    11  C    0.716021
    12  H   -0.024661
    13  H   -0.033075
    14  H   -0.011418
    15  C    1.161373
    16  O   -0.866612
    17  N   -0.590383
    18  H   -0.030468
    19  C    0.735784
    20  H   -0.124795
    21  H   -0.073632
    22  H   -0.164929
 Sum of Mulliken atomic charges =   0.00000

 Dipole moment (field-independent basis, Debye):
    X=             -0.9813    Y=              0.9675    Z=             -0.6329  Tot=              1.5164
 Quadrupole moment (field-independent basis, Debye-Ang):
   XX=            -54.4542   YY=            -60.2264   ZZ=            -65.3484
   XY=             -5.7216   XZ=            -10.0852   YZ=             -3.5546

 Normal termination of Gaussian 09 at Mon Feb 13 13:39:09 2017.
