 Gaussian 09, Revision A.02,
 Gaussian 09:  EM64L-G09RevA.02 11-Jun-2009

 -------------------
 #SP MP2/aug-cc-pVDZ
 -------------------

 -------------------------------
 Single Point calculation at MP2
 -------------------------------
 Symbolic Z-matrix:
 Charge =  0 Multiplicity = 1

                         Standard orientation:
 ---------------------------------------------------------------------
 Center     Atomic      Atomic             Coordinates (Angstroms)
 Number     Number       Type             X           Y           Z
 ---------------------------------------------------------------------
      1          1           0       -3.908398   -1.285917   -0.039997
      2          6           0       -3.161798   -0.794817    0.587103
      3          1           0       -2.832698   -1.511517    1.349403
      4          1           0       -3.612899    0.063783    1.094603
      5          6           0       -1.972199   -0.405716   -0.274397
      6          8           0       -1.651398   -1.027416   -1.278497
      7          7           0       -1.286799    0.716384    0.147303
      8          1           0       -1.391499    0.947784    1.129003
      9          6           0        0.047101    0.961185   -0.380297
     10          1           0       -0.004499    0.764585   -1.454697
     11          6           0        0.462700    2.415985   -0.125397
     12          1           0        0.519500    2.617085    0.950803
     13          1           0        1.449300    2.617285   -0.554897
     14          1           0       -0.263400    3.101784   -0.572397
     15          6           0        1.058501    0.000285    0.281703
     16          8           0        0.928901   -0.341715    1.452103
     17          7           0        2.125301   -0.341414   -0.495097
     18          1           0        2.064001   -0.156414   -1.486797
     19          6           0        3.166002   -1.245214   -0.032697
     20          1           0        3.101902   -1.291214    1.055103
     21          1           0        3.034102   -2.257214   -0.435797
     22          1           0        4.153202   -0.872014   -0.324697
 ---------------------------------------------------------------------

 SCF Done:  E(RHF) =  -492.927913049     A.U. after   15 cycles
 E2 =    -0.1599895943D+01 EUMP2 =    -0.49452780899273D+03

 The electronic state is 1-A.
 Alpha  occ. eigenvalues --  -20.53396 -20.53336 -15.59800 -15.59054 -11.36117
 Alpha  occ. eigenvalues --  -11.35937 -11.29071 -11.26874 -11.24395 -11.24323
 Alpha  occ. eigenvalues --   -1.39112  -1.38152  -1.23722  -1.23342  -1.05540
 Alpha  occ. eigenvalues --   -0.99120  -0.95920  -0.87429  -0.79774  -0.78211
 Alpha  occ. eigenvalues --   -0.72768  -0.67488  -0.66539  -0.63442  -0.62474
 Alpha  occ. eigenvalues --   -0.61723  -0.59793  -0.58216  -0.57348  -0.56327
 Alpha  occ. eigenvalues --   -0.54795  -0.53848  -0.52911  -0.51061  -0.50553
 Alpha  occ. eigenvalues --   -0.43435  -0.42681  -0.40002  -0.39211
 Alpha virt. eigenvalues --    0.03093   0.03786   0.04412   0.04798   0.05704
 Alpha virt. eigenvalues --    0.06103   0.06215   0.07055   0.07168   0.07825
 Alpha virt. eigenvalues --    0.09159   0.09490   0.10530   0.12029   0.12777

 Mulliken atomic charges:
              1
     1  H   -0.020877
     2  C    0.337062
     3  H    0.066349
     4  H   -0.057210
     5  C    0.644100
     6  O   -0.856325
     7  N   -0.428683
     8  H   -0.008676
     9  C   -0.160870
    10  H   -0.213631
    11  C    0.792971
    12  H   -0.033897
    13  H   -0.039851
    14  H   -0.025284
    15  C    1.119234
    16  O   -0.889466
    17  N   -0.466180
    18  H   -0.106579
    19  C    0.714380
    20  H   -0.142789
    21  H   -0.078295
    22  H   -0.145482
 Sum of Mulliken atomic charges =   0.00000

 Dipole moment (field-independent basis, Debye):
    X=              1.0336    Y=              2.2047    Z=             -0.3366  Tot=              2.4581
 Quadrupole moment (field-independent basis, Debye-Ang):
   XX=            -51.3174   YY=            -60.8708   ZZ=            -65.8972
   XY=             -2.6593   XZ=            -11.0340   YZ=             -1.7658

 Normal termination of Gaussian 09 at Mon Feb 13 13:25:46 2017.
