 Gaussian 09, Revision A.02,
 Gaussian 09:  EM64L-G09RevA.02 11-Jun-2009

 -------------------
 #SP MP2/aug-cc-pVDZ
 -------------------

 -------------------------------
 Single Point calculation at MP2
 -------------------------------
 Symbolic Z-matrix:
 Charge =  0 Multiplicity = 1

                         Standard orientation:
 ---------------------------------------------------------------------
 Center     Atomic      Atomic             Coordinates (Angstroms)
 Number     Number       Type             X           Y           Z
 ---------------------------------------------------------------------
      1          1           0        3.905716   -1.055693   -0.712114
      2          6           0        2.904516   -0.864494   -1.102914
      3          1           0        2.467717   -1.826494   -1.397414
      4          1           0        2.974816   -0.230893   -1.993714
      5          6           0        2.058616   -0.245894    0.002086
      6          8           0        2.248616   -0.477094    1.182886
      7          7           0        1.085115    0.634405   -0.445114
      8          1           0        0.896715    0.606705   -1.440914
      9          6           0       -0.061586    1.001704    0.391286
     10          1           0        0.328914    1.062504    1.409686
     11          6           0       -0.611287    2.364803   -0.035114
     12          1           0       -0.901187    2.388103   -1.095114
     13          1           0       -1.486587    2.640003    0.562486
     14          1           0        0.156813    3.131604    0.101986
     15          6           0       -1.089184   -0.157797    0.449186
     16          8           0       -0.992184   -1.054597    1.272886
     17          7           0       -2.058484   -0.139498   -0.521614
     18          1           0       -2.156085    0.684202   -1.096414
     19          6           0       -3.094984   -1.154899   -0.601014
     20          1           0       -2.808383   -1.964499    0.071286
     21          1           0       -4.071284   -0.763800   -0.287814
     22          1           0       -3.181583   -1.543099   -1.622114
 ---------------------------------------------------------------------

 SCF Done:  E(RHF) =  -492.913258550     A.U. after   14 cycles
 E2 =    -0.1602416440D+01 EUMP2 =    -0.49451567498998D+03

 The electronic state is 1-A.
 Alpha  occ. eigenvalues --  -20.52984 -20.52976 -15.59938 -15.59878 -11.36074
 Alpha  occ. eigenvalues --  -11.35876 -11.29292 -11.27044 -11.25331 -11.24650
 Alpha  occ. eigenvalues --   -1.38802  -1.37978  -1.24316  -1.22903  -1.05855
 Alpha  occ. eigenvalues --   -0.99333  -0.95785  -0.88702  -0.79705  -0.78882
 Alpha  occ. eigenvalues --   -0.72442  -0.67378  -0.66029  -0.64499  -0.62492
 Alpha  occ. eigenvalues --   -0.61380  -0.59323  -0.58672  -0.57700  -0.56620
 Alpha  occ. eigenvalues --   -0.55095  -0.54724  -0.52475  -0.51214  -0.50975
 Alpha  occ. eigenvalues --   -0.44520  -0.42243  -0.39565  -0.38331
 Alpha virt. eigenvalues --    0.02180   0.03629   0.03818   0.04583   0.05427
 Alpha virt. eigenvalues --    0.05843   0.06329   0.06589   0.07390   0.07797
 Alpha virt. eigenvalues --    0.08755   0.09291   0.11068   0.11560   0.12534

 Mulliken atomic charges:
              1
     1  H   -0.018007
     2  C    0.328743
     3  H    0.058564
     4  H   -0.083319
     5  C    0.684521
     6  O   -0.809322
     7  N   -0.449590
     8  H   -0.051856
     9  C    0.103321
    10  H   -0.158425
    11  C    0.730853
    12  H   -0.052755
    13  H   -0.034295
    14  H   -0.092445
    15  C    0.963250
    16  O   -0.833516
    17  N   -0.558531
    18  H   -0.103624
    19  C    0.742468
    20  H   -0.148784
    21  H   -0.094168
    22  H   -0.123083
 Sum of Mulliken atomic charges =   0.00000

 Dipole moment (field-independent basis, Debye):
    X=             -2.3711    Y=              3.0370    Z=             -6.1079  Tot=              7.2216
 Quadrupole moment (field-independent basis, Debye-Ang):
   XX=            -57.2088   YY=            -60.2347   ZZ=            -64.5703
   XY=             -1.7610   XZ=             -4.0337   YZ=              5.3583

 Normal termination of Gaussian 09 at Mon Feb 13 13:33:07 2017.
