 Gaussian 09, Revision A.02,
 Gaussian 09:  EM64L-G09RevA.02 11-Jun-2009

 -------------------
 #SP MP2/aug-cc-pVDZ
 -------------------

 -------------------------------
 Single Point calculation at MP2
 -------------------------------
 Symbolic Z-matrix:
 Charge =  0 Multiplicity = 1

                         Standard orientation:
 ---------------------------------------------------------------------
 Center     Atomic      Atomic             Coordinates (Angstroms)
 Number     Number       Type             X           Y           Z
 ---------------------------------------------------------------------
      1          1           0        3.402901   -1.737111   -0.749785
      2          6           0        3.225007   -0.659810   -0.702985
      3          1           0        3.184609   -0.257110   -1.720385
      4          1           0        4.076709   -0.209014   -0.181285
      5          6           0        1.958508   -0.409403    0.104615
      6          8           0        1.717805   -0.995902    1.147715
      7          7           0        1.097613    0.525702   -0.424885
      8          1           0        1.437916    1.097900   -1.186785
      9          6           0       -0.039084    1.041608    0.343615
     10          1           0        0.278817    1.179606    1.382015
     11          6           0       -0.512177    2.374010   -0.242385
     12          1           0       -0.832877    2.267412   -1.284985
     13          1           0       -1.363075    2.751715    0.331615
     14          1           0        0.288427    3.121606   -0.195685
     15          6           0       -1.197890    0.022214    0.443115
     16          8           0       -1.692091   -0.276383    1.518515
     17          7           0       -1.727192   -0.361783   -0.763485
     18          1           0       -1.116391   -0.273586   -1.565685
     19          6           0       -2.770397   -1.373677   -0.832085
     20          1           0       -3.407797   -1.258974    0.045615
     21          1           0       -3.366596   -1.226674   -1.737585
     22          1           0       -2.365103   -2.394579   -0.831685
 ---------------------------------------------------------------------

 SCF Done:  E(RHF) =  -492.918717949     A.U. after   14 cycles
 E2 =    -0.1601691432D+01 EUMP2 =    -0.49452040938183D+03

 The electronic state is 1-A.
 Alpha  occ. eigenvalues --  -20.53685 -20.52735 -15.60667 -15.58906 -11.36829
 Alpha  occ. eigenvalues --  -11.35233 -11.29319 -11.26357 -11.25453 -11.25187
 Alpha  occ. eigenvalues --   -1.39263  -1.37894  -1.24885  -1.22249  -1.06110
 Alpha  occ. eigenvalues --   -0.99911  -0.95281  -0.88341  -0.80826  -0.77776
 Alpha  occ. eigenvalues --   -0.71059  -0.68602  -0.67719  -0.63323  -0.62358
 Alpha  occ. eigenvalues --   -0.61715  -0.59304  -0.58797  -0.58061  -0.55991
 Alpha  occ. eigenvalues --   -0.54961  -0.54325  -0.53925  -0.51628  -0.49985
 Alpha  occ. eigenvalues --   -0.43617  -0.42883  -0.39523  -0.38916
 Alpha virt. eigenvalues --    0.02105   0.03606   0.03828   0.04560   0.05548
 Alpha virt. eigenvalues --    0.05728   0.06287   0.06626   0.07190   0.07896
 Alpha virt. eigenvalues --    0.08531   0.09107   0.11036   0.11658   0.11844

 Mulliken atomic charges:
              1
     1  H    0.029101
     2  C    0.372587
     3  H   -0.149550
     4  H    0.060321
     5  C    0.539090
     6  O   -0.821964
     7  N   -0.387652
     8  H   -0.063639
     9  C    0.235022
    10  H   -0.232803
    11  C    0.811583
    12  H   -0.037132
    13  H   -0.061998
    14  H   -0.079021
    15  C    0.876271
    16  O   -0.811417
    17  N   -0.620692
    18  H   -0.032823
    19  C    0.734835
    20  H   -0.118800
    21  H   -0.165826
    22  H   -0.075491
 Sum of Mulliken atomic charges =   0.00000

 Dipole moment (field-independent basis, Debye):
    X=              1.8156    Y=              2.7598    Z=             -6.4706  Tot=              7.2651
 Quadrupole moment (field-independent basis, Debye-Ang):
   XX=            -56.9412   YY=            -58.4847   ZZ=            -66.4495
   XY=              3.5642   XZ=              0.1561   YZ=              4.8173

 Normal termination of Gaussian 09 at Mon Feb 13 13:31:33 2017.
