 Gaussian 09, Revision A.02,
 Gaussian 09:  EM64L-G09RevA.02 11-Jun-2009

 -------------------
 #SP MP2/aug-cc-pVDZ
 -------------------

 -------------------------------
 Single Point calculation at MP2
 -------------------------------
 Symbolic Z-matrix:
 Charge =  0 Multiplicity = 1

                         Standard orientation:
 ---------------------------------------------------------------------
 Center     Atomic      Atomic             Coordinates (Angstroms)
 Number     Number       Type             X           Y           Z
 ---------------------------------------------------------------------
      1          1           0        3.948004   -1.191091    0.050900
      2          6           0        3.155804   -0.790192   -0.583600
      3          1           0        2.750905   -1.606492   -1.194000
      4          1           0        3.569103   -0.031591   -1.256900
      5          6           0        2.046003   -0.239693    0.294300
      6          8           0        1.876003   -0.594394    1.450900
      7          7           0        1.251802    0.724306   -0.308400
      8          1           0        1.271602    0.701906   -1.322500
      9          6           0       -0.071499    0.963604    0.240500
     10          1           0        0.043001    0.945404    1.329000
     11          6           0       -0.592401    2.335903   -0.212200
     12          1           0       -0.721201    2.368503   -1.300900
     13          1           0       -1.560201    2.574502    0.239800
     14          1           0        0.121198    3.114404    0.073000
     15          6           0       -1.021997   -0.195498   -0.161900
     16          8           0       -0.653996   -1.103197   -0.897300
     17          7           0       -2.302497   -0.080699    0.299200
     18          1           0       -2.493198    0.616100    1.005700
     19          6           0       -3.299596   -1.117201    0.083300
     20          1           0       -2.968995   -1.721500   -0.762100
     21          1           0       -3.408995   -1.769701    0.959000
     22          1           0       -4.270296   -0.666502   -0.147800
 ---------------------------------------------------------------------

 SCF Done:  E(RHF) =  -492.924674750     A.U. after   15 cycles
 E2 =    -0.1600060230D+01 EUMP2 =    -0.49452473498066D+03

 The electronic state is 1-A.
 Alpha  occ. eigenvalues --  -20.53567 -20.52977 -15.59885 -15.58655 -11.36144
 Alpha  occ. eigenvalues --  -11.35652 -11.29143 -11.27050 -11.24821 -11.23847
 Alpha  occ. eigenvalues --   -1.39198  -1.37910  -1.23656  -1.23259  -1.05429
 Alpha  occ. eigenvalues --   -0.98849  -0.95783  -0.87849  -0.79475  -0.78149
 Alpha  occ. eigenvalues --   -0.72760  -0.67179  -0.66317  -0.63157  -0.62799
 Alpha  occ. eigenvalues --   -0.61702  -0.59525  -0.58143  -0.57118  -0.56317
 Alpha  occ. eigenvalues --   -0.55010  -0.54125  -0.53324  -0.50523  -0.50443
 Alpha  occ. eigenvalues --   -0.43442  -0.42296  -0.39689  -0.39593
 Alpha virt. eigenvalues --    0.02805   0.03796   0.04289   0.04710   0.05661
 Alpha virt. eigenvalues --    0.06064   0.06207   0.06933   0.07282   0.08069
 Alpha virt. eigenvalues --    0.09051   0.09561   0.10542   0.11856   0.12331

 Mulliken atomic charges:
              1
     1  H   -0.038735
     2  C    0.292763
     3  H    0.078975
     4  H   -0.030458
     5  C    0.697238
     6  O   -0.862695
     7  N   -0.505477
     8  H   -0.013123
     9  C   -0.016860
    10  H   -0.098872
    11  C    0.788933
    12  H   -0.039288
    13  H   -0.104124
    14  H   -0.039487
    15  C    0.997329
    16  O   -0.837023
    17  N   -0.514023
    18  H   -0.103149
    19  C    0.710854
    20  H   -0.136344
    21  H   -0.075018
    22  H   -0.151416
 Sum of Mulliken atomic charges =   0.00000

 Dipole moment (field-independent basis, Debye):
    X=             -2.3758    Y=              3.0315    Z=             -1.2668  Tot=              4.0545
 Quadrupole moment (field-independent basis, Debye-Ang):
   XX=            -50.8491   YY=            -62.0301   ZZ=            -64.7605
   XY=             -0.6900   XZ=            -10.6365   YZ=              0.7699

 Normal termination of Gaussian 09 at Mon Feb 13 14:14:49 2017.
