 Gaussian 09, Revision A.02,
 Gaussian 09:  EM64L-G09RevA.02 11-Jun-2009

 ----------------------------------------------------------------------
 # b3lyp/6-31G* Opt=(ModRedundant, maxcycles=1000, calcfc) geom=nocrowd
 ----------------------------------------------------------------------

 ------------------
 Phi Psi fixed scan
 ------------------
 Symbolic Z-matrix:
 Charge =  0 Multiplicity = 1

 SCF Done:  E(RB3LYP) =  -990.482336932     A.U. after   14 cycles

  Exact polarizability:   0.000   0.000   0.000   0.000   0.000   0.000
 Approx polarizability: 251.799   1.734 242.859   2.386 -25.714 174.735

 SCF Done:  E(RB3LYP) =  -990.490058787     A.U. after   12 cycles
 SCF Done:  E(RB3LYP) =  -990.500126761     A.U. after   13 cycles
 SCF Done:  E(RB3LYP) =  -990.502673205     A.U. after   13 cycles
 SCF Done:  E(RB3LYP) =  -990.503011375     A.U. after   13 cycles
 SCF Done:  E(RB3LYP) =  -990.504556220     A.U. after   12 cycles
 SCF Done:  E(RB3LYP) =  -990.505374568     A.U. after   12 cycles
 SCF Done:  E(RB3LYP) =  -990.499105435     A.U. after   13 cycles
 SCF Done:  E(RB3LYP) =  -990.505585943     A.U. after   13 cycles
 SCF Done:  E(RB3LYP) =  -990.505764525     A.U. after   12 cycles
 SCF Done:  E(RB3LYP) =  -990.506035237     A.U. after   10 cycles
 SCF Done:  E(RB3LYP) =  -990.506052033     A.U. after   10 cycles
 SCF Done:  E(RB3LYP) =  -990.506059605     A.U. after   10 cycles
 SCF Done:  E(RB3LYP) =  -990.506067872     A.U. after    9 cycles
 SCF Done:  E(RB3LYP) =  -990.506075071     A.U. after   10 cycles
 SCF Done:  E(RB3LYP) =  -990.506079920     A.U. after    9 cycles
 SCF Done:  E(RB3LYP) =  -990.506084637     A.U. after   10 cycles
 SCF Done:  E(RB3LYP) =  -990.506085876     A.U. after    9 cycles
 SCF Done:  E(RB3LYP) =  -990.506086636     A.U. after    9 cycles
 SCF Done:  E(RB3LYP) =  -990.506086773     A.U. after    7 cycles
 Optimization completed.
    -- Stationary point found.

                         Standard orientation:
 ---------------------------------------------------------------------
 Center     Atomic      Atomic             Coordinates (Angstroms)
 Number     Number       Type             X           Y           Z
 ---------------------------------------------------------------------
      1          1           0       -6.860249   -1.759808   -0.415315
      2          6           0       -6.409627   -0.793284   -0.168879
      3          1           0       -7.026492   -0.336198    0.611039
      4          1           0       -6.426763   -0.155920   -1.058243
      5          6           0       -5.012903   -1.029859    0.386401
      6          8           0       -4.815278   -1.711334    1.388597
      7          7           0       -3.997933   -0.440534   -0.306308
      8          1           0       -4.166920    0.184483   -1.085419
      9          6           0       -2.619990   -0.522631    0.135456
     10          1           0       -2.611166   -0.455888    1.231309
     11          6           0       -1.954692   -1.852173   -0.275555
     12          1           0       -1.950384   -1.954089   -1.365750
     13          1           0       -0.921320   -1.915256    0.082365
     14          1           0       -2.526527   -2.676835    0.157204
     15          6           0       -1.880071    0.680188   -0.468395
     16          8           0       -2.343160    1.320946   -1.406285
     17          7           0       -0.642955    0.927242    0.067411
     18          1           0       -0.474540    0.544942    0.991495
     19          6           0        0.111434    2.133264   -0.281568
     20          1           0       -0.137491    2.345111   -1.325708
     21          6           0       -0.282753    3.347570    0.571844
     22          1           0       -0.113751    3.149822    1.637377
     23          1           0        0.323448    4.209304    0.283303
     24          1           0       -1.340549    3.581242    0.420870
     25          6           0        1.633374    1.912866   -0.220692
     26          8           0        2.404788    2.843293   -0.434851
     27          7           0        2.049442    0.667987    0.137443
     28          1           0        1.415633   -0.122954    0.073431
     29          6           0        3.454891    0.303916    0.122957
     30          1           0        3.938459    0.798304   -0.730530
     31          6           0        4.168504    0.750143    1.412482
     32          1           0        3.724197    0.261852    2.285872
     33          1           0        5.237065    0.508705    1.385548
     34          1           0        4.064031    1.832969    1.516810
     35          6           0        3.507211   -1.223698   -0.068824
     36          8           0        2.493572   -1.915052    0.017419
     37          7           0        4.741005   -1.731170   -0.321195
     38          1           0        5.516246   -1.089241   -0.407426
     39          6           0        4.991473   -3.151233   -0.509053
     40          1           0        4.042079   -3.671524   -0.379661
     41          1           0        5.376802   -3.353064   -1.514976
     42          1           0        5.710803   -3.523861    0.228866
 ---------------------------------------------------------------------

 The electronic state is 1-A.
 Alpha  occ. eigenvalues --  -19.13459 -19.13312 -19.11530 -19.09853 -14.38292
 Alpha  occ. eigenvalues --  -14.37545 -14.36060 -14.34996 -10.30552 -10.30117
 Alpha  occ. eigenvalues --  -10.28997 -10.27857 -10.24712 -10.23987 -10.23753
 Alpha  occ. eigenvalues --  -10.23310 -10.19514 -10.18476 -10.18451 -10.18131
 Alpha  occ. eigenvalues --   -1.05449  -1.05177  -1.03452  -1.01878  -0.94329
 Alpha  occ. eigenvalues --   -0.94056  -0.92310  -0.91496  -0.79531  -0.77860
 Alpha  occ. eigenvalues --   -0.75741  -0.72268  -0.71994  -0.67763  -0.65844
 Alpha  occ. eigenvalues --   -0.63630  -0.60553  -0.60116  -0.58009  -0.57552
 Alpha  occ. eigenvalues --   -0.56041  -0.52624  -0.49552  -0.49205  -0.48415
 Alpha  occ. eigenvalues --   -0.46929  -0.46824  -0.46468  -0.45282  -0.45088
 Alpha  occ. eigenvalues --   -0.44017  -0.43746  -0.43173  -0.42490  -0.41409
 Alpha  occ. eigenvalues --   -0.41067  -0.40807  -0.40412  -0.40230  -0.39435
 Alpha  occ. eigenvalues --   -0.38737  -0.38265  -0.37979  -0.37528  -0.37213
 Alpha  occ. eigenvalues --   -0.36718  -0.36534  -0.34898  -0.33845  -0.28343
 Alpha  occ. eigenvalues --   -0.27517  -0.27437  -0.27040  -0.25860  -0.25052
 Alpha  occ. eigenvalues --   -0.24207  -0.23863
 Alpha virt. eigenvalues --    0.00605   0.00812   0.02285   0.03782   0.05570
 Alpha virt. eigenvalues --    0.06468   0.09651   0.10815   0.11728   0.12217
 Alpha virt. eigenvalues --    0.12877   0.13420   0.13555   0.14378   0.14586

 Mulliken atomic charges:
              1
     1  H    0.182791
     2  C   -0.533343
     3  H    0.182121
     4  H    0.148121
     5  C    0.596282
     6  O   -0.523579
     7  N   -0.603753
     8  H    0.345675
     9  C   -0.035087
    10  H    0.168190
    11  C   -0.447976
    12  H    0.156564
    13  H    0.156820
    14  H    0.187714
    15  C    0.609479
    16  O   -0.521775
    17  N   -0.630795
    18  H    0.331976
    19  C   -0.048267
    20  H    0.206909
    21  C   -0.449078
    22  H    0.141068
    23  H    0.186182
    24  H    0.166166
    25  C    0.606020
    26  O   -0.531849
    27  N   -0.633073
    28  H    0.362252
    29  C   -0.032300
    30  H    0.174244
    31  C   -0.443660
    32  H    0.159107
    33  H    0.135706
    34  H    0.191274
    35  C    0.604960
    36  O   -0.531236
    37  N   -0.591726
    38  H    0.333238
    39  C   -0.314345
    40  H    0.209000
    41  H    0.165628
    42  H    0.164357
 Sum of Mulliken atomic charges =   0.00000

 Dipole moment (field-independent basis, Debye):
    X=              4.8248    Y=             -1.1014    Z=             -0.2000  Tot=              4.9529
 Quadrupole moment (field-independent basis, Debye-Ang):
   XX=            -94.5968   YY=           -130.1259   ZZ=           -122.7700
   XY=            -20.1767   XZ=              7.2977   YZ=             10.6256

 Normal termination of Gaussian 09 at Thu Dec 29 11:51:50 2016.
