 Gaussian 09, Revision A.02,
 Gaussian 09:  EM64L-G09RevA.02 11-Jun-2009

 ----------------------------------------------------------------------
 # b3lyp/6-31G* Opt=(ModRedundant, maxcycles=1000, calcfc) geom=nocrowd
 ----------------------------------------------------------------------

 ------------------
 Phi Psi fixed scan
 ------------------
 Symbolic Z-matrix:
 Charge =  0 Multiplicity = 1

 SCF Done:  E(RB3LYP) =  -990.489064757     A.U. after   14 cycles

  Exact polarizability:   0.000   0.000   0.000   0.000   0.000   0.000
 Approx polarizability: 249.059  10.417 232.203  18.215 -18.045 188.591

 SCF Done:  E(RB3LYP) =  -990.495768984     A.U. after   12 cycles
 SCF Done:  E(RB3LYP) =  -990.503086031     A.U. after   13 cycles
 SCF Done:  E(RB3LYP) =  -990.504918805     A.U. after   12 cycles
 SCF Done:  E(RB3LYP) =  -990.506242870     A.U. after   13 cycles
 SCF Done:  E(RB3LYP) =  -990.506566612     A.U. after   13 cycles
 SCF Done:  E(RB3LYP) =  -990.506854577     A.U. after   12 cycles
 SCF Done:  E(RB3LYP) =  -990.499940215     A.U. after   13 cycles
 SCF Done:  E(RB3LYP) =  -990.506913522     A.U. after   13 cycles
 SCF Done:  E(RB3LYP) =  -990.506989015     A.U. after   11 cycles
 SCF Done:  E(RB3LYP) =  -990.507050465     A.U. after    9 cycles
 SCF Done:  E(RB3LYP) =  -990.507053133     A.U. after    9 cycles
 SCF Done:  E(RB3LYP) =  -990.507056196     A.U. after   10 cycles
 SCF Done:  E(RB3LYP) =  -990.507059288     A.U. after    9 cycles
 SCF Done:  E(RB3LYP) =  -990.507061899     A.U. after    9 cycles
 SCF Done:  E(RB3LYP) =  -990.507063806     A.U. after    9 cycles
 SCF Done:  E(RB3LYP) =  -990.507064866     A.U. after    9 cycles
 SCF Done:  E(RB3LYP) =  -990.507065181     A.U. after    7 cycles
 SCF Done:  E(RB3LYP) =  -990.507065326     A.U. after    7 cycles
 SCF Done:  E(RB3LYP) =  -990.507065363     A.U. after    7 cycles
 Optimization completed.
    -- Stationary point found.

                         Standard orientation:
 ---------------------------------------------------------------------
 Center     Atomic      Atomic             Coordinates (Angstroms)
 Number     Number       Type             X           Y           Z
 ---------------------------------------------------------------------
      1          1           0       -6.761843   -1.954249   -0.449275
      2          6           0       -6.347653   -0.943689   -0.378629
      3          1           0       -7.050607   -0.344322    0.208310
      4          1           0       -6.269436   -0.519987   -1.384559
      5          6           0       -5.020488   -1.008226    0.362548
      6          8           0       -4.930431   -1.456632    1.502211
      7          7           0       -3.940274   -0.540767   -0.324301
      8          1           0       -4.025153   -0.102428   -1.233655
      9          6           0       -2.620762   -0.479501    0.272426
     10          1           0       -2.737552   -0.185320    1.323468
     11          6           0       -1.898533   -1.841307    0.224593
     12          1           0       -1.768415   -2.167669   -0.812334
     13          1           0       -0.911567   -1.792916    0.697743
     14          1           0       -2.505622   -2.577794    0.756942
     15          6           0       -1.831673    0.596022   -0.488988
     16          8           0       -2.184344    0.996177   -1.594586
     17          7           0       -0.684686    1.019081    0.122675
     18          1           0       -0.570570    0.801563    1.105291
     19          6           0        0.117849    2.119183   -0.417298
     20          1           0        0.023505    2.041440   -1.506334
     21          6           0       -0.388879    3.494348    0.027029
     22          1           0       -0.373742    3.584286    1.119114
     23          1           0        0.253743    4.277216   -0.381350
     24          1           0       -1.412980    3.641733   -0.327143
     25          6           0        1.608820    1.934870   -0.067924
     26          8           0        2.364535    2.894861    0.051728
     27          7           0        2.020821    0.646953    0.054771
     28          1           0        1.393122   -0.128634   -0.129954
     29          6           0        3.412710    0.290783    0.252183
     30          1           0        4.029930    0.917030   -0.405382
     31          6           0        3.866490    0.514650    1.707930
     32          1           0        3.284285   -0.113504    2.390176
     33          1           0        4.927756    0.273466    1.835327
     34          1           0        3.715639    1.564911    1.968995
     35          6           0        3.546124   -1.188102   -0.151918
     36          8           0        2.560417   -1.917046   -0.240659
     37          7           0        4.818300   -1.612591   -0.367971
     38          1           0        5.567269   -0.937407   -0.305362
     39          6           0        5.148025   -2.986415   -0.711657
     40          1           0        4.215474   -3.551024   -0.734624
     41          1           0        5.625073   -3.041594   -1.696732
     42          1           0        5.818983   -3.428119    0.033806
 ---------------------------------------------------------------------

 The electronic state is 1-A.
 Alpha  occ. eigenvalues --  -19.13279 -19.13166 -19.11630 -19.09854 -14.38225
 Alpha  occ. eigenvalues --  -14.37609 -14.36088 -14.35002 -10.30428 -10.30045
 Alpha  occ. eigenvalues --  -10.29023 -10.27861 -10.24749 -10.24035 -10.23761
 Alpha  occ. eigenvalues --  -10.23254 -10.19419 -10.18474 -10.18231 -10.17950
 Alpha  occ. eigenvalues --   -1.05322  -1.05074  -1.03490  -1.01877  -0.94256
 Alpha  occ. eigenvalues --   -0.93973  -0.92331  -0.91497  -0.79523  -0.77858
 Alpha  occ. eigenvalues --   -0.75651  -0.72233  -0.72005  -0.67816  -0.65815
 Alpha  occ. eigenvalues --   -0.63452  -0.60434  -0.60137  -0.58251  -0.57571
 Alpha  occ. eigenvalues --   -0.55997  -0.52569  -0.49393  -0.49209  -0.48476
 Alpha  occ. eigenvalues --   -0.46936  -0.46803  -0.46564  -0.45286  -0.45162
 Alpha  occ. eigenvalues --   -0.44195  -0.43684  -0.43039  -0.42346  -0.41364
 Alpha  occ. eigenvalues --   -0.41053  -0.40720  -0.40398  -0.39975  -0.39130
 Alpha  occ. eigenvalues --   -0.38744  -0.38170  -0.38044  -0.37466  -0.37081
 Alpha  occ. eigenvalues --   -0.36710  -0.36490  -0.35250  -0.33849  -0.28020
 Alpha  occ. eigenvalues --   -0.27406  -0.27302  -0.26927  -0.25697  -0.25138
 Alpha  occ. eigenvalues --   -0.24269  -0.23864
 Alpha virt. eigenvalues --    0.00713   0.00870   0.02270   0.03809   0.05630
 Alpha virt. eigenvalues --    0.06847   0.09527   0.10831   0.11365   0.11980
 Alpha virt. eigenvalues --    0.12875   0.13157   0.13626   0.14599   0.14761

 Mulliken atomic charges:
              1
     1  H    0.182772
     2  C   -0.533273
     3  H    0.182220
     4  H    0.148163
     5  C    0.596634
     6  O   -0.523972
     7  N   -0.603551
     8  H    0.345869
     9  C   -0.034372
    10  H    0.168392
    11  C   -0.446083
    12  H    0.159748
    13  H    0.149331
    14  H    0.188233
    15  C    0.613009
    16  O   -0.525881
    17  N   -0.630637
    18  H    0.332688
    19  C   -0.046825
    20  H    0.203838
    21  C   -0.439057
    22  H    0.142841
    23  H    0.180463
    24  H    0.161973
    25  C    0.598510
    26  O   -0.533337
    27  N   -0.622402
    28  H    0.361316
    29  C   -0.025265
    30  H    0.168061
    31  C   -0.445914
    32  H    0.157953
    33  H    0.138026
    34  H    0.192102
    35  C    0.604090
    36  O   -0.529536
    37  N   -0.592484
    38  H    0.332481
    39  C   -0.314255
    40  H    0.208865
    41  H    0.165277
    42  H    0.163989
 Sum of Mulliken atomic charges =   0.00000

 Dipole moment (field-independent basis, Debye):
    X=              4.9270    Y=             -1.1151    Z=             -0.5589  Tot=              5.0824
 Quadrupole moment (field-independent basis, Debye-Ang):
   XX=            -95.9710   YY=           -129.0236   ZZ=           -123.2338
   XY=            -17.8740   XZ=              8.1442   YZ=              6.7591

 Normal termination of Gaussian 09 at Thu Dec 29 16:02:48 2016.
