 Gaussian 09, Revision A.02,
 Gaussian 09:  EM64L-G09RevA.02 11-Jun-2009

 ----------------------------------------------------------------------
 # b3lyp/6-31G* Opt=(ModRedundant, maxcycles=1000, calcfc) geom=nocrowd
 ----------------------------------------------------------------------

 ------------------
 Phi Psi fixed scan
 ------------------
 Symbolic Z-matrix:
 Charge =  0 Multiplicity = 1

 SCF Done:  E(RB3LYP) =  -990.493853584     A.U. after   14 cycles

  Exact polarizability:   0.000   0.000   0.000   0.000   0.000   0.000
 Approx polarizability: 238.560  -1.475 224.040   0.271 -45.920 203.512

 SCF Done:  E(RB3LYP) =  -990.500582918     A.U. after   15 cycles
 SCF Done:  E(RB3LYP) =  -990.507749944     A.U. after   13 cycles
 SCF Done:  E(RB3LYP) =  -990.509222105     A.U. after   12 cycles
 SCF Done:  E(RB3LYP) =  -990.509814072     A.U. after   14 cycles
 SCF Done:  E(RB3LYP) =  -990.510138810     A.U. after   11 cycles
 SCF Done:  E(RB3LYP) =  -990.479019536     A.U. after   15 cycles
 SCF Done:  E(RB3LYP) =  -990.510215126     A.U. after   15 cycles
 SCF Done:  E(RB3LYP) =  -990.510466170     A.U. after   12 cycles
 SCF Done:  E(RB3LYP) =  -990.510570994     A.U. after   12 cycles
 SCF Done:  E(RB3LYP) =  -990.510845872     A.U. after   10 cycles
 SCF Done:  E(RB3LYP) =  -990.510847998     A.U. after    9 cycles
 SCF Done:  E(RB3LYP) =  -990.510849284     A.U. after    9 cycles
 SCF Done:  E(RB3LYP) =  -990.510850686     A.U. after    9 cycles
 SCF Done:  E(RB3LYP) =  -990.510852233     A.U. after    9 cycles
 SCF Done:  E(RB3LYP) =  -990.510854206     A.U. after    9 cycles
 SCF Done:  E(RB3LYP) =  -990.510855711     A.U. after    9 cycles
 SCF Done:  E(RB3LYP) =  -990.510856322     A.U. after    9 cycles
 SCF Done:  E(RB3LYP) =  -990.510856382     A.U. after    7 cycles
 SCF Done:  E(RB3LYP) =  -990.510856396     A.U. after    6 cycles
 Optimization completed.
    -- Stationary point found.

                         Standard orientation:
 ---------------------------------------------------------------------
 Center     Atomic      Atomic             Coordinates (Angstroms)
 Number     Number       Type             X           Y           Z
 ---------------------------------------------------------------------
      1          1           0        7.666856   -0.096193   -1.174609
      2          6           0        6.975981   -0.734887   -0.615397
      3          1           0        7.538242   -1.172880    0.215221
      4          1           0        6.623204   -1.537125   -1.270804
      5          6           0        5.857737    0.128589   -0.048765
      6          8           0        6.081922    1.068925    0.709118
      7          7           0        4.599223   -0.208502   -0.444117
      8          1           0        4.408790   -1.031158   -1.004847
      9          6           0        3.422467    0.469521    0.063196
     10          1           0        3.563146    0.651587    1.136217
     11          6           0        3.189183    1.825048   -0.632581
     12          1           0        3.032931    1.682091   -1.707080
     13          1           0        2.315899    2.341070   -0.218283
     14          1           0        4.069910    2.453508   -0.479970
     15          6           0        2.234678   -0.483313   -0.148353
     16          8           0        2.313272   -1.459134   -0.896417
     17          7           0        1.105917   -0.161503    0.526313
     18          1           0        1.051019    0.661472    1.116599
     19          6           0       -0.144985   -0.884038    0.359627
     20          1           0       -0.183745   -1.247781   -0.672547
     21          6           0       -0.254315   -2.084989    1.316881
     22          1           0       -0.213056   -1.747932    2.357725
     23          1           0       -1.194610   -2.625696    1.160867
     24          1           0        0.576848   -2.770596    1.130657
     25          6           0       -1.272064    0.126224    0.617557
     26          8           0       -1.115576    1.063967    1.401744
     27          7           0       -2.424195   -0.095498   -0.053848
     28          1           0       -2.549166   -0.896262   -0.665741
     29          6           0       -3.623415    0.693338    0.168291
     30          1           0       -3.715495    0.883780    1.244897
     31          6           0       -3.567042    2.044971   -0.569399
     32          1           0       -3.486126    1.887414   -1.649731
     33          1           0       -4.463499    2.643216   -0.371883
     34          1           0       -2.694141    2.603718   -0.223135
     35          6           0       -4.805532   -0.164366   -0.317687
     36          8           0       -4.627400   -1.136546   -1.048109
     37          7           0       -6.029503    0.253288    0.096257
     38          1           0       -6.081788    1.043697    0.723355
     39          6           0       -7.265817   -0.403141   -0.298471
     40          1           0       -7.004897   -1.205489   -0.989154
     41          1           0       -7.779904   -0.830920    0.569806
     42          1           0       -7.939509    0.300548   -0.799883
 ---------------------------------------------------------------------

 The electronic state is 1-A.
 Alpha  occ. eigenvalues --  -19.13649 -19.12695 -19.11939 -19.09276 -14.38579
 Alpha  occ. eigenvalues --  -14.37067 -14.36199 -14.34336 -10.30817 -10.29803
 Alpha  occ. eigenvalues --  -10.28991 -10.27286 -10.25263 -10.24163 -10.23537
 Alpha  occ. eigenvalues --  -10.22981 -10.19775 -10.18837 -10.18022 -10.17781
 Alpha  occ. eigenvalues --   -1.05754  -1.04633  -1.03694  -1.01255  -0.94357
 Alpha  occ. eigenvalues --   -0.93647  -0.92764  -0.90830  -0.79987  -0.77801
 Alpha  occ. eigenvalues --   -0.75467  -0.72535  -0.71529  -0.67897  -0.66207
 Alpha  occ. eigenvalues --   -0.63484  -0.61097  -0.59394  -0.58714  -0.56839
 Alpha  occ. eigenvalues --   -0.56125  -0.52273  -0.49749  -0.48759  -0.48112
 Alpha  occ. eigenvalues --   -0.47417  -0.47065  -0.46283  -0.45286  -0.44573
 Alpha  occ. eigenvalues --   -0.44404  -0.43784  -0.43280  -0.42440  -0.41946
 Alpha  occ. eigenvalues --   -0.41056  -0.40912  -0.40642  -0.39542  -0.39168
 Alpha  occ. eigenvalues --   -0.38730  -0.38236  -0.38087  -0.37541  -0.37420
 Alpha  occ. eigenvalues --   -0.36478  -0.36141  -0.35326  -0.33262  -0.27986
 Alpha  occ. eigenvalues --   -0.27820  -0.27065  -0.26515  -0.25861  -0.25487
 Alpha  occ. eigenvalues --   -0.23801  -0.23271
 Alpha virt. eigenvalues --    0.00342   0.01387   0.02594   0.04440   0.05359
 Alpha virt. eigenvalues --    0.08595   0.09173   0.10400   0.10712   0.12328
 Alpha virt. eigenvalues --    0.12938   0.13379   0.13887   0.14346   0.14508

 Mulliken atomic charges:
              1
     1  H    0.180632
     2  C   -0.532880
     3  H    0.180622
     4  H    0.147258
     5  C    0.596111
     6  O   -0.525531
     7  N   -0.605493
     8  H    0.345799
     9  C   -0.027799
    10  H    0.173180
    11  C   -0.447845
    12  H    0.153210
    13  H    0.143059
    14  H    0.189656
    15  C    0.611242
    16  O   -0.544550
    17  N   -0.615239
    18  H    0.351680
    19  C   -0.034172
    20  H    0.174764
    21  C   -0.444713
    22  H    0.161391
    23  H    0.150284
    24  H    0.181727
    25  C    0.614478
    26  O   -0.546469
    27  N   -0.617547
    28  H    0.357126
    29  C   -0.037220
    30  H    0.171534
    31  C   -0.443937
    32  H    0.163845
    33  H    0.139105
    34  H    0.191107
    35  C    0.607037
    36  O   -0.527832
    37  N   -0.592565
    38  H    0.333020
    39  C   -0.314619
    40  H    0.209411
    41  H    0.166211
    42  H    0.164920
 Sum of Mulliken atomic charges =   0.00000

 Dipole moment (field-independent basis, Debye):
    X=             -7.4432    Y=              0.1775    Z=             -0.0840  Tot=              7.4458
 Quadrupole moment (field-independent basis, Debye-Ang):
   XX=            -99.8279   YY=           -122.5850   ZZ=           -122.8229
   XY=            -18.8664   XZ=            -14.2557   YZ=             -6.8288

 Normal termination of Gaussian 09 at Thu Dec 29 11:59:14 2016.
