 Gaussian 09, Revision A.02,
 Gaussian 09:  EM64L-G09RevA.02 11-Jun-2009

 ----------------------------------------------------------------------
 # b3lyp/6-31G* Opt=(ModRedundant, maxcycles=1000, calcfc) geom=nocrowd
 ----------------------------------------------------------------------

 ------------------
 Phi Psi fixed scan
 ------------------
 Symbolic Z-matrix:
 Charge =  0 Multiplicity = 1

 SCF Done:  E(RB3LYP) =  -990.483184643     A.U. after   14 cycles

  Exact polarizability:   0.000   0.000   0.000   0.000   0.000   0.000
 Approx polarizability: 245.990   1.614 234.717   6.271  24.027 187.378

 SCF Done:  E(RB3LYP) =  -990.491583841     A.U. after   15 cycles
 SCF Done:  E(RB3LYP) =  -990.501236310     A.U. after   12 cycles
 SCF Done:  E(RB3LYP) =  -990.504278084     A.U. after   12 cycles
 SCF Done:  E(RB3LYP) =  -990.506680982     A.U. after   15 cycles
 SCF Done:  E(RB3LYP) =  -990.507514855     A.U. after   15 cycles
 SCF Done:  E(RB3LYP) =  -990.412713750     A.U. after   14 cycles
 SCF Done:  E(RB3LYP) =  -990.507534856     A.U. after   14 cycles
 SCF Done:  E(RB3LYP) =  -990.507805511     A.U. after   12 cycles
 SCF Done:  E(RB3LYP) =  -990.507599346     A.U. after   12 cycles
 SCF Done:  E(RB3LYP) =  -990.508100129     A.U. after    9 cycles
 SCF Done:  E(RB3LYP) =  -990.508104486     A.U. after    9 cycles
 SCF Done:  E(RB3LYP) =  -990.508107040     A.U. after    9 cycles
 SCF Done:  E(RB3LYP) =  -990.508108403     A.U. after    9 cycles
 SCF Done:  E(RB3LYP) =  -990.508110254     A.U. after    9 cycles
 SCF Done:  E(RB3LYP) =  -990.508113477     A.U. after    9 cycles
 SCF Done:  E(RB3LYP) =  -990.508118557     A.U. after   10 cycles
 SCF Done:  E(RB3LYP) =  -990.508122523     A.U. after    9 cycles
 SCF Done:  E(RB3LYP) =  -990.508124209     A.U. after    8 cycles
 SCF Done:  E(RB3LYP) =  -990.508124414     A.U. after    7 cycles
 Optimization completed.
    -- Stationary point found.

                         Standard orientation:
 ---------------------------------------------------------------------
 Center     Atomic      Atomic             Coordinates (Angstroms)
 Number     Number       Type             X           Y           Z
 ---------------------------------------------------------------------
      1          1           0       -7.350467    1.327045    1.202897
      2          6           0       -7.025787    0.783851    0.309796
      3          1           0       -6.845716    1.499934   -0.497890
      4          1           0       -7.843579    0.117078    0.019360
      5          6           0       -5.807773   -0.058138    0.663033
      6          8           0       -5.842779   -0.919382    1.538000
      7          7           0       -4.683768    0.206401   -0.058650
      8          1           0       -4.637570    0.963089   -0.731073
      9          6           0       -3.423792   -0.462343    0.200383
     10          1           0       -3.296089   -0.554282    1.285822
     11          6           0       -3.379465   -1.874590   -0.418576
     12          1           0       -3.506445   -1.818948   -1.504872
     13          1           0       -2.430167   -2.379357   -0.205712
     14          1           0       -4.192596   -2.468300    0.006152
     15          6           0       -2.314943    0.429208   -0.377998
     16          8           0       -2.559461    1.319848   -1.191162
     17          7           0       -1.059265    0.163607    0.075975
     18          1           0       -0.896021   -0.740693    0.508853
     19          6           0        0.112165    0.695835   -0.617560
     20          1           0       -0.099493    0.701469   -1.697039
     21          6           0        0.413311    2.136228   -0.182977
     22          1           0        0.699107    2.182396    0.872828
     23          1           0        1.210518    2.582620   -0.788785
     24          1           0       -0.485321    2.739145   -0.331613
     25          6           0        1.243643   -0.326612   -0.383516
     26          8           0        0.982495   -1.519604   -0.210003
     27          7           0        2.504883    0.155089   -0.350903
     28          1           0        2.717331    1.144083   -0.420568
     29          6           0        3.657141   -0.702053   -0.135207
     30          1           0        3.413674   -1.406732    0.669529
     31          6           0        4.029981   -1.503018   -1.397773
     32          1           0        4.290107   -0.824935   -2.216964
     33          1           0        4.883443   -2.163936   -1.210005
     34          1           0        3.176504   -2.116309   -1.697018
     35          6           0        4.807884    0.221913    0.299939
     36          8           0        4.763876    1.432516    0.092288
     37          7           0        5.858617   -0.404696    0.889095
     38          1           0        5.796359   -1.400234    1.049827
     39          6           0        7.058075    0.295200    1.320970
     40          1           0        6.933925    1.347524    1.063798
     41          1           0        7.197303    0.204607    2.404130
     42          1           0        7.946232   -0.097984    0.813655
 ---------------------------------------------------------------------

 The electronic state is 1-A.
 Alpha  occ. eigenvalues --  -19.13629 -19.12628 -19.12340 -19.09302 -14.38572
 Alpha  occ. eigenvalues --  -14.37045 -14.35996 -14.34402 -10.30796 -10.29919
 Alpha  occ. eigenvalues --  -10.29008 -10.27321 -10.25237 -10.24230 -10.23526
 Alpha  occ. eigenvalues --  -10.22973 -10.19792 -10.18741 -10.18052 -10.17740
 Alpha  occ. eigenvalues --   -1.05744  -1.04700  -1.03888  -1.01294  -0.94346
 Alpha  occ. eigenvalues --   -0.93640  -0.92670  -0.90885  -0.80015  -0.77709
 Alpha  occ. eigenvalues --   -0.75359  -0.72521  -0.71541  -0.67755  -0.66321
 Alpha  occ. eigenvalues --   -0.63645  -0.61018  -0.59400  -0.58104  -0.56797
 Alpha  occ. eigenvalues --   -0.56065  -0.52592  -0.49676  -0.48848  -0.48383
 Alpha  occ. eigenvalues --   -0.47478  -0.47209  -0.46107  -0.45054  -0.44693
 Alpha  occ. eigenvalues --   -0.44127  -0.43553  -0.43140  -0.42264  -0.41782
 Alpha  occ. eigenvalues --   -0.41034  -0.40643  -0.40579  -0.39723  -0.39207
 Alpha  occ. eigenvalues --   -0.39042  -0.38357  -0.38241  -0.37612  -0.37390
 Alpha  occ. eigenvalues --   -0.36724  -0.36151  -0.35094  -0.33282  -0.27987
 Alpha  occ. eigenvalues --   -0.27738  -0.26913  -0.26441  -0.26161  -0.25835
 Alpha  occ. eigenvalues --   -0.23889  -0.23310
 Alpha virt. eigenvalues --    0.00357   0.01537   0.01858   0.04344   0.05378
 Alpha virt. eigenvalues --    0.08574   0.09882   0.10320   0.10778   0.12484
 Alpha virt. eigenvalues --    0.12846   0.13257   0.13877   0.14359   0.14657

 Mulliken atomic charges:
              1
     1  H    0.180741
     2  C   -0.533007
     3  H    0.146990
     4  H    0.180920
     5  C    0.597031
     6  O   -0.525256
     7  N   -0.605336
     8  H    0.344931
     9  C   -0.029340
    10  H    0.176165
    11  C   -0.454841
    12  H    0.154621
    13  H    0.151631
    14  H    0.189327
    15  C    0.600003
    16  O   -0.536987
    17  N   -0.608996
    18  H    0.353401
    19  C   -0.020905
    20  H    0.186796
    21  C   -0.469566
    22  H    0.159045
    23  H    0.148434
    24  H    0.192363
    25  C    0.596218
    26  O   -0.545860
    27  N   -0.626160
    28  H    0.363661
    29  C   -0.030645
    30  H    0.171554
    31  C   -0.446463
    32  H    0.162992
    33  H    0.140142
    34  H    0.191910
    35  C    0.606455
    36  O   -0.528070
    37  N   -0.592823
    38  H    0.333090
    39  C   -0.314831
    40  H    0.209336
    41  H    0.166273
    42  H    0.165054
 Sum of Mulliken atomic charges =   0.00000

 Dipole moment (field-independent basis, Debye):
    X=              6.9976    Y=             -0.4741    Z=             -0.2436  Tot=              7.0179
 Quadrupole moment (field-independent basis, Debye-Ang):
   XX=            -99.7395   YY=           -123.9869   ZZ=           -121.4286
   XY=            -20.4112   XZ=             17.1521   YZ=              3.0087

 Normal termination of Gaussian 09 at Thu Dec 29 14:03:14 2016.
