 Gaussian 09, Revision A.02,
 Gaussian 09:  EM64L-G09RevA.02 11-Jun-2009

 ----------------------------------------------------------------------
 # b3lyp/6-31G* Opt=(ModRedundant, maxcycles=1000, calcfc) geom=nocrowd
 ----------------------------------------------------------------------

 ------------------
 Phi Psi fixed scan
 ------------------
 Symbolic Z-matrix:
 Charge =  0 Multiplicity = 1

 SCF Done:  E(RB3LYP) =  -990.491747974     A.U. after   14 cycles

  Exact polarizability:   0.000   0.000   0.000   0.000   0.000   0.000
 Approx polarizability: 233.416   1.152 179.844  10.149  11.717 254.486

 SCF Done:  E(RB3LYP) =  -990.498233962     A.U. after   11 cycles
 SCF Done:  E(RB3LYP) =  -990.505275796     A.U. after   13 cycles
 SCF Done:  E(RB3LYP) =  -990.506913758     A.U. after   13 cycles
 SCF Done:  E(RB3LYP) =  -990.507775451     A.U. after   15 cycles
 SCF Done:  E(RB3LYP) =  -990.507961471     A.U. after   15 cycles
 SCF Done:  E(RB3LYP) =  -990.508405445     A.U. after   13 cycles
 SCF Done:  E(RB3LYP) =  -990.507020088     A.U. after   15 cycles
 SCF Done:  E(RB3LYP) =  -990.508440972     A.U. after   15 cycles
 SCF Done:  E(RB3LYP) =  -990.508498967     A.U. after   11 cycles
 SCF Done:  E(RB3LYP) =  -990.508525087     A.U. after   11 cycles
 SCF Done:  E(RB3LYP) =  -990.508539797     A.U. after   11 cycles
 SCF Done:  E(RB3LYP) =  -990.508556113     A.U. after   10 cycles
 SCF Done:  E(RB3LYP) =  -990.508583922     A.U. after   11 cycles
 SCF Done:  E(RB3LYP) =  -990.508587688     A.U. after   10 cycles
 SCF Done:  E(RB3LYP) =  -990.508588416     A.U. after   10 cycles
 SCF Done:  E(RB3LYP) =  -990.508587385     A.U. after    9 cycles
 SCF Done:  E(RB3LYP) =  -990.508586547     A.U. after    9 cycles
 SCF Done:  E(RB3LYP) =  -990.508586459     A.U. after    9 cycles
 SCF Done:  E(RB3LYP) =  -990.508586384     A.U. after    7 cycles
 Optimization completed.
    -- Stationary point found.

                         Standard orientation:
 ---------------------------------------------------------------------
 Center     Atomic      Atomic             Coordinates (Angstroms)
 Number     Number       Type             X           Y           Z
 ---------------------------------------------------------------------
      1          1           0       -7.356882   -0.805072   -1.514087
      2          6           0       -6.780975    0.059738   -1.169901
      3          1           0       -7.464853    0.702678   -0.607121
      4          1           0       -6.408792    0.608669   -2.040349
      5          6           0       -5.681189   -0.422675   -0.234924
      6          8           0       -5.928039   -1.044415    0.795222
      7          7           0       -4.409816   -0.124939   -0.621935
      8          1           0       -4.210355    0.458522   -1.426366
      9          6           0       -3.259115   -0.451989    0.196518
     10          1           0       -3.511763   -0.247494    1.245066
     11          6           0       -2.863497   -1.936699    0.074096
     12          1           0       -2.587405   -2.175279   -0.958408
     13          1           0       -2.017224   -2.179206    0.726310
     14          1           0       -3.717505   -2.551875    0.367569
     15          6           0       -2.116719    0.474892   -0.251383
     16          8           0       -2.175125    1.111564   -1.303088
     17          7           0       -1.038185    0.503816    0.571491
     18          1           0       -1.064596    0.043808    1.473611
     19          6           0        0.134209    1.336725    0.313801
     20          1           0        0.226734    1.416547   -0.772818
     21          6           0       -0.001768    2.737835    0.925209
     22          1           0       -0.086440    2.666563    2.013655
     23          1           0        0.874658    3.350971    0.685187
     24          1           0       -0.891042    3.230592    0.522209
     25          6           0        1.327578    0.589258    0.924288
     26          8           0        1.330432    0.296083    2.120889
     27          7           0        2.318360    0.243032    0.071382
     28          1           0        2.324690    0.536176   -0.900520
     29          6           0        3.527003   -0.429118    0.514731
     30          1           0        3.837183    0.015445    1.468711
     31          6           0        3.298694   -1.938376    0.725389
     32          1           0        3.000298   -2.414882   -0.213962
     33          1           0        4.206045   -2.431355    1.091882
     34          1           0        2.506503   -2.077707    1.465031
     35          6           0        4.595606   -0.164806   -0.560897
     36          8           0        4.287483    0.246962   -1.676910
     37          7           0        5.870907   -0.444537   -0.186420
     38          1           0        6.036995   -0.758607    0.759385
     39          6           0        7.007841   -0.306597   -1.082619
     40          1           0        6.628336    0.051115   -2.040195
     41          1           0        7.731221    0.416741   -0.689938
     42          1           0        7.511314   -1.268643   -1.231235
 ---------------------------------------------------------------------

 The electronic state is 1-A.
 Alpha  occ. eigenvalues --  -19.13506 -19.12293 -19.12208 -19.09482 -14.38437
 Alpha  occ. eigenvalues --  -14.36927 -14.36760 -14.34552 -10.30676 -10.29459
 Alpha  occ. eigenvalues --  -10.29346 -10.27483 -10.25085 -10.24066 -10.23423
 Alpha  occ. eigenvalues --  -10.23284 -10.19697 -10.18485 -10.18174 -10.18016
 Alpha  occ. eigenvalues --   -1.05587  -1.04479  -1.03805  -1.01472  -0.94214
 Alpha  occ. eigenvalues --   -0.93369  -0.93091  -0.91060  -0.79785  -0.77897
 Alpha  occ. eigenvalues --   -0.75558  -0.72422  -0.71705  -0.67929  -0.66090
 Alpha  occ. eigenvalues --   -0.63493  -0.60909  -0.59415  -0.58949  -0.57057
 Alpha  occ. eigenvalues --   -0.56041  -0.52342  -0.49627  -0.48874  -0.48073
 Alpha  occ. eigenvalues --   -0.47245  -0.46892  -0.46247  -0.45452  -0.44886
 Alpha  occ. eigenvalues --   -0.44478  -0.43726  -0.43181  -0.42256  -0.41919
 Alpha  occ. eigenvalues --   -0.41000  -0.40939  -0.40708  -0.39669  -0.38869
 Alpha  occ. eigenvalues --   -0.38567  -0.38411  -0.37963  -0.37580  -0.37329
 Alpha  occ. eigenvalues --   -0.36445  -0.36195  -0.35722  -0.33477  -0.27910
 Alpha  occ. eigenvalues --   -0.27627  -0.27109  -0.26271  -0.26106  -0.25366
 Alpha  occ. eigenvalues --   -0.23987  -0.23476
 Alpha virt. eigenvalues --    0.00372   0.01240   0.02603   0.04272   0.05470
 Alpha virt. eigenvalues --    0.08287   0.08870   0.10285   0.10786   0.12475
 Alpha virt. eigenvalues --    0.13005   0.13433   0.13679   0.14432   0.14769

 Mulliken atomic charges:
              1
     1  H    0.181215
     2  C   -0.533006
     3  H    0.181233
     4  H    0.147741
     5  C    0.596145
     6  O   -0.525039
     7  N   -0.605386
     8  H    0.346434
     9  C   -0.029293
    10  H    0.171682
    11  C   -0.444710
    12  H    0.154297
    13  H    0.140309
    14  H    0.190144
    15  C    0.613042
    16  O   -0.539576
    17  N   -0.614527
    18  H    0.345188
    19  C   -0.025877
    20  H    0.172925
    21  C   -0.447871
    22  H    0.168318
    23  H    0.150954
    24  H    0.172167
    25  C    0.609817
    26  O   -0.548247
    27  N   -0.613201
    28  H    0.357636
    29  C   -0.038043
    30  H    0.172573
    31  C   -0.444233
    32  H    0.163805
    33  H    0.138488
    34  H    0.189930
    35  C    0.606802
    36  O   -0.527108
    37  N   -0.592658
    38  H    0.332719
    39  C   -0.314481
    40  H    0.209485
    41  H    0.165351
    42  H    0.164858
 Sum of Mulliken atomic charges =   0.00000

 Dipole moment (field-independent basis, Debye):
    X=              6.8201    Y=             -0.3333    Z=             -0.1934  Tot=              6.8310
 Quadrupole moment (field-independent basis, Debye-Ang):
   XX=            -98.8116   YY=           -117.6699   ZZ=           -128.9913
   XY=            -13.5604   XZ=             15.6768   YZ=              3.2534

 Normal termination of Gaussian 09 at Thu Dec 29 11:22:24 2016.
