 Gaussian 09, Revision A.02,
 Gaussian 09:  EM64L-G09RevA.02 11-Jun-2009

 ----------------------------------------------------------------------
 # b3lyp/6-31G* Opt=(ModRedundant, maxcycles=1000, calcfc) geom=nocrowd
 ----------------------------------------------------------------------

 ------------------
 Phi Psi fixed scan
 ------------------
 Symbolic Z-matrix:
 Charge =  0 Multiplicity = 1

 SCF Done:  E(RB3LYP) =  -990.491329536     A.U. after   14 cycles

  Exact polarizability:   0.000   0.000   0.000   0.000   0.000   0.000
 Approx polarizability: 243.295   1.126 239.538  -0.654  35.018 183.525

 SCF Done:  E(RB3LYP) =  -990.498425425     A.U. after   12 cycles
 SCF Done:  E(RB3LYP) =  -990.506273726     A.U. after   13 cycles
 SCF Done:  E(RB3LYP) =  -990.508414866     A.U. after   12 cycles
 SCF Done:  E(RB3LYP) =  -990.509984418     A.U. after   15 cycles
 SCF Done:  E(RB3LYP) =  -990.510334545     A.U. after   13 cycles
 SCF Done:  E(RB3LYP) =  -990.510692483     A.U. after   13 cycles
 SCF Done:  E(RB3LYP) =  -990.456282513     A.U. after   15 cycles
 SCF Done:  E(RB3LYP) =  -990.510739456     A.U. after   15 cycles
 SCF Done:  E(RB3LYP) =  -990.510819948     A.U. after   11 cycles
 SCF Done:  E(RB3LYP) =  -990.510887288     A.U. after    9 cycles
 SCF Done:  E(RB3LYP) =  -990.510892529     A.U. after    9 cycles
 SCF Done:  E(RB3LYP) =  -990.510895049     A.U. after    9 cycles
 SCF Done:  E(RB3LYP) =  -990.510896131     A.U. after    9 cycles
 SCF Done:  E(RB3LYP) =  -990.510897002     A.U. after    9 cycles
 SCF Done:  E(RB3LYP) =  -990.510897491     A.U. after    7 cycles
 SCF Done:  E(RB3LYP) =  -990.510897924     A.U. after    7 cycles
 SCF Done:  E(RB3LYP) =  -990.510898197     A.U. after    7 cycles
 SCF Done:  E(RB3LYP) =  -990.510898391     A.U. after    7 cycles
 SCF Done:  E(RB3LYP) =  -990.510898447     A.U. after    7 cycles
 Optimization completed.
    -- Stationary point found.

                         Standard orientation:
 ---------------------------------------------------------------------
 Center     Atomic      Atomic             Coordinates (Angstroms)
 Number     Number       Type             X           Y           Z
 ---------------------------------------------------------------------
      1          1           0       -7.836712   -0.145579    0.602305
      2          6           0       -7.060436   -0.791566    0.180876
      3          1           0       -7.494306   -1.297401   -0.687608
      4          1           0       -6.777316   -1.541698    0.925710
      5          6           0       -5.899425    0.075685   -0.285412
      6          8           0       -6.051855    0.987068   -1.094693
      7          7           0       -4.687823   -0.226692    0.257098
      8          1           0       -4.550387   -1.027222    0.863382
      9          6           0       -3.471108    0.454289   -0.140197
     10          1           0       -3.491624    0.597239   -1.227783
     11          6           0       -3.335425    1.836257    0.529944
     12          1           0       -3.298073    1.731080    1.619450
     13          1           0       -2.429395    2.355981    0.198412
     14          1           0       -4.202834    2.443091    0.259241
     15          6           0       -2.300154   -0.466650    0.237410
     16          8           0       -2.446246   -1.416664    1.007975
     17          7           0       -1.109853   -0.155258   -0.332574
     18          1           0       -0.983423    0.730649   -0.814283
     19          6           0        0.133210   -0.769082    0.104992
     20          1           0        0.063548   -0.962325    1.183710
     21          6           0        0.388875   -2.106787   -0.611996
     22          1           0        0.482814   -1.955622   -1.692321
     23          1           0        1.298893   -2.595834   -0.247887
     24          1           0       -0.455373   -2.773910   -0.420489
     25          6           0        1.244342    0.270254   -0.142614
     26          8           0        0.996176    1.370263   -0.641511
     27          7           0        2.493657   -0.111502    0.202570
     28          1           0        2.700982   -1.033404    0.572793
     29          6           0        3.657596    0.729025   -0.015004
     30          1           0        3.568527    1.189332   -1.006778
     31          6           0        3.772307    1.845622    1.040902
     32          1           0        3.879305    1.414911    2.041694
     33          1           0        4.637434    2.489000    0.845690
     34          1           0        2.869613    2.460704    1.010530
     35          6           0        4.879343   -0.206117    0.025666
     36          8           0        4.804180   -1.327096    0.524138
     37          7           0        6.020804    0.313169   -0.494635
     38          1           0        5.984414    1.232738   -0.911592
     39          6           0        7.287817   -0.400879   -0.496792
     40          1           0        7.123419   -1.362237   -0.009242
     41          1           0        7.639728   -0.573117   -1.520154
     42          1           0        8.053578    0.156724    0.054083
 ---------------------------------------------------------------------

 The electronic state is 1-A.
 Alpha  occ. eigenvalues --  -19.13690 -19.13011 -19.11998 -19.09213 -14.38628
 Alpha  occ. eigenvalues --  -14.37049 -14.35825 -14.34272 -10.30855 -10.30047
 Alpha  occ. eigenvalues --  -10.28866 -10.27224 -10.25322 -10.24239 -10.23573
 Alpha  occ. eigenvalues --  -10.22864 -10.19820 -10.18864 -10.17974 -10.17683
 Alpha  occ. eigenvalues --   -1.05826  -1.04843  -1.03704  -1.01191  -0.94406
 Alpha  occ. eigenvalues --   -0.93748  -0.92593  -0.90763  -0.80061  -0.77710
 Alpha  occ. eigenvalues --   -0.75342  -0.72571  -0.71461  -0.67835  -0.66283
 Alpha  occ. eigenvalues --   -0.63529  -0.61129  -0.59487  -0.58234  -0.56730
 Alpha  occ. eigenvalues --   -0.56117  -0.52345  -0.49774  -0.48684  -0.48433
 Alpha  occ. eigenvalues --   -0.47418  -0.47201  -0.46274  -0.45079  -0.44574
 Alpha  occ. eigenvalues --   -0.44019  -0.43854  -0.43355  -0.42351  -0.41875
 Alpha  occ. eigenvalues --   -0.41089  -0.40908  -0.40537  -0.39717  -0.39269
 Alpha  occ. eigenvalues --   -0.38881  -0.38240  -0.38168  -0.37519  -0.37318
 Alpha  occ. eigenvalues --   -0.36635  -0.36055  -0.35114  -0.33184  -0.28092
 Alpha  occ. eigenvalues --   -0.27821  -0.26901  -0.26785  -0.25899  -0.25659
 Alpha  occ. eigenvalues --   -0.23771  -0.23210
 Alpha virt. eigenvalues --    0.00336   0.01481   0.02294   0.04453   0.05319
 Alpha virt. eigenvalues --    0.08312   0.09759   0.10428   0.10681   0.12379
 Alpha virt. eigenvalues --    0.12826   0.13115   0.14098   0.14343   0.14545

 Mulliken atomic charges:
              1
     1  H    0.180557
     2  C   -0.532990
     3  H    0.180362
     4  H    0.147063
     5  C    0.596439
     6  O   -0.525548
     7  N   -0.605564
     8  H    0.345343
     9  C   -0.027564
    10  H    0.175234
    11  C   -0.452447
    12  H    0.152834
    13  H    0.147546
    14  H    0.189792
    15  C    0.603320
    16  O   -0.542527
    17  N   -0.613243
    18  H    0.356996
    19  C   -0.042496
    20  H    0.183230
    21  C   -0.449010
    22  H    0.157454
    23  H    0.148517
    24  H    0.187475
    25  C    0.616697
    26  O   -0.545855
    27  N   -0.623383
    28  H    0.359393
    29  C   -0.033387
    30  H    0.171363
    31  C   -0.445365
    32  H    0.163319
    33  H    0.139722
    34  H    0.191433
    35  C    0.607629
    36  O   -0.528934
    37  N   -0.592711
    38  H    0.333161
    39  C   -0.314871
    40  H    0.209438
    41  H    0.166286
    42  H    0.165291
 Sum of Mulliken atomic charges =   0.00000

 Dipole moment (field-independent basis, Debye):
    X=              7.4882    Y=              0.3699    Z=              0.1790  Tot=              7.4995
 Quadrupole moment (field-independent basis, Debye-Ang):
   XX=           -100.7254   YY=           -123.6301   ZZ=           -121.2303
   XY=             20.2731   XZ=            -16.5570   YZ=              5.5961

 Normal termination of Gaussian 09 at Thu Dec 29 12:31:22 2016.
