 Gaussian 09, Revision A.02,
 Gaussian 09:  EM64L-G09RevA.02 11-Jun-2009

 ----------------------------------------------------------------------
 # b3lyp/6-31G* Opt=(ModRedundant, maxcycles=1000, calcfc) geom=nocrowd
 ----------------------------------------------------------------------

 ------------------
 Phi Psi fixed scan
 ------------------
 Symbolic Z-matrix:
 Charge =  0 Multiplicity = 1

 SCF Done:  E(RB3LYP) =  -990.483885686     A.U. after   14 cycles

  Exact polarizability:   0.000   0.000   0.000   0.000   0.000   0.000
 Approx polarizability: 240.354 -13.816 236.894  15.985  15.605 190.549

 SCF Done:  E(RB3LYP) =  -990.490869939     A.U. after   12 cycles
 SCF Done:  E(RB3LYP) =  -990.498453240     A.U. after   13 cycles
 SCF Done:  E(RB3LYP) =  -990.500178027     A.U. after   12 cycles
 SCF Done:  E(RB3LYP) =  -990.501429273     A.U. after   16 cycles
 SCF Done:  E(RB3LYP) =  -990.501703594     A.U. after   13 cycles
 SCF Done:  E(RB3LYP) =  -990.502023026     A.U. after   14 cycles
 SCF Done:  E(RB3LYP) =  -990.493851557     A.U. after   14 cycles
 SCF Done:  E(RB3LYP) =  -990.502081118     A.U. after   13 cycles
 SCF Done:  E(RB3LYP) =  -990.502153430     A.U. after   11 cycles
 SCF Done:  E(RB3LYP) =  -990.502214928     A.U. after   10 cycles
 SCF Done:  E(RB3LYP) =  -990.502218092     A.U. after    9 cycles
 SCF Done:  E(RB3LYP) =  -990.502219897     A.U. after    9 cycles
 SCF Done:  E(RB3LYP) =  -990.502220700     A.U. after    9 cycles
 SCF Done:  E(RB3LYP) =  -990.502222509     A.U. after    9 cycles
 SCF Done:  E(RB3LYP) =  -990.502223853     A.U. after    9 cycles
 SCF Done:  E(RB3LYP) =  -990.502224564     A.U. after    8 cycles
 SCF Done:  E(RB3LYP) =  -990.502224699     A.U. after    7 cycles
 SCF Done:  E(RB3LYP) =  -990.502224749     A.U. after    7 cycles
 SCF Done:  E(RB3LYP) =  -990.502224748     A.U. after    6 cycles
 Optimization completed.
    -- Stationary point found.

                         Standard orientation:
 ---------------------------------------------------------------------
 Center     Atomic      Atomic             Coordinates (Angstroms)
 Number     Number       Type             X           Y           Z
 ---------------------------------------------------------------------
      1          1           0       -7.149439    1.316086    0.140488
      2          6           0       -6.468377    0.850428   -0.578821
      3          1           0       -6.718337    1.247558   -1.567463
      4          1           0       -6.632898   -0.231418   -0.575367
      5          6           0       -5.041425    1.252934   -0.236274
      6          8           0       -4.681788    2.427183   -0.216704
      7          7           0       -4.194780    0.225757    0.053065
      8          1           0       -4.471301   -0.745771   -0.028563
      9          6           0       -2.790696    0.443719    0.337986
     10          1           0       -2.416339    1.214956   -0.347251
     11          6           0       -2.561725    0.924839    1.784989
     12          1           0       -2.912190    0.172183    2.498770
     13          1           0       -1.501008    1.120852    1.979747
     14          1           0       -3.119678    1.851762    1.938188
     15          6           0       -2.069120   -0.886784    0.071073
     16          8           0       -2.681063   -1.949754   -0.012409
     17          7           0       -0.717094   -0.803417   -0.047296
     18          1           0       -0.269737    0.095508    0.072112
     19          6           0        0.129076   -2.000591   -0.147969
     20          1           0       -0.317818   -2.770616    0.484033
     21          6           0        0.214457   -2.523269   -1.590583
     22          1           0        0.628122   -1.770623   -2.270977
     23          1           0        0.846636   -3.416900   -1.635403
     24          1           0       -0.788338   -2.787940   -1.936229
     25          6           0        1.507553   -1.704228    0.463793
     26          8           0        1.945999   -2.332067    1.420743
     27          7           0        2.195545   -0.688200   -0.129723
     28          1           0        1.867273   -0.214071   -0.965211
     29          6           0        3.498494   -0.248153    0.335512
     30          1           0        3.467389   -0.190867    1.430363
     31          6           0        4.624006   -1.217343   -0.076114
     32          1           0        4.689726   -1.285190   -1.166972
     33          1           0        5.594520   -0.885202    0.309352
     34          1           0        4.407647   -2.206936    0.333299
     35          6           0        3.721284    1.151132   -0.264238
     36          8           0        3.070199    1.535782   -1.233847
     37          7           0        4.691646    1.889128    0.332980
     38          1           0        5.159237    1.503826    1.141569
     39          6           0        5.081056    3.211604   -0.130473
     40          1           0        4.472572    3.444921   -1.004674
     41          1           0        4.902504    3.966954    0.643028
     42          1           0        6.139964    3.233164   -0.411575
 ---------------------------------------------------------------------

 The electronic state is 1-A.
 Alpha  occ. eigenvalues --  -19.13652 -19.12609 -19.12114 -19.09690 -14.38597
 Alpha  occ. eigenvalues --  -14.37317 -14.36865 -14.34807 -10.30800 -10.29605
 Alpha  occ. eigenvalues --  -10.29498 -10.27696 -10.25187 -10.24007 -10.23559
 Alpha  occ. eigenvalues --  -10.23525 -10.19662 -10.18870 -10.18337 -10.18335
 Alpha  occ. eigenvalues --   -1.05696  -1.04648  -1.03886  -1.01694  -0.94367
 Alpha  occ. eigenvalues --   -0.94041  -0.92707  -0.91305  -0.79958  -0.77885
 Alpha  occ. eigenvalues --   -0.75801  -0.72522  -0.71924  -0.67897  -0.66243
 Alpha  occ. eigenvalues --   -0.63898  -0.60957  -0.59751  -0.59043  -0.57348
 Alpha  occ. eigenvalues --   -0.56157  -0.52931  -0.49623  -0.48949  -0.48185
 Alpha  occ. eigenvalues --   -0.47597  -0.47217  -0.46092  -0.45297  -0.44715
 Alpha  occ. eigenvalues --   -0.44637  -0.43851  -0.43345  -0.42386  -0.41837
 Alpha  occ. eigenvalues --   -0.41298  -0.41029  -0.40470  -0.40348  -0.39484
 Alpha  occ. eigenvalues --   -0.38629  -0.38434  -0.38120  -0.37841  -0.37606
 Alpha  occ. eigenvalues --   -0.36707  -0.36211  -0.35746  -0.33702  -0.28061
 Alpha  occ. eigenvalues --   -0.27736  -0.27440  -0.26655  -0.26095  -0.25101
 Alpha  occ. eigenvalues --   -0.24119  -0.23692
 Alpha virt. eigenvalues --    0.00218   0.01030   0.02394   0.04067   0.05334
 Alpha virt. eigenvalues --    0.06661   0.09134   0.09986   0.10739   0.12351
 Alpha virt. eigenvalues --    0.12897   0.13125   0.13584   0.14299   0.14544

 Mulliken atomic charges:
              1
     1  H    0.181839
     2  C   -0.533107
     3  H    0.181894
     4  H    0.148305
     5  C    0.596930
     6  O   -0.525003
     7  N   -0.605237
     8  H    0.346631
     9  C   -0.031564
    10  H    0.172550
    11  C   -0.445602
    12  H    0.159333
    13  H    0.135596
    14  H    0.190980
    15  C    0.616840
    16  O   -0.533850
    17  N   -0.629104
    18  H    0.336546
    19  C   -0.022830
    20  H    0.196628
    21  C   -0.453469
    22  H    0.144429
    23  H    0.161454
    24  H    0.185389
    25  C    0.583162
    26  O   -0.518436
    27  N   -0.618298
    28  H    0.350573
    29  C   -0.034211
    30  H    0.170111
    31  C   -0.446146
    32  H    0.160885
    33  H    0.139380
    34  H    0.194012
    35  C    0.606922
    36  O   -0.531191
    37  N   -0.592089
    38  H    0.333411
    39  C   -0.315174
    40  H    0.209538
    41  H    0.166634
    42  H    0.165340
 Sum of Mulliken atomic charges =   0.00000

 Dipole moment (field-independent basis, Debye):
    X=              5.4234    Y=              1.0621    Z=              0.2821  Tot=              5.5337
 Quadrupole moment (field-independent basis, Debye-Ang):
   XX=            -94.2603   YY=           -132.6987   ZZ=           -121.2626
   XY=             19.6504   XZ=              4.4777   YZ=             11.1519

 Normal termination of Gaussian 09 at Thu Dec 29 13:36:37 2016.
