 Gaussian 09, Revision A.02,
 Gaussian 09:  EM64L-G09RevA.02 11-Jun-2009

 -------------------------------------------------------------------
 # HF/6-31G* Opt=(ModRedundant, maxcycles=1000, calcfc) geom=nocrowd
 -------------------------------------------------------------------

 ------------------
 Phi Psi fixed scan
 ------------------
 Symbolic Z-matrix:
 Charge =  0 Multiplicity = 1

 SCF Done:  E(RHF) =  -984.535056707     A.U. after   15 cycles

  Exact polarizability:   0.000   0.000   0.000   0.000   0.000   0.000
 Approx polarizability: 133.958 -10.419 128.499   0.588  -7.196 126.744

 SCF Done:  E(RHF) =  -984.543916240     A.U. after   13 cycles
 SCF Done:  E(RHF) =  -984.553390275     A.U. after   13 cycles
 SCF Done:  E(RHF) =  -984.555779116     A.U. after   13 cycles
 SCF Done:  E(RHF) =  -984.558444606     A.U. after   13 cycles
 SCF Done:  E(RHF) =  -984.559501754     A.U. after   13 cycles
 SCF Done:  E(RHF) =  -984.396770070     A.U. after   16 cycles
 SCF Done:  E(RHF) =  -984.559895763     A.U. after   15 cycles
 SCF Done:  E(RHF) =  -984.547456171     A.U. after   14 cycles
 SCF Done:  E(RHF) =  -984.560194167     A.U. after   14 cycles
 SCF Done:  E(RHF) =  -984.560348613     A.U. after   10 cycles
 SCF Done:  E(RHF) =  -984.560352393     A.U. after   11 cycles
 SCF Done:  E(RHF) =  -984.560355780     A.U. after   10 cycles
 SCF Done:  E(RHF) =  -984.560358334     A.U. after   11 cycles
 SCF Done:  E(RHF) =  -984.560360776     A.U. after   10 cycles
 SCF Done:  E(RHF) =  -984.560364327     A.U. after   10 cycles
 SCF Done:  E(RHF) =  -984.560365009     A.U. after    9 cycles
 SCF Done:  E(RHF) =  -984.560365642     A.U. after   10 cycles
 SCF Done:  E(RHF) =  -984.560365698     A.U. after    8 cycles
 SCF Done:  E(RHF) =  -984.560365716     A.U. after    8 cycles
 Optimization completed.
    -- Stationary point found.

                         Standard orientation:
 ---------------------------------------------------------------------
 Center     Atomic      Atomic             Coordinates (Angstroms)
 Number     Number       Type             X           Y           Z
 ---------------------------------------------------------------------
      1          1           0       -5.959779   -2.817760   -1.234412
      2          6           0       -5.212181   -2.723144   -0.458309
      3          1           0       -4.345513   -3.320716   -0.713658
      4          1           0       -5.639273   -3.104260    0.463117
      5          6           0       -4.891805   -1.256134   -0.270299
      6          8           0       -5.755431   -0.417909   -0.254704
      7          7           0       -3.587811   -0.957230   -0.101163
      8          1           0       -2.887381   -1.663298   -0.132506
      9          6           0       -3.129389    0.394771    0.102014
     10          1           0       -3.714269    1.048653   -0.532390
     11          6           0       -3.277752    0.845857    1.562193
     12          1           0       -2.686740    0.212776    2.214031
     13          1           0       -2.949549    1.871392    1.696519
     14          1           0       -4.318944    0.777867    1.848476
     15          6           0       -1.663941    0.450283   -0.311651
     16          8           0       -0.969893   -0.532432   -0.306919
     17          7           0       -1.211601    1.668026   -0.681598
     18          1           0       -1.842162    2.429456   -0.564823
     19          6           0        0.198380    2.027354   -0.753706
     20          1           0        0.557445    1.802224   -1.752505
     21          6           0        0.356223    3.522790   -0.496807
     22          1           0        0.044695    3.764179    0.511574
     23          1           0        1.392767    3.816116   -0.615406
     24          1           0       -0.235231    4.094438   -1.205346
     25          6           0        1.041190    1.245640    0.263340
     26          8           0        0.866264    1.395389    1.444473
     27          7           0        2.012541    0.480598   -0.255972
     28          1           0        2.020348    0.268164   -1.228620
     29          6           0        2.857522   -0.345667    0.573458
     30          1           0        3.146484    0.239143    1.436957
     31          6           0        2.149904   -1.624421    1.042422
     32          1           0        1.863333   -2.228794    0.189755
     33          1           0        2.798590   -2.212434    1.684270
     34          1           0        1.257767   -1.360514    1.592646
     35          6           0        4.087391   -0.704442   -0.253805
     36          8           0        4.034273   -0.780835   -1.453935
     37          7           0        5.203425   -0.977452    0.445810
     38          1           0        5.212155   -0.811421    1.425037
     39          6           0        6.435817   -1.366307   -0.207731
     40          1           0        6.879769   -0.537073   -0.746299
     41          1           0        7.132333   -1.711661    0.544289
     42          1           0        6.247424   -2.167262   -0.908280
 ---------------------------------------------------------------------

 The electronic state is 1-A.
 Alpha  occ. eigenvalues --  -20.54095 -20.53196 -20.52214 -20.51407 -15.60006
 Alpha  occ. eigenvalues --  -15.59520 -15.58126 -15.57871 -11.35948 -11.35172
 Alpha  occ. eigenvalues --  -11.34753 -11.34289 -11.29000 -11.28081 -11.27929
 Alpha  occ. eigenvalues --  -11.26464 -11.23682 -11.22749 -11.22101 -11.21680
 Alpha  occ. eigenvalues --   -1.41239  -1.40208  -1.38931  -1.38299  -1.25358
 Alpha  occ. eigenvalues --   -1.24259  -1.23882  -1.23468  -1.07518  -1.04794
 Alpha  occ. eigenvalues --   -1.02986  -0.98619  -0.96321  -0.91766  -0.89676
 Alpha  occ. eigenvalues --   -0.86460  -0.81903  -0.79928  -0.78712  -0.78533
 Alpha  occ. eigenvalues --   -0.73789  -0.72245  -0.69512  -0.67842  -0.66706
 Alpha  occ. eigenvalues --   -0.65841  -0.64796  -0.64143  -0.63214  -0.62761
 Alpha  occ. eigenvalues --   -0.61521  -0.60930  -0.60017  -0.59252  -0.58920
 Alpha  occ. eigenvalues --   -0.57882  -0.56773  -0.56232  -0.56151  -0.55862
 Alpha  occ. eigenvalues --   -0.54725  -0.54252  -0.54080  -0.52965  -0.52533
 Alpha  occ. eigenvalues --   -0.52325  -0.51928  -0.50194  -0.49281  -0.43394
 Alpha  occ. eigenvalues --   -0.43131  -0.42611  -0.41216  -0.40144  -0.39939
 Alpha  occ. eigenvalues --   -0.38300  -0.38222
 Alpha virt. eigenvalues --    0.18204   0.18934   0.20022   0.21228   0.21288
 Alpha virt. eigenvalues --    0.21672   0.24008   0.24641   0.26280   0.27016
 Alpha virt. eigenvalues --    0.27945   0.29049   0.29270   0.29946   0.30390

 Mulliken atomic charges:
              1
     1  H    0.208021
     2  C   -0.575876
     3  H    0.173054
     4  H    0.202478
     5  C    0.756991
     6  O   -0.622572
     7  N   -0.822610
     8  H    0.417475
     9  C   -0.043196
    10  H    0.219597
    11  C   -0.485556
    12  H    0.186516
    13  H    0.161012
    14  H    0.208852
    15  C    0.802891
    16  O   -0.637850
    17  N   -0.822177
    18  H    0.393233
    19  C    0.006941
    20  H    0.196676
    21  C   -0.527118
    22  H    0.206227
    23  H    0.191009
    24  H    0.174430
    25  C    0.809171
    26  O   -0.642845
    27  N   -0.817998
    28  H    0.419885
    29  C   -0.046835
    30  H    0.209280
    31  C   -0.481297
    32  H    0.186511
    33  H    0.152790
    34  H    0.218084
    35  C    0.782398
    36  O   -0.631133
    37  N   -0.800701
    38  H    0.389457
    39  C   -0.271680
    40  H    0.183725
    41  H    0.170622
    42  H    0.202119
 Sum of Mulliken atomic charges =   0.00000

 Dipole moment (field-independent basis, Debye):
    X=              4.0941    Y=              0.1930    Z=              0.9364  Tot=              4.2042
 Quadrupole moment (field-independent basis, Debye-Ang):
   XX=           -122.7935   YY=           -105.9136   ZZ=           -124.5447
   XY=              1.1184   XZ=             10.9202   YZ=             -7.9082

 Normal termination of Gaussian 09 at Tue Dec 27 11:21:04 2016.
