 Gaussian 09, Revision A.02,
 Gaussian 09:  EM64L-G09RevA.02 11-Jun-2009

 -------------------------------------------------------------------
 # HF/6-31G* Opt=(ModRedundant, maxcycles=1000, calcfc) geom=nocrowd
 -------------------------------------------------------------------

 ------------------
 Phi Psi fixed scan
 ------------------
 Symbolic Z-matrix:
 Charge =  0 Multiplicity = 1

 SCF Done:  E(RHF) =  -984.441257423     A.U. after   16 cycles

  Exact polarizability:   0.000   0.000   0.000   0.000   0.000   0.000
 Approx polarizability: 138.658  -2.904 142.760  -4.021  -7.099 110.979

 SCF Done:  E(RHF) =  -984.481344195     A.U. after   14 cycles
 SCF Done:  E(RHF) =  -984.510302701     A.U. after   15 cycles
 SCF Done:  E(RHF) =  -984.520611871     A.U. after   14 cycles
 SCF Done:  E(RHF) =  -984.525495836     A.U. after   15 cycles
 SCF Done:  E(RHF) =  -984.526644380     A.U. after   16 cycles
 SCF Done:  E(RHF) =  -984.526239094     A.U. after   16 cycles
 SCF Done:  E(RHF) =  -984.527965956     A.U. after   15 cycles
 SCF Done:  E(RHF) =  -984.527744177     A.U. after   14 cycles
 SCF Done:  E(RHF) =  -984.405083685     A.U. after   16 cycles
 SCF Done:  E(RHF) =  -984.549335251     A.U. after   10 cycles
 SCF Done:  E(RHF) =  -984.549335434     A.U. after    8 cycles
 SCF Done:  E(RHF) =  -984.549335660     A.U. after    8 cycles
 SCF Done:  E(RHF) =  -984.549335928     A.U. after    8 cycles
 SCF Done:  E(RHF) =  -984.549336138     A.U. after    9 cycles
 SCF Done:  E(RHF) =  -984.549336279     A.U. after    7 cycles
 SCF Done:  E(RHF) =  -984.549336309     A.U. after    7 cycles
 SCF Done:  E(RHF) =  -984.549336357     A.U. after    7 cycles
 SCF Done:  E(RHF) =  -984.549336333     A.U. after    6 cycles
 SCF Done:  E(RHF) =  -984.549336364     A.U. after    5 cycles
 Optimization completed.
    -- Stationary point found.

                         Standard orientation:
 ---------------------------------------------------------------------
 Center     Atomic      Atomic             Coordinates (Angstroms)
 Number     Number       Type             X           Y           Z
 ---------------------------------------------------------------------
      1          1           0       -6.617570   -2.308770    0.328888
      2          6           0       -6.300040   -1.617616   -0.443875
      3          1           0       -7.186345   -1.148302   -0.850934
      4          1           0       -5.793811   -2.172367   -1.224330
      5          6           0       -5.436092   -0.549532    0.191754
      6          8           0       -5.899056    0.263955    0.949731
      7          7           0       -4.128837   -0.582327   -0.130164
      8          1           0       -3.776932   -1.230304   -0.798490
      9          6           0       -3.185807    0.383507    0.376466
     10          1           0       -3.667666    1.354531    0.388257
     11          6           0       -2.718070    0.042036    1.798038
     12          1           0       -2.206940   -0.912188    1.807940
     13          1           0       -2.036980    0.793446    2.184340
     14          1           0       -3.581544   -0.002393    2.448344
     15          6           0       -2.005407    0.422624   -0.588435
     16          8           0       -1.813368   -0.446053   -1.387515
     17          7           0       -1.251523    1.571335   -0.535204
     18          1           0       -1.546243    2.181391    0.196705
     19          6           0        0.195232    1.599617   -0.701876
     20          1           0        0.417017    1.710184   -1.759299
     21          6           0        0.732392    2.830545    0.036483
     22          1           0        0.602164    2.722064    1.108866
     23          1           0        1.783960    2.988725   -0.158528
     24          1           0        0.195029    3.713274   -0.291719
     25          6           0        0.904108    0.319822   -0.231362
     26          8           0        0.349374   -0.556129    0.372707
     27          7           0        2.245192    0.347638   -0.386545
     28          1           0        2.685820    1.033247   -0.959373
     29          6           0        3.082952   -0.763599    0.001089
     30          1           0        2.773606   -1.086741    0.986654
     31          6           0        2.984615   -1.947613   -0.970753
     32          1           0        3.306996   -1.648171   -1.962101
     33          1           0        3.606164   -2.774577   -0.643022
     34          1           0        1.958831   -2.287257   -1.021946
     35          6           0        4.515767   -0.241134    0.047573
     36          8           0        4.860666    0.696220   -0.625462
     37          7           0        5.361130   -0.921213    0.840296
     38          1           0        4.999923   -1.627771    1.437895
     39          6           0        6.758206   -0.555509    0.956573
     40          1           0        7.196462   -0.448910   -0.025349
     41          1           0        6.881220    0.379144    1.491113
     42          1           0        7.277043   -1.339112    1.491672
 ---------------------------------------------------------------------

 The electronic state is 1-A.
 Alpha  occ. eigenvalues --  -20.54052 -20.53354 -20.53039 -20.50734 -15.60244
 Alpha  occ. eigenvalues --  -15.58906 -15.58844 -15.57110 -11.36024 -11.35549
 Alpha  occ. eigenvalues --  -11.34957 -11.33646 -11.29370 -11.28861 -11.27259
 Alpha  occ. eigenvalues --  -11.27026 -11.24554 -11.22800 -11.22222 -11.21267
 Alpha  occ. eigenvalues --   -1.41244  -1.40662  -1.39405  -1.37604  -1.25006
 Alpha  occ. eigenvalues --   -1.24807  -1.24321  -1.22744  -1.07744  -1.04837
 Alpha  occ. eigenvalues --   -1.02654  -0.97985  -0.97011  -0.92047  -0.89687
 Alpha  occ. eigenvalues --   -0.86946  -0.81537  -0.79879  -0.79519  -0.77642
 Alpha  occ. eigenvalues --   -0.74114  -0.71472  -0.69178  -0.68029  -0.67040
 Alpha  occ. eigenvalues --   -0.65169  -0.64894  -0.64586  -0.63357  -0.62681
 Alpha  occ. eigenvalues --   -0.61513  -0.61024  -0.60527  -0.59910  -0.58195
 Alpha  occ. eigenvalues --   -0.57170  -0.56848  -0.56760  -0.56510  -0.56021
 Alpha  occ. eigenvalues --   -0.55511  -0.54959  -0.53740  -0.53734  -0.53051
 Alpha  occ. eigenvalues --   -0.51897  -0.51589  -0.50034  -0.48500  -0.44491
 Alpha  occ. eigenvalues --   -0.43356  -0.42172  -0.40927  -0.40567  -0.39684
 Alpha  occ. eigenvalues --   -0.38667  -0.37723
 Alpha virt. eigenvalues --    0.17949   0.19262   0.19683   0.20547   0.20700
 Alpha virt. eigenvalues --    0.21952   0.23727   0.24778   0.25687   0.27177
 Alpha virt. eigenvalues --    0.27678   0.28717   0.29178   0.29434   0.29760

 Mulliken atomic charges:
              1
     1  H    0.201596
     2  C   -0.573979
     3  H    0.204710
     4  H    0.172211
     5  C    0.757422
     6  O   -0.626579
     7  N   -0.822011
     8  H    0.419954
     9  C   -0.058467
    10  H    0.215822
    11  C   -0.478665
    12  H    0.196960
    13  H    0.145966
    14  H    0.204449
    15  C    0.819284
    16  O   -0.609939
    17  N   -0.812061
    18  H    0.380745
    19  C   -0.018819
    20  H    0.210326
    21  C   -0.523644
    22  H    0.181889
    23  H    0.196001
    24  H    0.191752
    25  C    0.789635
    26  O   -0.621127
    27  N   -0.836788
    28  H    0.418386
    29  C   -0.032384
    30  H    0.211894
    31  C   -0.493275
    32  H    0.179963
    33  H    0.161299
    34  H    0.220071
    35  C    0.781650
    36  O   -0.633752
    37  N   -0.800169
    38  H    0.391002
    39  C   -0.272960
    40  H    0.203136
    41  H    0.185366
    42  H    0.173133
 Sum of Mulliken atomic charges =   0.00000

 Dipole moment (field-independent basis, Debye):
    X=              5.6007    Y=             -0.8159    Z=              1.3085  Tot=              5.8091
 Quadrupole moment (field-independent basis, Debye-Ang):
   XX=           -125.1036   YY=           -110.0753   ZZ=           -121.8964
   XY=             -3.7165   XZ=             19.5581   YZ=             -1.8521

 Normal termination of Gaussian 09 at Tue Dec 27 15:27:24 2016.
