 Gaussian 09, Revision A.02,
 Gaussian 09:  EM64L-G09RevA.02 11-Jun-2009

 -------------------------------------------------------------------
 # HF/6-31G* Opt=(ModRedundant, maxcycles=1000, calcfc) geom=nocrowd
 -------------------------------------------------------------------

 ------------------
 Phi Psi fixed scan
 ------------------
 Symbolic Z-matrix:
 Charge =  0 Multiplicity = 1

 SCF Done:  E(RHF) =  -984.530409333     A.U. after   15 cycles

  Exact polarizability:   0.000   0.000   0.000   0.000   0.000   0.000
 Approx polarizability: 124.281  -1.891 125.440  13.736  -4.765 139.509

 SCF Done:  E(RHF) =  -984.540305996     A.U. after   13 cycles
 SCF Done:  E(RHF) =  -984.551147091     A.U. after   13 cycles
 SCF Done:  E(RHF) =  -984.554181505     A.U. after   14 cycles
 SCF Done:  E(RHF) =  -984.557116445     A.U. after   14 cycles
 SCF Done:  E(RHF) =  -984.557886908     A.U. after   14 cycles
 SCF Done:  E(RHF) =  -984.362397356     A.U. after   17 cycles
 SCF Done:  E(RHF) =  -984.558182291     A.U. after   16 cycles
 SCF Done:  E(RHF) =  -984.544737331     A.U. after   13 cycles
 SCF Done:  E(RHF) =  -984.558550071     A.U. after   13 cycles
 SCF Done:  E(RHF) =  -984.558698386     A.U. after    8 cycles
 SCF Done:  E(RHF) =  -984.558698577     A.U. after    9 cycles
 SCF Done:  E(RHF) =  -984.558698688     A.U. after    9 cycles
 SCF Done:  E(RHF) =  -984.558698720     A.U. after    8 cycles
 SCF Done:  E(RHF) =  -984.558698778     A.U. after    8 cycles
 SCF Done:  E(RHF) =  -984.558698849     A.U. after    8 cycles
 SCF Done:  E(RHF) =  -984.558698905     A.U. after    7 cycles
 SCF Done:  E(RHF) =  -984.558698973     A.U. after    8 cycles
 SCF Done:  E(RHF) =  -984.558699017     A.U. after    7 cycles
 SCF Done:  E(RHF) =  -984.558699014     A.U. after    6 cycles
 Optimization completed.
    -- Stationary point found.

                         Standard orientation:
 ---------------------------------------------------------------------
 Center     Atomic      Atomic             Coordinates (Angstroms)
 Number     Number       Type             X           Y           Z
 ---------------------------------------------------------------------
      1          1           0        5.943998    1.117446   -1.624706
      2          6           0        4.997991    1.534660   -1.306121
      3          1           0        4.359712    1.686509   -2.168026
      4          1           0        5.197645    2.495982   -0.845247
      5          6           0        4.390783    0.618837   -0.265587
      6          8           0        5.050697    0.151842    0.626216
      7          7           0        3.069415    0.381737   -0.390903
      8          1           0        2.549239    0.746141   -1.156842
      9          6           0        2.354555   -0.476180    0.521323
     10          1           0        2.994674   -1.314032    0.768641
     11          6           0        1.958552    0.250778    1.814783
     12          1           0        1.269513    1.060469    1.604374
     13          1           0        1.483326   -0.425815    2.518195
     14          1           0        2.849813    0.650554    2.279843
     15          6           0        1.110141   -0.978098   -0.205328
     16          8           0        0.654633   -0.393539   -1.152870
     17          7           0        0.552867   -2.091912    0.314975
     18          1           0        1.016981   -2.525301    1.081121
     19          6           0       -0.689257   -2.712498   -0.131937
     20          1           0       -0.477571   -3.377231   -0.959510
     21          6           0       -1.301112   -3.520154    1.011884
     22          1           0       -1.534516   -2.892893    1.864287
     23          1           0       -2.213077   -4.000197    0.678108
     24          1           0       -0.614764   -4.298065    1.332851
     25          6           0       -1.697046   -1.713253   -0.709363
     26          8           0       -2.175797   -1.893156   -1.792814
     27          7           0       -2.105535   -0.737992    0.134929
     28          1           0       -1.551810   -0.540900    0.940330
     29          6           0       -2.852304    0.395952   -0.359536
     30          1           0       -2.698792    0.459433   -1.429088
     31          6           0       -4.351753    0.251952   -0.075383
     32          1           0       -4.530636    0.188734    0.992418
     33          1           0       -4.914883    1.091146   -0.470402
     34          1           0       -4.713868   -0.655365   -0.542149
     35          6           0       -2.290475    1.650153    0.306860
     36          8           0       -1.650785    1.591524    1.326910
     37          7           0       -2.596103    2.813825   -0.293541
     38          1           0       -3.005593    2.790357   -1.198667
     39          6           0       -2.112361    4.081429    0.212979
     40          1           0       -2.302307    4.148235    1.274146
     41          1           0       -1.047648    4.200326    0.045742
     42          1           0       -2.640212    4.880014   -0.290619
 ---------------------------------------------------------------------

 The electronic state is 1-A.
 Alpha  occ. eigenvalues --  -20.54240 -20.53655 -20.52299 -20.51464 -15.60522
 Alpha  occ. eigenvalues --  -15.59634 -15.57917 -15.57532 -11.36270 -11.35480
 Alpha  occ. eigenvalues --  -11.34614 -11.34346 -11.28832 -11.28217 -11.27850
 Alpha  occ. eigenvalues --  -11.26571 -11.24189 -11.22818 -11.22458 -11.22037
 Alpha  occ. eigenvalues --   -1.41385  -1.40500  -1.39029  -1.38369  -1.25890
 Alpha  occ. eigenvalues --   -1.24436  -1.23610  -1.23277  -1.07734  -1.04805
 Alpha  occ. eigenvalues --   -1.03119  -0.98674  -0.96504  -0.91747  -0.89634
 Alpha  occ. eigenvalues --   -0.87103  -0.82262  -0.80204  -0.78668  -0.78277
 Alpha  occ. eigenvalues --   -0.73721  -0.72910  -0.69249  -0.67183  -0.66251
 Alpha  occ. eigenvalues --   -0.66030  -0.65411  -0.64427  -0.63108  -0.62900
 Alpha  occ. eigenvalues --   -0.62493  -0.61255  -0.59748  -0.59172  -0.58200
 Alpha  occ. eigenvalues --   -0.57763  -0.57080  -0.56859  -0.56267  -0.56236
 Alpha  occ. eigenvalues --   -0.55363  -0.54854  -0.54334  -0.53337  -0.52899
 Alpha  occ. eigenvalues --   -0.52532  -0.51981  -0.50064  -0.49373  -0.43241
 Alpha  occ. eigenvalues --   -0.43104  -0.42248  -0.41276  -0.40601  -0.40260
 Alpha  occ. eigenvalues --   -0.38521  -0.38299
 Alpha virt. eigenvalues --    0.18308   0.18832   0.19700   0.20694   0.21290
 Alpha virt. eigenvalues --    0.21379   0.23923   0.25350   0.25863   0.27004
 Alpha virt. eigenvalues --    0.28179   0.28620   0.28961   0.29709   0.30429

 Mulliken atomic charges:
              1
     1  H    0.207899
     2  C   -0.575358
     3  H    0.172707
     4  H    0.202360
     5  C    0.756594
     6  O   -0.622717
     7  N   -0.823258
     8  H    0.418719
     9  C   -0.035122
    10  H    0.216229
    11  C   -0.495667
    12  H    0.203998
    13  H    0.151979
    14  H    0.209526
    15  C    0.797261
    16  O   -0.631552
    17  N   -0.851965
    18  H    0.393821
    19  C   -0.007346
    20  H    0.226381
    21  C   -0.514823
    22  H    0.182471
    23  H    0.202135
    24  H    0.174152
    25  C    0.783630
    26  O   -0.616830
    27  N   -0.799880
    28  H    0.416399
    29  C   -0.050304
    30  H    0.226542
    31  C   -0.473517
    32  H    0.177023
    33  H    0.157683
    34  H    0.200087
    35  C    0.779592
    36  O   -0.639909
    37  N   -0.793638
    38  H    0.390426
    39  C   -0.273562
    40  H    0.203861
    41  H    0.181684
    42  H    0.172289
 Sum of Mulliken atomic charges =   0.00000

 Dipole moment (field-independent basis, Debye):
    X=             -2.5559    Y=              1.6272    Z=              0.3386  Tot=              3.0488
 Quadrupole moment (field-independent basis, Debye-Ang):
   XX=           -132.3511   YY=            -99.4426   ZZ=           -127.3859
   XY=             -6.7491   XZ=             -9.8365   YZ=            -16.9279

 Normal termination of Gaussian 09 at Tue Dec 27 12:22:02 2016.
