 Gaussian 09, Revision A.02,
 Gaussian 09:  EM64L-G09RevA.02 11-Jun-2009

 -------------------------------------------------------------------
 # HF/6-31G* Opt=(ModRedundant, maxcycles=1000, calcfc) geom=nocrowd
 -------------------------------------------------------------------

 ------------------
 Phi Psi fixed scan
 ------------------
 Symbolic Z-matrix:
 Charge =  0 Multiplicity = 1

 SCF Done:  E(RHF) =  -984.398915877     A.U. after   15 cycles

  Exact polarizability:   0.000   0.000   0.000   0.000   0.000   0.000
 Approx polarizability: 138.421  -5.659 136.895   9.082   1.768 118.421

 SCF Done:  E(RHF) =  -984.440816875     A.U. after   14 cycles
 SCF Done:  E(RHF) =  -984.491442370     A.U. after   15 cycles
 SCF Done:  E(RHF) =  -984.524698665     A.U. after   13 cycles
 SCF Done:  E(RHF) =  -984.519255562     A.U. after   15 cycles
 SCF Done:  E(RHF) =  -984.529399653     A.U. after   15 cycles
 SCF Done:  E(RHF) =  -984.532933634     A.U. after   13 cycles
 SCF Done:  E(RHF) =  -984.515564733     A.U. after   15 cycles
 SCF Done:  E(RHF) =  -984.539116297     A.U. after   14 cycles
 SCF Done:  E(RHF) =  -984.541662175     A.U. after   12 cycles
 SCF Done:  E(RHF) =  -984.550219493     A.U. after    8 cycles
 SCF Done:  E(RHF) =  -984.550219569     A.U. after    8 cycles
 SCF Done:  E(RHF) =  -984.550219618     A.U. after    8 cycles
 SCF Done:  E(RHF) =  -984.550219688     A.U. after    8 cycles
 SCF Done:  E(RHF) =  -984.550219727     A.U. after    8 cycles
 SCF Done:  E(RHF) =  -984.550219798     A.U. after    8 cycles
 SCF Done:  E(RHF) =  -984.550219885     A.U. after    8 cycles
 SCF Done:  E(RHF) =  -984.550220035     A.U. after    8 cycles
 SCF Done:  E(RHF) =  -984.550220140     A.U. after    8 cycles
 SCF Done:  E(RHF) =  -984.550220181     A.U. after    7 cycles
 Optimization completed.
    -- Stationary point found.

                         Standard orientation:
 ---------------------------------------------------------------------
 Center     Atomic      Atomic             Coordinates (Angstroms)
 Number     Number       Type             X           Y           Z
 ---------------------------------------------------------------------
      1          1           0       -5.712105   -3.000602   -1.052143
      2          6           0       -4.923431   -2.882190   -0.321503
      3          1           0       -4.052813   -3.447726   -0.630454
      4          1           0       -5.280648   -3.280869    0.622086
      5          6           0       -4.643086   -1.405912   -0.145965
      6          8           0       -5.529606   -0.593127   -0.100909
      7          7           0       -3.343316   -1.066140   -0.020384
      8          1           0       -2.622043   -1.749830   -0.073487
      9          6           0       -2.925548    0.300869    0.164536
     10          1           0       -3.557627    0.930345   -0.448581
     11          6           0       -3.041699    0.750519    1.627933
     12          1           0       -2.413408    0.135205    2.262556
     13          1           0       -2.744931    1.787567    1.749984
     14          1           0       -4.070297    0.649698    1.947579
     15          6           0       -1.474046    0.406972   -0.299531
     16          8           0       -0.760456   -0.563413   -0.287960
     17          7           0       -1.112087    1.636985   -0.714410
     18          1           0       -1.841104    2.311945   -0.656538
     19          6           0        0.202378    2.265091   -0.938040
     20          1           0        0.493957    2.041942   -1.961472
     21          6           0        0.014692    3.772661   -0.813011
     22          1           0       -0.244435    4.047402    0.202090
     23          1           0        0.927110    4.287467   -1.072728
     24          1           0       -0.770363    4.103881   -1.486523
     25          6           0        1.409023    1.806421   -0.083746
     26          8           0        2.036428    2.636984    0.525688
     27          7           0        1.779883    0.522188   -0.146704
     28          1           0        1.151043   -0.165798   -0.505994
     29          6           0        2.924339    0.043439    0.594161
     30          1           0        3.660394    0.834722    0.606948
     31          6           0        2.565449   -0.332147    2.038012
     32          1           0        1.807955   -1.107561    2.044772
     33          1           0        3.436027   -0.693283    2.576357
     34          1           0        2.181707    0.540262    2.552128
     35          6           0        3.478311   -1.177259   -0.133227
     36          8           0        2.761067   -1.941023   -0.721082
     37          7           0        4.808507   -1.365728   -0.016126
     38          1           0        5.364790   -0.639728    0.371156
     39          6           0        5.472970   -2.489808   -0.641003
     40          1           0        4.936166   -3.401164   -0.421365
     41          1           0        5.528195   -2.376131   -1.718018
     42          1           0        6.475941   -2.566180   -0.242573
 ---------------------------------------------------------------------

 The electronic state is 1-A.
 Alpha  occ. eigenvalues --  -20.54959 -20.52528 -20.52519 -20.51782 -15.61064
 Alpha  occ. eigenvalues --  -15.58983 -15.58247 -15.57229 -11.37048 -11.35095
 Alpha  occ. eigenvalues --  -11.34630 -11.34539 -11.29758 -11.28742 -11.27544
 Alpha  occ. eigenvalues --  -11.26036 -11.23178 -11.22954 -11.22907 -11.22017
 Alpha  occ. eigenvalues --   -1.41889  -1.39791  -1.39106  -1.38697  -1.26167
 Alpha  occ. eigenvalues --   -1.23932  -1.23707  -1.23240  -1.07733  -1.04744
 Alpha  occ. eigenvalues --   -1.03354  -0.98976  -0.96013  -0.91771  -0.89961
 Alpha  occ. eigenvalues --   -0.86590  -0.82384  -0.79482  -0.79176  -0.78287
 Alpha  occ. eigenvalues --   -0.73791  -0.72643  -0.68983  -0.68710  -0.66878
 Alpha  occ. eigenvalues --   -0.65745  -0.65597  -0.63734  -0.63588  -0.62802
 Alpha  occ. eigenvalues --   -0.61700  -0.60344  -0.59924  -0.59212  -0.59204
 Alpha  occ. eigenvalues --   -0.58436  -0.57078  -0.56038  -0.55672  -0.55544
 Alpha  occ. eigenvalues --   -0.54980  -0.54926  -0.54197  -0.53192  -0.53040
 Alpha  occ. eigenvalues --   -0.52298  -0.52068  -0.50050  -0.49956  -0.44628
 Alpha  occ. eigenvalues --   -0.43822  -0.42119  -0.41570  -0.40023  -0.39448
 Alpha  occ. eigenvalues --   -0.38670  -0.37647
 Alpha virt. eigenvalues --    0.17834   0.18275   0.19912   0.20828   0.21553
 Alpha virt. eigenvalues --    0.21830   0.23840   0.25486   0.26571   0.27111
 Alpha virt. eigenvalues --    0.27660   0.28696   0.28973   0.29938   0.30451

 Mulliken atomic charges:
              1
     1  H    0.209224
     2  C   -0.576863
     3  H    0.176400
     4  H    0.202843
     5  C    0.755931
     6  O   -0.622041
     7  N   -0.822728
     8  H    0.421260
     9  C   -0.042879
    10  H    0.220284
    11  C   -0.489339
    12  H    0.180848
    13  H    0.158763
    14  H    0.214642
    15  C    0.810937
    16  O   -0.645687
    17  N   -0.852818
    18  H    0.399205
    19  C    0.004542
    20  H    0.210021
    21  C   -0.505013
    22  H    0.189421
    23  H    0.210984
    24  H    0.162008
    25  C    0.766724
    26  O   -0.632510
    27  N   -0.831337
    28  H    0.475361
    29  C   -0.048569
    30  H    0.212562
    31  C   -0.488748
    32  H    0.189928
    33  H    0.162042
    34  H    0.195644
    35  C    0.779233
    36  O   -0.617545
    37  N   -0.800264
    38  H    0.386823
    39  C   -0.272371
    40  H    0.203578
    41  H    0.180670
    42  H    0.168836
 Sum of Mulliken atomic charges =   0.00000

 Dipole moment (field-independent basis, Debye):
    X=              3.0914    Y=              0.2679    Z=              0.2807  Tot=              3.1157
 Quadrupole moment (field-independent basis, Debye-Ang):
   XX=           -119.0482   YY=           -117.5802   ZZ=           -118.7346
   XY=             -3.9465   XZ=              0.9642   YZ=             -7.5766

 Normal termination of Gaussian 09 at Tue Dec 27 15:06:06 2016.
