 Gaussian 09, Revision A.02,
 Gaussian 09:  EM64L-G09RevA.02 11-Jun-2009

 -------------------
 #SP MP2/aug-cc-pVDZ
 -------------------

 -------------------------------
 Single Point calculation at MP2
 -------------------------------
 Symbolic Z-matrix:
 Charge =  0 Multiplicity = 1

                         Standard orientation:
 ---------------------------------------------------------------------
 Center     Atomic      Atomic             Coordinates (Angstroms)
 Number     Number       Type             X           Y           Z
 ---------------------------------------------------------------------
      1          1           0        3.362027   -1.509056   -0.839901
      2          6           0        3.231418   -0.644658   -0.183801
      3          1           0        3.679709    0.235947   -0.655101
      4          1           0        3.770220   -0.855852    0.746199
      5          6           0        1.747817   -0.495573    0.134399
      6          8           0        1.064827   -1.460380    0.456699
      7          7           0        1.270703    0.784722    0.053099
      8          1           0        1.927296    1.498829   -0.232101
      9          6           0       -0.088702    1.275108    0.321499
     10          1           0       -0.106106    1.723608    1.321399
     11          6           0       -0.455913    2.352804   -0.709701
     12          1           0       -0.480109    1.940004   -1.722901
     13          1           0       -1.442517    2.765894   -0.479501
     14          1           0        0.267079    3.178212   -0.685001
     15          6           0       -1.203591    0.205797    0.400499
     16          8           0       -1.957691    0.198589    1.362099
     17          7           0       -1.401983   -0.556506   -0.719801
     18          1           0       -0.574681   -0.720197   -1.278201
     19          6           0       -2.332771   -1.676115   -0.653801
     20          1           0       -3.248375   -1.339925   -0.165701
     21          1           0       -2.564368   -2.011018   -1.668701
     22          1           0       -1.917862   -2.513811   -0.078501
 ---------------------------------------------------------------------

 SCF Done:  E(RHF) =  -492.914673629     A.U. after   15 cycles
 E2 =    -0.1603141663D+01 EUMP2 =    -0.49451781529239D+03

 The electronic state is 1-A.
 Alpha  occ. eigenvalues --  -20.53858 -20.52796 -15.61228 -15.57879 -11.37539
 Alpha  occ. eigenvalues --  -11.35501 -11.29853 -11.25693 -11.25289 -11.24929
 Alpha  occ. eigenvalues --   -1.39521  -1.37883  -1.25102  -1.21823  -1.06337
 Alpha  occ. eigenvalues --   -1.00014  -0.94417  -0.88385  -0.81674  -0.76857
 Alpha  occ. eigenvalues --   -0.70583  -0.69602  -0.66995  -0.63169  -0.62173
 Alpha  occ. eigenvalues --   -0.61880  -0.59782  -0.58340  -0.57698  -0.56404
 Alpha  occ. eigenvalues --   -0.55043  -0.53699  -0.53514  -0.51432  -0.50614
 Alpha  occ. eigenvalues --   -0.43389  -0.41995  -0.40594  -0.38311
 Alpha virt. eigenvalues --    0.02261   0.03815   0.03971   0.04726   0.05632
 Alpha virt. eigenvalues --    0.06015   0.06194   0.06783   0.07452   0.08317
 Alpha virt. eigenvalues --    0.08419   0.09498   0.11336   0.11707   0.12637

 Mulliken atomic charges:
              1
     1  H    0.021992
     2  C    0.445890
     3  H   -0.162076
     4  H    0.065006
     5  C    0.461729
     6  O   -0.837722
     7  N   -0.399235
     8  H   -0.076770
     9  C    0.404166
    10  H   -0.206447
    11  C    0.638611
    12  H   -0.029792
    13  H   -0.041668
    14  H   -0.115121
    15  C    0.911108
    16  O   -0.892955
    17  N   -0.523898
    18  H   -0.020438
    19  C    0.716959
    20  H   -0.117993
    21  H   -0.192333
    22  H   -0.049013
 Sum of Mulliken atomic charges =   0.00000

 Dipole moment (field-independent basis, Debye):
    X=              4.1122    Y=              2.6308    Z=             -3.8996  Tot=              6.2480
 Quadrupole moment (field-independent basis, Debye-Ang):
   XX=            -56.9167   YY=            -59.2080   ZZ=            -65.0445
   XY=              5.0555   XZ=              4.2879   YZ=              2.4449

 Normal termination of Gaussian 09 at Mon Feb 13 22:04:32 2017.
