 Gaussian 09, Revision A.02,
 Gaussian 09:  EM64L-G09RevA.02 11-Jun-2009

 -------------------
 #SP MP2/aug-cc-pVDZ
 -------------------

 -------------------------------
 Single Point calculation at MP2
 -------------------------------
 Symbolic Z-matrix:
 Charge =  0 Multiplicity = 1

                         Standard orientation:
 ---------------------------------------------------------------------
 Center     Atomic      Atomic             Coordinates (Angstroms)
 Number     Number       Type             X           Y           Z
 ---------------------------------------------------------------------
      1          1           0        3.613188   -1.258316   -0.812976
      2          6           0        3.359189   -0.513516   -0.053776
      3          1           0        3.801390    0.448183   -0.331776
      4          1           0        3.804688   -0.845317    0.889924
      5          6           0        1.844589   -0.485113    0.111324
      6          8           0        1.214887   -1.525812    0.290324
      7          7           0        1.283591    0.755288    0.037824
      8          1           0        1.928492    1.515986   -0.130976
      9          6           0       -0.092308    1.222990    0.287024
     10          1           0       -0.104407    1.702390    1.272524
     11          6           0       -0.456906    2.277991   -0.772176
     12          1           0       -0.488007    1.828591   -1.769276
     13          1           0       -1.438406    2.701792   -0.542876
     14          1           0        0.273895    3.096689   -0.776576
     15          6           0       -1.264610    0.216092    0.374924
     16          8           0       -2.175609    0.489993    1.147224
     17          7           0       -1.342512   -0.773208   -0.563376
     18          1           0       -0.446612   -1.205710   -0.770076
     19          6           0       -2.477413   -1.688006   -0.506076
     20          1           0       -3.402612   -1.110005   -0.472276
     21          1           0       -2.471814   -2.309906   -1.404976
     22          1           0       -2.446814   -2.335006    0.380324
 ---------------------------------------------------------------------

 SCF Done:  E(RHF) =  -492.913400143     A.U. after   14 cycles
 E2 =    -0.1603347532D+01 EUMP2 =    -0.49451674767549D+03

 The electronic state is 1-A.
 Alpha  occ. eigenvalues --  -20.54242 -20.52945 -15.61560 -15.57381 -11.38098
 Alpha  occ. eigenvalues --  -11.35597 -11.30136 -11.25901 -11.25271 -11.24621
 Alpha  occ. eigenvalues --   -1.39834  -1.38048  -1.25367  -1.21634  -1.06464
 Alpha  occ. eigenvalues --   -1.00168  -0.94363  -0.88244  -0.82085  -0.76359
 Alpha  occ. eigenvalues --   -0.70886  -0.70253  -0.66502  -0.63086  -0.62743
 Alpha  occ. eigenvalues --   -0.62081  -0.59952  -0.58474  -0.57581  -0.56606
 Alpha  occ. eigenvalues --   -0.54858  -0.53566  -0.53196  -0.51608  -0.50227
 Alpha  occ. eigenvalues --   -0.44082  -0.42117  -0.40810  -0.38379
 Alpha virt. eigenvalues --    0.02316   0.03985   0.04125   0.04675   0.05675
 Alpha virt. eigenvalues --    0.06062   0.06420   0.06844   0.07265   0.08033
 Alpha virt. eigenvalues --    0.08676   0.10245   0.11370   0.11630   0.12590

 Mulliken atomic charges:
              1
     1  H    0.034943
     2  C    0.450726
     3  H   -0.178412
     4  H    0.059918
     5  C    0.468364
     6  O   -0.861275
     7  N   -0.445670
     8  H   -0.052421
     9  C    0.517123
    10  H   -0.134504
    11  C    0.521591
    12  H    0.000460
    13  H   -0.042605
    14  H   -0.125577
    15  C    0.780466
    16  O   -0.894902
    17  N   -0.510262
    18  H    0.009553
    19  C    0.774797
    20  H   -0.125198
    21  H   -0.193606
    22  H   -0.053508
 Sum of Mulliken atomic charges =   0.00000

 Dipole moment (field-independent basis, Debye):
    X=              4.3729    Y=              2.1798    Z=             -2.5879  Tot=              5.5291
 Quadrupole moment (field-independent basis, Debye-Ang):
   XX=            -57.7546   YY=            -59.6982   ZZ=            -64.5143
   XY=              7.3213   XZ=              4.8191   YZ=              0.8087

 Normal termination of Gaussian 09 at Mon Feb 13 23:11:07 2017.
