 Gaussian 09, Revision A.02,
 Gaussian 09:  EM64L-G09RevA.02 11-Jun-2009

 -------------------
 #SP MP2/aug-cc-pVDZ
 -------------------

 -------------------------------
 Single Point calculation at MP2
 -------------------------------
 Symbolic Z-matrix:
 Charge =  0 Multiplicity = 1

                         Standard orientation:
 ---------------------------------------------------------------------
 Center     Atomic      Atomic             Coordinates (Angstroms)
 Number     Number       Type             X           Y           Z
 ---------------------------------------------------------------------
      1          1           0        3.777817   -1.382484   -0.575408
      2          6           0        3.382415   -0.513784   -0.046908
      3          1           0        3.881413    0.391617   -0.411508
      4          1           0        3.612715   -0.620884    1.020292
      5          6           0        1.871315   -0.466087   -0.245108
      6          8           0        1.230317   -1.434989   -0.610008
      7          7           0        1.316713    0.790212   -0.046608
      8          1           0        1.988211    1.473313    0.286092
      9          6           0       -0.035888    1.102909    0.452092
     10          1           0        0.042712    1.305009    1.529292
     11          6           0       -0.535891    2.376408   -0.242308
     12          1           0       -0.602890    2.238608   -1.327808
     13          1           0       -1.512491    2.681206    0.146592
     14          1           0        0.165308    3.201009   -0.068708
     15          6           0       -1.005086   -0.107593    0.425292
     16          8           0       -0.863084   -1.018393    1.226492
     17          7           0       -2.133286    0.030605   -0.336908
     18          1           0       -2.101887    0.671705   -1.117008
     19          6           0       -3.088084   -1.065797   -0.417708
     20          1           0       -3.243083   -1.463297    0.586492
     21          1           0       -4.035185   -0.687999   -0.812308
     22          1           0       -2.727182   -1.882796   -1.055408
 ---------------------------------------------------------------------

 SCF Done:  E(RHF) =  -492.902492671     A.U. after   14 cycles
 E2 =    -0.1604477046D+01 EUMP2 =    -0.49450696971718D+03

 The electronic state is 1-A.
 Alpha  occ. eigenvalues --  -20.52891 -20.52003 -15.59652 -15.59023 -11.36033
 Alpha  occ. eigenvalues --  -11.35574 -11.30055 -11.26049 -11.24850 -11.24540
 Alpha  occ. eigenvalues --   -1.38631  -1.37263  -1.23721  -1.22415  -1.05764
 Alpha  occ. eigenvalues --   -0.99108  -0.94765  -0.88581  -0.80211  -0.77181
 Alpha  occ. eigenvalues --   -0.70231  -0.68626  -0.65746  -0.63819  -0.61787
 Alpha  occ. eigenvalues --   -0.60876  -0.59671  -0.57535  -0.57199  -0.56228
 Alpha  occ. eigenvalues --   -0.54840  -0.54289  -0.53311  -0.51951  -0.49377
 Alpha  occ. eigenvalues --   -0.42291  -0.41175  -0.39580  -0.38548
 Alpha virt. eigenvalues --    0.02597   0.03549   0.04288   0.04529   0.05618
 Alpha virt. eigenvalues --    0.05913   0.06385   0.06862   0.07253   0.07917
 Alpha virt. eigenvalues --    0.08893   0.09598   0.10499   0.11872   0.12500

 Mulliken atomic charges:
              1
     1  H   -0.044316
     2  C    0.355616
     3  H   -0.046968
     4  H    0.057734
     5  C    0.660513
     6  O   -0.772969
     7  N   -0.596254
     8  H   -0.064141
     9  C   -0.027905
    10  H   -0.059980
    11  C    0.765245
    12  H    0.010335
    13  H   -0.004337
    14  H   -0.171329
    15  C    1.102678
    16  O   -0.892078
    17  N   -0.561590
    18  H   -0.118028
    19  C    0.740801
    20  H   -0.100581
    21  H   -0.193016
    22  H   -0.039430
 Sum of Mulliken atomic charges =   0.00000

 Dipole moment (field-independent basis, Debye):
    X=              0.6336    Y=              5.3117    Z=             -1.0958  Tot=              5.4604
 Quadrupole moment (field-independent basis, Debye-Ang):
   XX=            -47.0266   YY=            -63.7555   ZZ=            -63.6261
   XY=              2.6509   XZ=              6.4470   YZ=              1.9608

 Normal termination of Gaussian 09 at Mon Feb 13 22:03:02 2017.
