 Gaussian 09, Revision A.02,
 Gaussian 09:  EM64L-G09RevA.02 11-Jun-2009

 -------------------
 #SP MP2/aug-cc-pVDZ
 -------------------

 -------------------------------
 Single Point calculation at MP2
 -------------------------------
 Symbolic Z-matrix:
 Charge =  0 Multiplicity = 1

                         Standard orientation:
 ---------------------------------------------------------------------
 Center     Atomic      Atomic             Coordinates (Angstroms)
 Number     Number       Type             X           Y           Z
 ---------------------------------------------------------------------
      1          1           0       -3.806499   -1.182483    0.590396
      2          6           0       -3.138496   -0.338086    0.765896
      3          1           0       -2.740096   -0.409987    1.785396
      4          1           0       -3.706493    0.596916    0.688796
      5          6           0       -1.989096   -0.404389   -0.231604
      6          8           0       -1.741900   -1.399890   -0.881204
      7          7           0       -1.320292    0.817408   -0.411704
      8          1           0       -1.710790    1.524610    0.201896
      9          6           0        0.134709    1.007403   -0.505404
     10          1           0        0.397509    1.188202   -1.560104
     11          6           0        0.501013    2.269902    0.294996
     12          1           0        0.334912    2.104803    1.365696
     13          1           0        1.548314    2.547299    0.155996
     14          1           0       -0.117484    3.113604   -0.032304
     15          6           0        0.993504   -0.195500   -0.036304
     16          8           0        0.554001   -1.151398    0.579196
     17          7           0        2.347005    0.037296   -0.145904
     18          1           0        2.650808    0.713495   -0.835004
     19          6           0        3.303302   -1.001007    0.213096
     20          1           0        2.931400   -1.512606    1.101596
     21          1           0        3.435199   -1.746708   -0.582204
     22          1           0        4.269803   -0.539711    0.435096
 ---------------------------------------------------------------------

 SCF Done:  E(RHF) =  -492.897882872     A.U. after   15 cycles
 E2 =    -0.1604826921D+01 EUMP2 =    -0.49450270979342D+03

 The electronic state is 1-A.
 Alpha  occ. eigenvalues --  -20.53354 -20.52159 -15.59512 -15.58717 -11.36173
 Alpha  occ. eigenvalues --  -11.35233 -11.30375 -11.26769 -11.25575 -11.23850
 Alpha  occ. eigenvalues --   -1.39152  -1.37079  -1.23453  -1.22654  -1.05686
 Alpha  occ. eigenvalues --   -0.98635  -0.95539  -0.88311  -0.79708  -0.77366
 Alpha  occ. eigenvalues --   -0.70053  -0.67502  -0.66567  -0.63885  -0.62628
 Alpha  occ. eigenvalues --   -0.61049  -0.59167  -0.57710  -0.57243  -0.56012
 Alpha  occ. eigenvalues --   -0.54967  -0.54786  -0.53746  -0.51778  -0.48495
 Alpha  occ. eigenvalues --   -0.43867  -0.41301  -0.39639  -0.38226
 Alpha virt. eigenvalues --    0.02537   0.03491   0.04174   0.04650   0.05610
 Alpha virt. eigenvalues --    0.05764   0.06365   0.06772   0.07588   0.08019
 Alpha virt. eigenvalues --    0.08770   0.09765   0.10914   0.11744   0.12022

 Mulliken atomic charges:
              1
     1  H   -0.069437
     2  C    0.287824
     3  H    0.060066
     4  H   -0.001196
     5  C    0.746393
     6  O   -0.809111
     7  N   -0.676330
     8  H    0.061315
     9  C    0.126559
    10  H   -0.130861
    11  C    0.653521
    12  H   -0.007649
    13  H   -0.145581
    14  H   -0.055430
    15  C    0.988505
    16  O   -0.787375
    17  N   -0.533541
    18  H   -0.096362
    19  C    0.737131
    20  H   -0.104853
    21  H   -0.057437
    22  H   -0.186150
 Sum of Mulliken atomic charges =   0.00000

 Dipole moment (field-independent basis, Debye):
    X=              2.2592    Y=              5.4072    Z=              0.8382  Tot=              5.9199
 Quadrupole moment (field-independent basis, Debye-Ang):
   XX=            -48.9897   YY=            -64.3469   ZZ=            -62.7320
   XY=             -3.7924   XZ=             -8.1313   YZ=             -1.8235

 Normal termination of Gaussian 09 at Mon Feb 13 22:05:04 2017.
