 Gaussian 09, Revision A.02,
 Gaussian 09:  EM64L-G09RevA.02 11-Jun-2009

 -------------------
 #SP MP2/aug-cc-pVDZ
 -------------------

 -------------------------------
 Single Point calculation at MP2
 -------------------------------
 Symbolic Z-matrix:
 Charge =  0 Multiplicity = 1

                         Standard orientation:
 ---------------------------------------------------------------------
 Center     Atomic      Atomic             Coordinates (Angstroms)
 Number     Number       Type             X           Y           Z
 ---------------------------------------------------------------------
      1          1           0       -3.852201   -1.043779    0.784100
      2          6           0       -3.141996   -0.222383    0.887000
      3          1           0       -2.702596   -0.258085    1.891600
      4          1           0       -3.675191    0.731120    0.786700
      5          6           0       -2.047797   -0.385889   -0.165000
      6          8           0       -1.919303   -1.402390   -0.812800
      7          7           0       -1.307990    0.790906   -0.381400
      8          1           0       -1.651486    1.519208    0.235200
      9          6           0        0.149711    0.964698   -0.538200
     10          1           0        0.361412    1.095997   -1.612400
     11          6           0        0.529519    2.276596    0.170400
     12          1           0        0.453618    2.170996    1.258300
     13          1           0        1.545420    2.602390   -0.066400
     14          1           0       -0.144277    3.077600   -0.154300
     15          6           0        1.035204   -0.236007   -0.104200
     16          8           0        0.610897   -1.334705    0.203500
     17          7           0        2.367806    0.085685    0.039800
     18          1           0        2.712111    0.920683   -0.412900
     19          6           0        3.345899   -0.958721    0.312300
     20          1           0        2.909595   -1.659718    1.024800
     21          1           0        3.626996   -1.518823   -0.589700
     22          1           0        4.241902   -0.506726    0.746800
 ---------------------------------------------------------------------

 SCF Done:  E(RHF) =  -492.891026870     A.U. after   15 cycles
 E2 =    -0.1604657301D+01 EUMP2 =    -0.49449568417053D+03

 The electronic state is 1-A.
 Alpha  occ. eigenvalues --  -20.53196 -20.52176 -15.59503 -15.58781 -11.36233
 Alpha  occ. eigenvalues --  -11.35234 -11.30655 -11.26777 -11.25970 -11.23944
 Alpha  occ. eigenvalues --   -1.39085  -1.37101  -1.23452  -1.22598  -1.05858
 Alpha  occ. eigenvalues --   -0.98616  -0.95502  -0.88820  -0.79671  -0.77502
 Alpha  occ. eigenvalues --   -0.69995  -0.67253  -0.66568  -0.64223  -0.62357
 Alpha  occ. eigenvalues --   -0.61062  -0.59318  -0.57954  -0.57217  -0.56174
 Alpha  occ. eigenvalues --   -0.55247  -0.54896  -0.53814  -0.51493  -0.48777
 Alpha  occ. eigenvalues --   -0.44065  -0.41252  -0.39460  -0.37950
 Alpha virt. eigenvalues --    0.02395   0.03449   0.04036   0.04628   0.05531
 Alpha virt. eigenvalues --    0.05676   0.06313   0.06744   0.07614   0.07931
 Alpha virt. eigenvalues --    0.08827   0.10185   0.11011   0.11591   0.12431

 Mulliken atomic charges:
              1
     1  H   -0.084536
     2  C    0.254862
     3  H    0.052785
     4  H    0.015023
     5  C    0.771100
     6  O   -0.777672
     7  N   -0.712696
     8  H    0.045865
     9  C    0.267197
    10  H   -0.070933
    11  C    0.646977
    12  H    0.007071
    13  H   -0.176431
    14  H   -0.045401
    15  C    0.828417
    16  O   -0.750658
    17  N   -0.539329
    18  H   -0.115149
    19  C    0.726893
    20  H   -0.107150
    21  H   -0.054123
    22  H   -0.182112
 Sum of Mulliken atomic charges =   0.00000

 Dipole moment (field-independent basis, Debye):
    X=              2.5725    Y=              5.9660    Z=              1.5500  Tot=              6.6793
 Quadrupole moment (field-independent basis, Debye-Ang):
   XX=            -50.0074   YY=            -64.9345   ZZ=            -62.1242
   XY=             -3.5763   XZ=             -7.3893   YZ=             -2.5539

 Normal termination of Gaussian 09 at Tue Feb 14 05:38:57 2017.
