 Gaussian 09, Revision A.02,
 Gaussian 09:  EM64L-G09RevA.02 11-Jun-2009

 -------------------
 #SP MP2/aug-cc-pVDZ
 -------------------

 -------------------------------
 Single Point calculation at MP2
 -------------------------------
 Symbolic Z-matrix:
 Charge =  0 Multiplicity = 1

                         Standard orientation:
 ---------------------------------------------------------------------
 Center     Atomic      Atomic             Coordinates (Angstroms)
 Number     Number       Type             X           Y           Z
 ---------------------------------------------------------------------
      1          1           0        3.369911   -1.570184   -0.853908
      2          6           0        3.222803   -0.703085   -0.205408
      3          1           0        3.703096    0.171119   -0.656708
      4          1           0        3.716305   -0.917981    0.748992
      5          6           0        1.729202   -0.528598    0.042392
      6          8           0        0.999010   -1.486904    0.259992
      7          7           0        1.288891    0.767998    0.002692
      8          1           0        1.984385    1.486304   -0.148908
      9          6           0       -0.047413    1.266487    0.357592
     10          1           0       -0.007117    1.670087    1.376392
     11          6           0       -0.455123    2.390583   -0.603908
     12          1           0       -0.519420    2.035583   -1.637108
     13          1           0       -1.429927    2.796575   -0.316908
     14          1           0        0.273370    3.210790   -0.569308
     15          6           0       -1.127404    0.162277    0.466192
     16          8           0       -1.650002   -0.077927    1.542892
     17          7           0       -1.583100   -0.349326   -0.722408
     18          1           0       -0.913400   -0.335321   -1.481808
     19          6           0       -2.460990   -1.512934   -0.691008
     20          1           0       -3.264491   -1.324341    0.022292
     21          1           0       -2.888488   -1.666238   -1.685708
     22          1           0       -1.923282   -2.416829   -0.377508
 ---------------------------------------------------------------------

 SCF Done:  E(RHF) =  -492.914035349     A.U. after   14 cycles
 E2 =    -0.1603141302D+01 EUMP2 =    -0.49451717665145D+03

 The electronic state is 1-A.
 Alpha  occ. eigenvalues --  -20.53625 -20.52546 -15.60960 -15.57972 -11.37246
 Alpha  occ. eigenvalues --  -11.35382 -11.29758 -11.25465 -11.25242 -11.24906
 Alpha  occ. eigenvalues --   -1.39341  -1.37648  -1.24865  -1.21780  -1.06185
 Alpha  occ. eigenvalues --   -0.99854  -0.94272  -0.88402  -0.81430  -0.76717
 Alpha  occ. eigenvalues --   -0.70565  -0.69293  -0.66725  -0.63298  -0.62117
 Alpha  occ. eigenvalues --   -0.61443  -0.59683  -0.58178  -0.57459  -0.56342
 Alpha  occ. eigenvalues --   -0.54897  -0.53891  -0.53242  -0.51187  -0.50818
 Alpha  occ. eigenvalues --   -0.42912  -0.41767  -0.40306  -0.38430
 Alpha virt. eigenvalues --    0.02299   0.03803   0.03926   0.04731   0.05578
 Alpha virt. eigenvalues --    0.06028   0.06157   0.06753   0.07485   0.08336
 Alpha virt. eigenvalues --    0.08481   0.09366   0.11124   0.11708   0.12644

 Mulliken atomic charges:
              1
     1  H    0.021107
     2  C    0.445872
     3  H   -0.147135
     4  H    0.066292
     5  C    0.500179
     6  O   -0.839507
     7  N   -0.435203
     8  H   -0.104512
     9  C    0.345061
    10  H   -0.194566
    11  C    0.697418
    12  H   -0.056872
    13  H   -0.032857
    14  H   -0.107620
    15  C    1.027012
    16  O   -0.901974
    17  N   -0.606980
    18  H   -0.032279
    19  C    0.703889
    20  H   -0.111234
    21  H   -0.195083
    22  H   -0.041006
 Sum of Mulliken atomic charges =   0.00000

 Dipole moment (field-independent basis, Debye):
    X=              3.6227    Y=              3.2681    Z=             -3.8967  Tot=              6.2441
 Quadrupole moment (field-independent basis, Debye-Ang):
   XX=            -54.3744   YY=            -59.9758   ZZ=            -65.0650
   XY=              4.0424   XZ=              4.9759   YZ=              2.9596

 Normal termination of Gaussian 09 at Mon Feb 13 22:46:55 2017.
