 Gaussian 09, Revision A.02,
 Gaussian 09:  EM64L-G09RevA.02 11-Jun-2009

 -------------------
 #SP MP2/aug-cc-pVDZ
 -------------------

 -------------------------------
 Single Point calculation at MP2
 -------------------------------
 Symbolic Z-matrix:
 Charge =  0 Multiplicity = 1

                         Standard orientation:
 ---------------------------------------------------------------------
 Center     Atomic      Atomic             Coordinates (Angstroms)
 Number     Number       Type             X           Y           Z
 ---------------------------------------------------------------------
      1          1           0       -3.246276   -1.028947    1.379496
      2          6           0       -3.128877   -0.911646    0.296596
      3          1           0       -3.779890   -0.098055   -0.039104
      4          1           0       -3.450163   -1.845550   -0.171504
      5          6           0       -1.652281   -0.695423   -0.012404
      6          8           0       -0.841667   -1.609911    0.082796
      7          7           0       -1.330000    0.573781   -0.408204
      8          1           0       -2.082010    1.249570   -0.398204
      9          6           0        0.008191    1.171301   -0.561304
     10          1           0        0.237891    1.211305   -1.636804
     11          6           0       -0.004930    2.594701   -0.004704
     12          1           0       -0.121729    2.570399    1.081296
     13          1           0        0.939063    3.098415   -0.232204
     14          1           0       -0.817039    3.180689   -0.452604
     15          6           0        1.146104    0.357518    0.115796
     16          8           0        1.536199    0.636924    1.240696
     17          7           0        1.737518   -0.585673   -0.676604
     18          1           0        1.135223   -0.967782   -1.394904
     19          6           0        2.650432   -1.543459   -0.066604
     20          1           0        3.344324   -1.003149    0.578696
     21          1           0        2.109343   -2.280767    0.540096
     22          1           0        3.210540   -2.056951   -0.852804
 ---------------------------------------------------------------------

 SCF Done:  E(RHF) =  -492.915830507     A.U. after   15 cycles
 E2 =    -0.1602888194D+01 EUMP2 =    -0.49451871870163D+03

 The electronic state is 1-A.
 Alpha  occ. eigenvalues --  -20.53578 -20.52923 -15.60861 -15.57875 -11.37246
 Alpha  occ. eigenvalues --  -11.35506 -11.30030 -11.25311 -11.25135 -11.23872
 Alpha  occ. eigenvalues --   -1.39279  -1.37896  -1.24732  -1.21950  -1.05936
 Alpha  occ. eigenvalues --   -0.99552  -0.94883  -0.87203  -0.81308  -0.76472
 Alpha  occ. eigenvalues --   -0.70280  -0.69715  -0.67262  -0.63188  -0.62188
 Alpha  occ. eigenvalues --   -0.61174  -0.60006  -0.58438  -0.57463  -0.55083
 Alpha  occ. eigenvalues --   -0.53679  -0.53426  -0.53196  -0.51088  -0.50774
 Alpha  occ. eigenvalues --   -0.43311  -0.42977  -0.40006  -0.38095
 Alpha virt. eigenvalues --    0.02544   0.03887   0.04159   0.04829   0.05590
 Alpha virt. eigenvalues --    0.06128   0.06537   0.06945   0.07332   0.08272
 Alpha virt. eigenvalues --    0.09019   0.09382   0.11185   0.12145   0.12437

 Mulliken atomic charges:
              1
     1  H    0.054853
     2  C    0.420686
     3  H   -0.156005
     4  H    0.028296
     5  C    0.597814
     6  O   -0.857322
     7  N   -0.483014
     8  H   -0.067616
     9  C    0.016967
    10  H   -0.210231
    11  C    0.681630
    12  H    0.025821
    13  H   -0.056313
    14  H   -0.057289
    15  C    1.058058
    16  O   -0.875094
    17  N   -0.493189
    18  H   -0.014388
    19  C    0.719322
    20  H   -0.109694
    21  H   -0.037146
    22  H   -0.186147
 Sum of Mulliken atomic charges =   0.00000

 Dipole moment (field-independent basis, Debye):
    X=             -3.3993    Y=              1.6002    Z=             -3.0395  Tot=              4.8326
 Quadrupole moment (field-independent basis, Debye-Ang):
   XX=            -53.2412   YY=            -61.0109   ZZ=            -63.8090
   XY=             -5.5628   XZ=             -4.2255   YZ=             -1.1505

 Normal termination of Gaussian 09 at Mon Feb 13 23:29:35 2017.
