 Gaussian 09, Revision A.02,
 Gaussian 09:  EM64L-G09RevA.02 11-Jun-2009

 -------------------
 #SP MP2/aug-cc-pVDZ
 -------------------

 -------------------------------
 Single Point calculation at MP2
 -------------------------------
 Symbolic Z-matrix:
 Charge =  0 Multiplicity = 1

                         Standard orientation:
 ---------------------------------------------------------------------
 Center     Atomic      Atomic             Coordinates (Angstroms)
 Number     Number       Type             X           Y           Z
 ---------------------------------------------------------------------
      1          1           0       -3.552712   -1.740485    0.068796
      2          6           0       -3.160610   -0.758886    0.340196
      3          1           0       -3.112810   -0.698887    1.434196
      4          1           0       -3.844308    0.019215   -0.016704
      5          6           0       -1.756909   -0.615790   -0.226604
      6          8           0       -1.041412   -1.575992   -0.466504
      7          7           0       -1.367406    0.682009   -0.501004
      8          1           0       -2.000104    1.391310   -0.149904
      9          6           0        0.035995    1.108205   -0.504704
     10          1           0        0.359096    1.248304   -1.546804
     11          6           0        0.170699    2.444405    0.234896
     12          1           0       -0.075802    2.306505    1.292096
     13          1           0        1.197400    2.816402    0.164096
     14          1           0       -0.494099    3.200306   -0.200204
     15          6           0        0.970993    0.082603    0.176196
     16          8           0        0.789392   -0.269797    1.332696
     17          7           0        2.124092   -0.174101   -0.513804
     18          1           0        2.092792   -0.059400   -1.518204
     19          6           0        3.093389   -1.125203    0.010596
     20          1           0        3.172590   -0.973803    1.088096
     21          1           0        2.789987   -2.164702   -0.168704
     22          1           0        4.065990   -0.945806   -0.456104
 ---------------------------------------------------------------------

 SCF Done:  E(RHF) =  -492.915092400     A.U. after   15 cycles
 E2 =    -0.1604357444D+01 EUMP2 =    -0.49451944984369D+03

 The electronic state is 1-A.
 Alpha  occ. eigenvalues --  -20.52970 -20.52268 -15.59537 -15.59057 -11.36016
 Alpha  occ. eigenvalues --  -11.35523 -11.29706 -11.26062 -11.24530 -11.24428
 Alpha  occ. eigenvalues --   -1.38898  -1.37276  -1.23731  -1.22552  -1.05592
 Alpha  occ. eigenvalues --   -0.99079  -0.95369  -0.87361  -0.80220  -0.77286
 Alpha  occ. eigenvalues --   -0.70141  -0.68634  -0.66836  -0.63210  -0.61989
 Alpha  occ. eigenvalues --   -0.61249  -0.59400  -0.58014  -0.57338  -0.54888
 Alpha  occ. eigenvalues --   -0.54462  -0.54130  -0.53269  -0.51860  -0.48963
 Alpha  occ. eigenvalues --   -0.42612  -0.42095  -0.39441  -0.38931
 Alpha virt. eigenvalues --    0.02841   0.03597   0.04477   0.04586   0.05714
 Alpha virt. eigenvalues --    0.06131   0.06409   0.06926   0.07385   0.08070
 Alpha virt. eigenvalues --    0.09085   0.09166   0.11021   0.12084   0.12733

 Mulliken atomic charges:
              1
     1  H   -0.031823
     2  C    0.325295
     3  H    0.074956
     4  H   -0.051593
     5  C    0.671055
     6  O   -0.836256
     7  N   -0.523039
     8  H    0.019042
     9  C   -0.030622
    10  H   -0.292138
    11  C    0.629779
    12  H    0.029827
    13  H   -0.080247
    14  H   -0.060452
    15  C    1.358795
    16  O   -0.941398
    17  N   -0.553786
    18  H   -0.096077
    19  C    0.723171
    20  H   -0.104234
    21  H   -0.046262
    22  H   -0.183990
 Sum of Mulliken atomic charges =   0.00000

 Dipole moment (field-independent basis, Debye):
    X=             -0.5277    Y=              3.6388    Z=             -2.0758  Tot=              4.2223
 Quadrupole moment (field-independent basis, Debye-Ang):
   XX=            -47.4016   YY=            -62.2526   ZZ=            -63.9811
   XY=             -4.0284   XZ=             -6.2244   YZ=             -0.5909

 Normal termination of Gaussian 09 at Mon Feb 13 22:31:05 2017.
