 Gaussian 09, Revision A.02,
 Gaussian 09:  EM64L-G09RevA.02 11-Jun-2009

 -------------------
 #SP MP2/aug-cc-pVDZ
 -------------------

 -------------------------------
 Single Point calculation at MP2
 -------------------------------
 Symbolic Z-matrix:
 Charge =  0 Multiplicity = 1

                         Standard orientation:
 ---------------------------------------------------------------------
 Center     Atomic      Atomic             Coordinates (Angstroms)
 Number     Number       Type             X           Y           Z
 ---------------------------------------------------------------------
      1          1           0        3.621996   -1.516094   -0.694788
      2          6           0        3.318699   -0.620893   -0.149588
      3          1           0        3.820402    0.254005   -0.577688
      4          1           0        3.646099   -0.725494    0.892112
      5          6           0        1.799500   -0.510888   -0.195888
      6          8           0        1.080996   -1.478886   -0.385088
      7          7           0        1.318004    0.776714   -0.061388
      8          1           0        2.025606    1.468811    0.156312
      9          6           0       -0.011995    1.164518    0.443112
     10          1           0        0.091706    1.420018    1.505412
     11          6           0       -0.497391    2.407320   -0.313188
     12          1           0       -0.563491    2.223620   -1.391388
     13          1           0       -1.476290    2.730723    0.053612
     14          1           0        0.207112    3.235917   -0.171988
     15          6           0       -1.015699   -0.017279    0.489112
     16          8           0       -1.046301   -0.747779    1.467512
     17          7           0       -1.980799   -0.040275   -0.481388
     18          1           0       -1.763697    0.414224   -1.358188
     19          6           0       -2.898703   -1.170072   -0.543888
     20          1           0       -3.285103   -1.359471    0.458712
     21          1           0       -3.726802   -0.921570   -1.213088
     22          1           0       -2.402006   -2.082674   -0.896988
 ---------------------------------------------------------------------

 SCF Done:  E(RHF) =  -492.907327116     A.U. after   14 cycles
 E2 =    -0.1603909551D+01 EUMP2 =    -0.49451123666719D+03

 The electronic state is 1-A.
 Alpha  occ. eigenvalues --  -20.53240 -20.52015 -15.60072 -15.58633 -11.36466
 Alpha  occ. eigenvalues --  -11.35419 -11.29842 -11.25707 -11.24864 -11.24792
 Alpha  occ. eigenvalues --   -1.38903  -1.37295  -1.24055  -1.22149  -1.05829
 Alpha  occ. eigenvalues --   -0.99381  -0.94506  -0.88447  -0.80526  -0.76997
 Alpha  occ. eigenvalues --   -0.70409  -0.68779  -0.65980  -0.63593  -0.61966
 Alpha  occ. eigenvalues --   -0.60937  -0.59633  -0.57705  -0.57278  -0.56217
 Alpha  occ. eigenvalues --   -0.54672  -0.54247  -0.53060  -0.51866  -0.49800
 Alpha  occ. eigenvalues --   -0.42380  -0.41389  -0.39813  -0.38528
 Alpha virt. eigenvalues --    0.02548   0.03648   0.04168   0.04604   0.05594
 Alpha virt. eigenvalues --    0.05943   0.06407   0.06868   0.07199   0.08119
 Alpha virt. eigenvalues --    0.08660   0.09700   0.10508   0.11995   0.12287

 Mulliken atomic charges:
              1
     1  H   -0.028992
     2  C    0.382384
     3  H   -0.068942
     4  H    0.063851
     5  C    0.632915
     6  O   -0.792321
     7  N   -0.560073
     8  H   -0.079101
     9  C    0.048997
    10  H   -0.118880
    11  C    0.774461
    12  H   -0.018307
    13  H   -0.025043
    14  H   -0.135838
    15  C    1.161285
    16  O   -0.933444
    17  N   -0.604655
    18  H   -0.089922
    19  C    0.727469
    20  H   -0.105095
    21  H   -0.194537
    22  H   -0.036210
 Sum of Mulliken atomic charges =   0.00000

 Dipole moment (field-independent basis, Debye):
    X=              1.7034    Y=              4.7322    Z=             -2.2535  Tot=              5.5112
 Quadrupole moment (field-independent basis, Debye-Ang):
   XX=            -48.7417   YY=            -62.6492   ZZ=            -64.1911
   XY=              2.8247   XZ=              6.2528   YZ=              2.6712

 Normal termination of Gaussian 09 at Mon Feb 13 22:26:34 2017.
