 Gaussian 09, Revision A.02,
 Gaussian 09:  EM64L-G09RevA.02 11-Jun-2009

 -------------------
 #SP MP2/aug-cc-pVDZ
 -------------------

 -------------------------------
 Single Point calculation at MP2
 -------------------------------
 Symbolic Z-matrix:
 Charge =  0 Multiplicity = 1

                         Standard orientation:
 ---------------------------------------------------------------------
 Center     Atomic      Atomic             Coordinates (Angstroms)
 Number     Number       Type             X           Y           Z
 ---------------------------------------------------------------------
      1          1           0       -3.769015   -1.337680    0.370505
      2          6           0       -3.180610   -0.446383    0.593305
      3          1           0       -2.895710   -0.470384    1.652205
      4          1           0       -3.794005    0.446821    0.425405
      5          6           0       -1.922510   -0.459090   -0.262695
      6          8           0       -1.506716   -1.462892   -0.809295
      7          7           0       -1.337203    0.796907   -0.444095
      8          1           0       -1.802799    1.509210    0.107705
      9          6           0        0.108798    1.038399   -0.486195
     10          1           0        0.406599    1.229798   -1.528795
     11          6           0        0.425005    2.295498    0.341405
     12          1           0        0.207404    2.113799    1.399805
     13          1           0        1.479506    2.567492    0.250605
     14          1           0       -0.178691    3.142501   -0.005495
     15          6           0        0.970592   -0.132505    0.043305
     16          8           0        0.582687   -0.910403    0.900005
     17          7           0        2.295792   -0.022112   -0.304495
     18          1           0        2.514295    0.483086   -1.153495
     19          6           0        3.263287   -1.015818    0.138105
     20          1           0        2.991585   -1.325616    1.148005
     21          1           0        3.273282   -1.906418   -0.503895
     22          1           0        4.262289   -0.570423    0.148505
 ---------------------------------------------------------------------

 SCF Done:  E(RHF) =  -492.905015101     A.U. after   15 cycles
 E2 =    -0.1604892725D+01 EUMP2 =    -0.49450990782584D+03

 The electronic state is 1-A.
 Alpha  occ. eigenvalues --  -20.53042 -20.52313 -15.59449 -15.58881 -11.35960
 Alpha  occ. eigenvalues --  -11.35369 -11.30106 -11.26623 -11.25225 -11.23916
 Alpha  occ. eigenvalues --   -1.38970  -1.37166  -1.23451  -1.22738  -1.05634
 Alpha  occ. eigenvalues --   -0.98724  -0.95564  -0.87896  -0.79859  -0.77353
 Alpha  occ. eigenvalues --   -0.70097  -0.67854  -0.66618  -0.63476  -0.62679
 Alpha  occ. eigenvalues --   -0.61045  -0.59224  -0.57599  -0.57384  -0.55663
 Alpha  occ. eigenvalues --   -0.54677  -0.54620  -0.53611  -0.51954  -0.48470
 Alpha  occ. eigenvalues --   -0.43402  -0.41481  -0.39610  -0.38510
 Alpha virt. eigenvalues --    0.02678   0.03524   0.04314   0.04647   0.05666
 Alpha virt. eigenvalues --    0.05907   0.06372   0.06803   0.07480   0.08121
 Alpha virt. eigenvalues --    0.08771   0.09541   0.10980   0.11755   0.12287

 Mulliken atomic charges:
              1
     1  H   -0.056580
     2  C    0.295934
     3  H    0.068176
     4  H   -0.013785
     5  C    0.734231
     6  O   -0.825791
     7  N   -0.626944
     8  H    0.047369
     9  C    0.034256
    10  H   -0.211330
    11  C    0.617472
    12  H    0.013580
    13  H   -0.103988
    14  H   -0.044642
    15  C    1.157280
    16  O   -0.853927
    17  N   -0.522331
    18  H   -0.095992
    19  C    0.739353
    20  H   -0.106673
    21  H   -0.057202
    22  H   -0.188465
 Sum of Mulliken atomic charges =   0.00000

 Dipole moment (field-independent basis, Debye):
    X=              1.5090    Y=              4.9908    Z=             -0.1060  Tot=              5.2150
 Quadrupole moment (field-independent basis, Debye-Ang):
   XX=            -47.7190   YY=            -63.8176   ZZ=            -63.1836
   XY=             -3.9312   XZ=             -7.6679   YZ=             -1.1799

 Normal termination of Gaussian 09 at Mon Feb 13 22:12:04 2017.
