 Gaussian 09, Revision A.02,
 Gaussian 09:  EM64L-G09RevA.02 11-Jun-2009

 -------------------
 #SP MP2/aug-cc-pVDZ
 -------------------

 -------------------------------
 Single Point calculation at MP2
 -------------------------------
 Symbolic Z-matrix:
 Charge =  0 Multiplicity = 1

                         Standard orientation:
 ---------------------------------------------------------------------
 Center     Atomic      Atomic             Coordinates (Angstroms)
 Number     Number       Type             X           Y           Z
 ---------------------------------------------------------------------
      1          1           0        3.425296   -1.802186   -0.280587
      2          6           0        3.213694   -0.755086   -0.511887
      3          1           0        3.135294   -0.634586   -1.597287
      4          1           0        4.063793   -0.163384   -0.154787
      5          6           0        1.963493   -0.328388    0.244313
      6          8           0        1.782993   -0.604189    1.420513
      7          7           0        1.045292    0.390910   -0.489887
      8          1           0        1.319991    0.714910   -1.407887
      9          6           0       -0.089510    1.059308    0.147413
     10          1           0        0.196790    1.271408    1.182113
     11          6           0       -0.424112    2.368907   -0.574587
     12          1           0       -0.682612    2.186606   -1.625487
     13          1           0       -1.285513    2.834605   -0.090887
     14          1           0        0.422686    3.062609   -0.536087
     15          6           0       -1.363208    0.194505    0.261913
     16          8           0       -2.297209    0.583303    0.953513
     17          7           0       -1.391706   -0.931195   -0.501687
     18          1           0       -0.521205   -1.211593   -0.930987
     19          6           0       -2.495904   -1.871997   -0.451687
     20          1           0       -3.329505   -1.373199    0.044813
     21          1           0       -2.797903   -2.165398   -1.463187
     22          1           0       -2.235202   -2.774197    0.116213
 ---------------------------------------------------------------------

 SCF Done:  E(RHF) =  -492.925020647     A.U. after   14 cycles
 E2 =    -0.1601786959D+01 EUMP2 =    -0.49452680760507D+03

 The electronic state is 1-A.
 Alpha  occ. eigenvalues --  -20.54262 -20.52354 -15.60995 -15.59151 -11.37453
 Alpha  occ. eigenvalues --  -11.35396 -11.29256 -11.26479 -11.25914 -11.24459
 Alpha  occ. eigenvalues --   -1.39762  -1.37786  -1.25365  -1.22444  -1.06033
 Alpha  occ. eigenvalues --   -1.00130  -0.95853  -0.87930  -0.81046  -0.78292
 Alpha  occ. eigenvalues --   -0.72387  -0.68631  -0.67759  -0.63003  -0.62439
 Alpha  occ. eigenvalues --   -0.62101  -0.59695  -0.59415  -0.58213  -0.55940
 Alpha  occ. eigenvalues --   -0.54774  -0.54393  -0.53597  -0.51998  -0.49502
 Alpha  occ. eigenvalues --   -0.44329  -0.43489  -0.39555  -0.38809
 Alpha virt. eigenvalues --    0.02143   0.03649   0.04025   0.04566   0.05598
 Alpha virt. eigenvalues --    0.05959   0.06401   0.06535   0.07171   0.08040
 Alpha virt. eigenvalues --    0.08523   0.09330   0.11375   0.11788   0.11810

 Mulliken atomic charges:
              1
     1  H    0.031551
     2  C    0.339646
     3  H   -0.158548
     4  H    0.052804
     5  C    0.569534
     6  O   -0.844370
     7  N   -0.305149
     8  H   -0.044333
     9  C   -0.270312
    10  H   -0.009483
    11  C    0.767040
    12  H   -0.044521
    13  H   -0.043879
    14  H   -0.060322
    15  C    1.180817
    16  O   -0.903196
    17  N   -0.583724
    18  H   -0.068210
    19  C    0.733711
    20  H   -0.140718
    21  H   -0.120675
    22  H   -0.077662
 Sum of Mulliken atomic charges =   0.00000

 Dipole moment (field-independent basis, Debye):
    X=              3.0712    Y=             -0.2948    Z=             -5.7549  Tot=              6.5298
 Quadrupole moment (field-independent basis, Debye-Ang):
   XX=            -63.0314   YY=            -56.2631   ZZ=            -66.2300
   XY=              5.7760   XZ=             -1.9685   YZ=              1.4513

 Normal termination of Gaussian 09 at Mon Feb 13 12:37:29 2017.
