 Gaussian 09, Revision A.02,
 Gaussian 09:  EM64L-G09RevA.02 11-Jun-2009

 -------------------
 #SP MP2/aug-cc-pVDZ
 -------------------

 -------------------------------
 Single Point calculation at MP2
 -------------------------------
 Symbolic Z-matrix:
 Charge =  0 Multiplicity = 1

                         Standard orientation:
 ---------------------------------------------------------------------
 Center     Atomic      Atomic             Coordinates (Angstroms)
 Number     Number       Type             X           Y           Z
 ---------------------------------------------------------------------
      1          1           0        3.175612   -1.628400   -1.115308
      2          6           0        3.146411   -0.603700   -0.733608
      3          1           0        3.256010    0.093900   -1.569608
      4          1           0        3.999711   -0.482799   -0.058508
      5          6           0        1.866711   -0.410202    0.060692
      6          8           0        1.562612   -1.160902    0.990692
      7          7           0        1.077110    0.633497   -0.312408
      8          1           0        1.335509    1.199498   -1.108708
      9          6           0       -0.111191    1.028096    0.452892
     10          1           0        0.078709    0.715296    1.484292
     11          6           0       -0.319193    2.536696    0.377192
     12          1           0       -0.546093    2.845596   -0.647908
     13          1           0       -1.172493    2.829295    0.995092
     14          1           0        0.570807    3.065597    0.733392
     15          6           0       -1.351390    0.264395   -0.075908
     16          8           0       -2.206591    0.803094   -0.770408
     17          7           0       -1.377089   -1.039205    0.313792
     18          1           0       -0.547288   -1.394104    0.783092
     19          6           0       -2.386988   -1.970606   -0.154308
     20          1           0       -3.209588   -1.389707   -0.574308
     21          1           0       -1.996087   -2.640506   -0.931708
     22          1           0       -2.759287   -2.579307    0.676492
 ---------------------------------------------------------------------

 SCF Done:  E(RHF) =  -492.929054675     A.U. after   14 cycles
 E2 =    -0.1602828389D+01 EUMP2 =    -0.49453188306383D+03

 The electronic state is 1-A.
 Alpha  occ. eigenvalues --  -20.54313 -20.52661 -15.61236 -15.58110 -11.37784
 Alpha  occ. eigenvalues --  -11.35213 -11.29367 -11.25925 -11.25862 -11.23586
 Alpha  occ. eigenvalues --   -1.39742  -1.37724  -1.25216  -1.22111  -1.06018
 Alpha  occ. eigenvalues --   -1.00046  -0.95652  -0.87187  -0.81359  -0.77739
 Alpha  occ. eigenvalues --   -0.72282  -0.68998  -0.67331  -0.64068  -0.62064
 Alpha  occ. eigenvalues --   -0.61089  -0.60214  -0.59297  -0.57976  -0.55070
 Alpha  occ. eigenvalues --   -0.54140  -0.53435  -0.52482  -0.51974  -0.51268
 Alpha  occ. eigenvalues --   -0.44500  -0.43738  -0.39322  -0.38205
 Alpha virt. eigenvalues --    0.02630   0.04086   0.04207   0.04645   0.05789
 Alpha virt. eigenvalues --    0.05986   0.06410   0.06966   0.07098   0.08136
 Alpha virt. eigenvalues --    0.09240   0.09943   0.11240   0.11990   0.12108

 Mulliken atomic charges:
              1
     1  H    0.048406
     2  C    0.421868
     3  H   -0.148610
     4  H    0.057427
     5  C    0.567795
     6  O   -0.917982
     7  N   -0.391489
     8  H   -0.079325
     9  C   -0.185179
    10  H   -0.198054
    11  C    0.756868
    12  H   -0.005464
    13  H   -0.047616
    14  H   -0.016814
    15  C    1.153944
    16  O   -0.827833
    17  N   -0.502173
    18  H   -0.070284
    19  C    0.750850
    20  H   -0.149289
    21  H   -0.095145
    22  H   -0.121900
 Sum of Mulliken atomic charges =   0.00000

 Dipole moment (field-independent basis, Debye):
    X=              3.2465    Y=              0.4588    Z=             -0.8811  Tot=              3.3951
 Quadrupole moment (field-independent basis, Debye-Ang):
   XX=            -62.0738   YY=            -59.2720   ZZ=            -62.8208
   XY=              8.4441   XZ=             -9.6565   YZ=              3.9939

 Normal termination of Gaussian 09 at Mon Feb 13 12:38:51 2017.
