 Gaussian 09, Revision A.02,
 Gaussian 09:  EM64L-G09RevA.02 11-Jun-2009

 -------------------
 #SP MP2/aug-cc-pVDZ
 -------------------

 -------------------------------
 Single Point calculation at MP2
 -------------------------------
 Symbolic Z-matrix:
 Charge =  0 Multiplicity = 1

                         Standard orientation:
 ---------------------------------------------------------------------
 Center     Atomic      Atomic             Coordinates (Angstroms)
 Number     Number       Type             X           Y           Z
 ---------------------------------------------------------------------
      1          1           0        3.990519   -1.017459   -0.633206
      2          6           0        2.943919   -1.081366   -0.938406
      3          1           0        2.642127   -2.133669   -0.878406
      4          1           0        2.847817   -0.751667   -1.978306
      5          6           0        2.102013   -0.265172    0.032694
      6          8           0        2.366013   -0.186870    1.221394
      7          7           0        1.034909    0.395420   -0.544106
      8          1           0        0.803011    0.144318   -1.496906
      9          6           0       -0.037695    0.982313    0.259594
     10          1           0        0.395503    1.142916    1.248194
     11          6           0       -0.499105    2.317209   -0.335406
     12          1           0       -0.838204    2.219507   -1.375806
     13          1           0       -1.323208    2.740403    0.248894
     14          1           0        0.330890    3.029915   -0.333006
     15          6           0       -1.173488   -0.042695    0.491694
     16          8           0       -1.294784   -0.641296    1.549594
     17          7           0       -1.984387   -0.272701   -0.592106
     18          1           0       -1.938991    0.366599   -1.372606
     19          6           0       -3.110780   -1.189809   -0.531306
     20          1           0       -2.956775   -1.840808    0.330094
     21          1           0       -4.064484   -0.661116   -0.404106
     22          1           0       -3.160876   -1.795509   -1.442406
 ---------------------------------------------------------------------

 SCF Done:  E(RHF) =  -492.915958801     A.U. after   14 cycles
 E2 =    -0.1601275272D+01 EUMP2 =    -0.49451723407341D+03

 The electronic state is 1-A.
 Alpha  occ. eigenvalues --  -20.53367 -20.53141 -15.60172 -15.59988 -11.36432
 Alpha  occ. eigenvalues --  -11.36029 -11.29190 -11.27187 -11.25142 -11.24892
 Alpha  occ. eigenvalues --   -1.38971  -1.38292  -1.24677  -1.22948  -1.05941
 Alpha  occ. eigenvalues --   -0.99507  -0.95910  -0.88702  -0.80053  -0.79132
 Alpha  occ. eigenvalues --   -0.72831  -0.67596  -0.66036  -0.64449  -0.62792
 Alpha  occ. eigenvalues --   -0.61560  -0.59547  -0.58777  -0.57933  -0.56829
 Alpha  occ. eigenvalues --   -0.55270  -0.54670  -0.52043  -0.51552  -0.51459
 Alpha  occ. eigenvalues --   -0.44586  -0.42418  -0.39898  -0.38549
 Alpha virt. eigenvalues --    0.02092   0.03630   0.03814   0.04591   0.05452
 Alpha virt. eigenvalues --    0.05888   0.06331   0.06506   0.07389   0.07702
 Alpha virt. eigenvalues --    0.08713   0.09411   0.10989   0.11693   0.12411

 Mulliken atomic charges:
              1
     1  H   -0.002198
     2  C    0.345347
     3  H    0.061539
     4  H   -0.116715
     5  C    0.710294
     6  O   -0.823454
     7  N   -0.347404
     8  H   -0.081013
     9  C   -0.030998
    10  H   -0.163044
    11  C    0.805070
    12  H   -0.120353
    13  H   -0.017639
    14  H   -0.064513
    15  C    0.941648
    16  O   -0.815220
    17  N   -0.553903
    18  H   -0.096041
    19  C    0.722599
    20  H   -0.134818
    21  H   -0.082828
    22  H   -0.136356
 Sum of Mulliken atomic charges =   0.00000

 Dipole moment (field-independent basis, Debye):
    X=             -1.8975    Y=              1.3848    Z=             -6.8621  Tot=              7.2531
 Quadrupole moment (field-independent basis, Debye-Ang):
   XX=            -59.4738   YY=            -57.9878   ZZ=            -66.6789
   XY=             -2.6219   XZ=             -2.4710   YZ=              3.9570

 Normal termination of Gaussian 09 at Mon Feb 13 11:22:29 2017.
