 Gaussian 09, Revision A.02,
 Gaussian 09:  EM64L-G09RevA.02 11-Jun-2009

 -------------------
 #SP MP2/aug-cc-pVDZ
 -------------------

 -------------------------------
 Single Point calculation at MP2
 -------------------------------
 Symbolic Z-matrix:
 Charge =  0 Multiplicity = 1

                         Standard orientation:
 ---------------------------------------------------------------------
 Center     Atomic      Atomic             Coordinates (Angstroms)
 Number     Number       Type             X           Y           Z
 ---------------------------------------------------------------------
      1          1           0       -4.028809   -0.898380    0.174514
      2          6           0       -3.124108   -0.797485    0.780614
      3          1           0       -2.944114   -1.764386    1.262414
      4          1           0       -3.292704   -0.041584    1.553614
      5          6           0       -1.955707   -0.479092   -0.138386
      6          8           0       -1.716810   -1.144693   -1.140686
      7          7           0       -1.206500    0.615304    0.215614
      8          1           0       -1.279898    0.964905    1.162814
      9          6           0        0.040201    0.918697   -0.480886
     10          1           0       -0.083601    0.531198   -1.494286
     11          6           0        0.290310    2.428696   -0.509886
     12          1           0        0.434012    2.808595    0.506814
     13          1           0        1.195711    2.655691   -1.082986
     14          1           0       -0.556387    2.945501   -0.971886
     15          6           0        1.199197    0.207991    0.243114
     16          8           0        1.467799    0.477489    1.410114
     17          7           0        1.896592   -0.685213   -0.513086
     18          1           0        1.476291   -0.982111   -1.383586
     19          6           0        2.967688   -1.496519    0.042514
     20          1           0        3.344391   -0.986821    0.930214
     21          1           0        2.615382   -2.494317    0.334414
     22          1           0        3.775687   -1.605024   -0.687686
 ---------------------------------------------------------------------

 SCF Done:  E(RHF) =  -492.928257427     A.U. after   14 cycles
 E2 =    -0.1600421519D+01 EUMP2 =    -0.49452867894537D+03

 The electronic state is 1-A.
 Alpha  occ. eigenvalues --  -20.53493 -20.53238 -15.59923 -15.59817 -11.36746
 Alpha  occ. eigenvalues --  -11.35905 -11.29054 -11.26828 -11.24926 -11.23752
 Alpha  occ. eigenvalues --   -1.39115  -1.38280  -1.24221  -1.23293  -1.05646
 Alpha  occ. eigenvalues --   -0.99424  -0.96084  -0.87351  -0.80183  -0.78667
 Alpha  occ. eigenvalues --   -0.72963  -0.67820  -0.66366  -0.64187  -0.62150
 Alpha  occ. eigenvalues --   -0.61865  -0.60006  -0.58623  -0.57494  -0.56370
 Alpha  occ. eigenvalues --   -0.54749  -0.53706  -0.52056  -0.51593  -0.50998
 Alpha  occ. eigenvalues --   -0.43845  -0.42975  -0.39978  -0.38884
 Alpha virt. eigenvalues --    0.03201   0.03738   0.04285   0.05012   0.05674
 Alpha virt. eigenvalues --    0.05994   0.06138   0.07232   0.07302   0.07716
 Alpha virt. eigenvalues --    0.09045   0.09444   0.11295   0.11850   0.12463

 Mulliken atomic charges:
              1
     1  H    0.035563
     2  C    0.392532
     3  H    0.052156
     4  H   -0.146601
     5  C    0.617477
     6  O   -0.867632
     7  N   -0.286236
     8  H   -0.062584
     9  C   -0.221714
    10  H   -0.293667
    11  C    0.764440
    12  H   -0.022965
    13  H   -0.030914
    14  H   -0.025683
    15  C    1.199388
    16  O   -0.861930
    17  N   -0.543182
    18  H   -0.063736
    19  C    0.723763
    20  H   -0.132187
    21  H   -0.081246
    22  H   -0.145043
 Sum of Mulliken atomic charges =   0.00000

 Dipole moment (field-independent basis, Debye):
    X=             -0.3390    Y=              0.5042    Z=             -0.2951  Tot=              0.6754
 Quadrupole moment (field-independent basis, Debye-Ang):
   XX=            -55.8930   YY=            -60.1800   ZZ=            -65.4720
   XY=             -6.3599   XZ=            -11.8111   YZ=             -3.9782

 Normal termination of Gaussian 09 at Mon Feb 13 11:35:52 2017.
