 Gaussian 09, Revision A.02,
 Gaussian 09:  EM64L-G09RevA.02 11-Jun-2009

 -------------------
 #SP MP2/aug-cc-pVDZ
 -------------------

 -------------------------------
 Single Point calculation at MP2
 -------------------------------
 Symbolic Z-matrix:
 Charge =  0 Multiplicity = 1

                         Standard orientation:
 ---------------------------------------------------------------------
 Center     Atomic      Atomic             Coordinates (Angstroms)
 Number     Number       Type             X           Y           Z
 ---------------------------------------------------------------------
      1          1           0        3.457090   -1.820232   -0.257613
      2          6           0        3.226297   -0.787131   -0.529713
      3          1           0        3.122998   -0.715530   -1.617313
      4          1           0        4.075201   -0.168937   -0.217013
      5          6           0        1.985300   -0.345822    0.233087
      6          8           0        1.825698   -0.583421    1.419887
      7          7           0        1.045105    0.337085   -0.511213
      8          1           0        1.327407    0.667783   -1.425213
      9          6           0       -0.062190    1.042593    0.137987
     10          1           0        0.258112    1.309390    1.148987
     11          6           0       -0.431681    2.307395   -0.644813
     12          1           0       -0.741483    2.063298   -1.668613
     13          1           0       -1.267078    2.808801   -0.149613
     14          1           0        0.415824    3.000489   -0.687613
     15          6           0       -1.322196    0.175802    0.339187
     16          8           0       -2.133494    0.465607    1.208787
     17          7           0       -1.514003   -0.803297   -0.591713
     18          1           0       -0.703105   -1.068603   -1.134713
     19          6           0       -2.632010   -1.727089   -0.510413
     20          1           0       -3.403706   -1.257584    0.101287
     21          1           0       -3.031211   -1.928586   -1.510013
     22          1           0       -2.346516   -2.678791   -0.043413
 ---------------------------------------------------------------------

 SCF Done:  E(RHF) =  -492.923866353     A.U. after   14 cycles
 E2 =    -0.1601596696D+01 EUMP2 =    -0.49452546304927D+03

 The electronic state is 1-A.
 Alpha  occ. eigenvalues --  -20.54224 -20.52530 -15.60917 -15.59085 -11.37338
 Alpha  occ. eigenvalues --  -11.35341 -11.29200 -11.26469 -11.25825 -11.24750
 Alpha  occ. eigenvalues --   -1.39713  -1.37862  -1.25274  -1.22378  -1.06078
 Alpha  occ. eigenvalues --   -1.00133  -0.95696  -0.88059  -0.80932  -0.78094
 Alpha  occ. eigenvalues --   -0.72021  -0.68578  -0.67834  -0.62816  -0.62783
 Alpha  occ. eigenvalues --   -0.62026  -0.59471  -0.59367  -0.58209  -0.56105
 Alpha  occ. eigenvalues --   -0.54863  -0.54361  -0.53790  -0.51912  -0.49618
 Alpha  occ. eigenvalues --   -0.44163  -0.43428  -0.39602  -0.38973
 Alpha virt. eigenvalues --    0.02119   0.03623   0.03950   0.04563   0.05550
 Alpha virt. eigenvalues --    0.05837   0.06402   0.06592   0.07205   0.07943
 Alpha virt. eigenvalues --    0.08472   0.09300   0.11127   0.11771   0.11806

 Mulliken atomic charges:
              1
     1  H    0.029592
     2  C    0.356815
     3  H   -0.162336
     4  H    0.054942
     5  C    0.563889
     6  O   -0.838796
     7  N   -0.300010
     8  H   -0.038093
     9  C   -0.162859
    10  H   -0.092833
    11  C    0.761617
    12  H   -0.021340
    13  H   -0.053773
    14  H   -0.067167
    15  C    1.150112
    16  O   -0.895561
    17  N   -0.619857
    18  H   -0.051159
    19  C    0.734062
    20  H   -0.133214
    21  H   -0.137312
    22  H   -0.076721
 Sum of Mulliken atomic charges =   0.00000

 Dipole moment (field-independent basis, Debye):
    X=              2.6556    Y=             -0.0310    Z=             -6.3184  Tot=              6.8538
 Quadrupole moment (field-independent basis, Debye-Ang):
   XX=            -61.2475   YY=            -56.2665   ZZ=            -67.3345
   XY=              4.9416   XZ=             -1.2834   YZ=              1.4382

 Normal termination of Gaussian 09 at Mon Feb 13 12:19:26 2017.
