 Gaussian 09, Revision A.02,
 Gaussian 09:  EM64L-G09RevA.02 11-Jun-2009

 -------------------
 #SP MP2/aug-cc-pVDZ
 -------------------

 ------------------
 Phi Psi fixed scan
 ------------------
 Symbolic Z-matrix:
 Charge =  0 Multiplicity = 1

                         Standard orientation:
 ---------------------------------------------------------------------
 Center     Atomic      Atomic             Coordinates (Angstroms)
 Number     Number       Type             X           Y           Z
 ---------------------------------------------------------------------
      1          1           0       -5.759083   -3.195718    0.387898
      2          6           0       -5.080583   -2.861217   -0.403002
      3          1           0       -5.582683   -3.039018   -1.359102
      4          1           0       -4.165082   -3.459416   -0.363502
      5          6           0       -4.841385   -1.366517   -0.245502
      6          8           0       -5.760586   -0.552418   -0.271702
      7          7           0       -3.542586   -0.995415   -0.070202
      8          1           0       -2.778585   -1.659914   -0.105702
      9          6           0       -3.147188    0.394585    0.039198
     10          1           0       -3.746488    0.977085   -0.671602
     11          6           0       -3.382988    0.954685    1.456698
     12          1           0       -2.780188    0.407986    2.188598
     13          1           0       -3.116390    2.015885    1.517398
     14          1           0       -4.441688    0.845984    1.704698
     15          6           0       -1.660188    0.469387   -0.335502
     16          8           0       -0.939486   -0.525112   -0.310902
     17          7           0       -1.216289    1.704288   -0.700202
     18          1           0       -1.871890    2.468387   -0.596002
     19          6           0        0.198610    2.088390   -0.755002
     20          1           0        0.578910    1.868790   -1.762102
     21          6           0        0.326808    3.587890   -0.480302
     22          1           0        0.033108    3.799090    0.552198
     23          1           0        1.363608    3.910091   -0.616502
     24          1           0       -0.299593    4.167589   -1.168402
     25          6           0        1.037511    1.305791    0.282198
     26          8           0        0.841211    1.446891    1.485798
     27          7           0        2.032412    0.548092   -0.234702
     28          1           0        2.096213    0.356592   -1.228102
     29          6           0        2.880513   -0.282706    0.599498
     30          1           0        3.211613    0.322594    1.451598
     31          6           0        2.137915   -1.527007    1.127898
     32          1           0        1.818816   -2.160708    0.294898
     33          1           0        2.781316   -2.114907    1.792698
     34          1           0        1.253015   -1.205909    1.680698
     35          6           0        4.080914   -0.693805   -0.266302
     36          8           0        4.002814   -0.719805   -1.492202
     37          7           0        5.194214   -1.055703    0.425798
     38          1           0        5.176514   -0.986203    1.433498
     39          6           0        6.399415   -1.551702   -0.217302
     40          1           0        6.219415   -1.549902   -1.292902
     41          1           0        7.257714   -0.907101    0.004098
     42          1           0        6.629416   -2.573201    0.107398
 ---------------------------------------------------------------------

 SCF Done:  E(RHF) =  -984.694939028     A.U. after   15 cycles
 E2 =    -0.3195035466D+01 EUMP2 =    -0.98788997449425D+03

 The electronic state is 1-A.
 Alpha  occ. eigenvalues --  -20.54828 -20.54159 -20.53041 -20.52222 -15.60965
 Alpha  occ. eigenvalues --  -15.60651 -15.59043 -15.58791 -11.37367 -11.36962
 Alpha  occ. eigenvalues --  -11.36199 -11.35689 -11.30366 -11.29316 -11.29313
 Alpha  occ. eigenvalues --  -11.27624 -11.24832 -11.24139 -11.23289 -11.22981
 Alpha  occ. eigenvalues --   -1.40476  -1.39662  -1.38211  -1.37571  -1.25293
 Alpha  occ. eigenvalues --   -1.24416  -1.23843  -1.23387  -1.07454  -1.04695
 Alpha  occ. eigenvalues --   -1.02892  -0.98435  -0.96276  -0.91710  -0.89710
 Alpha  occ. eigenvalues --   -0.86443  -0.81999  -0.79905  -0.78549  -0.78331
 Alpha  occ. eigenvalues --   -0.73605  -0.72196  -0.69424  -0.67913  -0.66913
 Alpha  occ. eigenvalues --   -0.65784  -0.64756  -0.63888  -0.63125  -0.62762
 Alpha  occ. eigenvalues --   -0.61262  -0.61013  -0.60081  -0.59069  -0.58762
 Alpha  occ. eigenvalues --   -0.57668  -0.56529  -0.56138  -0.55825  -0.55523
 Alpha  occ. eigenvalues --   -0.54546  -0.54210  -0.54162  -0.52842  -0.52382
 Alpha  occ. eigenvalues --   -0.52361  -0.51858  -0.50161  -0.49024  -0.43905
 Alpha  occ. eigenvalues --   -0.43680  -0.43390  -0.41859  -0.40678  -0.40513
 Alpha  occ. eigenvalues --   -0.38731  -0.38697
 Alpha virt. eigenvalues --    0.02753   0.03140   0.03650   0.04277   0.04429
 Alpha virt. eigenvalues --    0.04796   0.05024   0.05675   0.06039   0.06182
 Alpha virt. eigenvalues --    0.06893   0.07132   0.07144   0.07397   0.08002

 Mulliken atomic charges:
              1
     1  H    0.035811
     2  C    0.376221
     3  H    0.045423
     4  H   -0.175865
     5  C    0.465063
     6  O   -0.880982
     7  N   -0.022616
     8  H   -0.097724
     9  C   -0.042409
    10  H   -0.173513
    11  C    0.903285
    12  H   -0.035327
    13  H   -0.066698
    14  H   -0.101143
    15  C    0.615803
    16  O   -0.912412
    17  N   -0.328320
    18  H   -0.016618
    19  C    0.163620
    20  H   -0.346842
    21  C    0.781215
    22  H    0.012902
    23  H   -0.104615
    24  H   -0.063695
    25  C    0.702257
    26  O   -0.967936
    27  N   -0.008580
    28  H   -0.102976
    29  C   -0.295778
    30  H   -0.244317
    31  C    0.889432
    32  H   -0.013758
    33  H   -0.103091
    34  H   -0.073215
    35  C    1.287336
    36  O   -0.901956
    37  N   -0.461782
    38  H   -0.124138
    39  C    0.713618
    40  H   -0.141747
    41  H   -0.088793
    42  H   -0.095140
 Sum of Mulliken atomic charges =   0.00000

 Dipole moment (field-independent basis, Debye):
    X=              4.4847    Y=              0.0561    Z=              0.7906  Tot=              4.5542
 Quadrupole moment (field-independent basis, Debye-Ang):
   XX=           -127.0046   YY=           -105.6686   ZZ=           -126.5877
   XY=             -1.7825   XZ=             10.5932   YZ=             -8.7727

 Normal termination of Gaussian 09 at Thu Jan 19 01:31:27 2017.
