 Gaussian 09, Revision A.02,
 Gaussian 09:  EM64L-G09RevA.02 11-Jun-2009

 -------------------
 #SP MP2/aug-cc-pVDZ
 -------------------

 ------------------
 Phi Psi fixed scan
 ------------------
 Symbolic Z-matrix:
 Charge =  0 Multiplicity = 1

                         Standard orientation:
 ---------------------------------------------------------------------
 Center     Atomic      Atomic             Coordinates (Angstroms)
 Number     Number       Type             X           Y           Z
 ---------------------------------------------------------------------
      1          1           0        5.779695    1.020323   -1.847402
      2          6           0        4.937393    1.545420   -1.386402
      3          1           0        4.214593    1.812918   -2.163302
      4          1           0        5.332191    2.461921   -0.936502
      5          6           0        4.355996    0.668719   -0.286602
      6          8           0        5.035697    0.264621    0.653098
      7          7           0        3.032596    0.371215   -0.412002
      8          1           0        2.493596    0.635814   -1.228202
      9          6           0        2.352699   -0.510287    0.515798
     10          1           0        3.038101   -1.327485    0.774698
     11          6           0        1.940197    0.215912    1.812998
     12          1           0        1.198995    0.994110    1.604898
     13          1           0        1.508699   -0.482889    2.539498
     14          1           0        2.830396    0.666015    2.259098
     15          6           0        1.121200   -1.064690   -0.218202
     16          8           0        0.690699   -0.539491   -1.241502
     17          7           0        0.537303   -2.146091    0.368598
     18          1           0        0.967404   -2.515890    1.206398
     19          6           0       -0.728895   -2.758795   -0.053202
     20          1           0       -0.532593   -3.472394   -0.861702
     21          6           0       -1.364193   -3.497296    1.129098
     22          1           0       -1.603295   -2.811797    1.948698
     23          1           0       -2.289492   -3.983999    0.807598
     24          1           0       -0.690191   -4.275395    1.508098
     25          6           0       -1.706698   -1.743797   -0.685702
     26          8           0       -2.208597   -1.948799   -1.781302
     27          7           0       -2.075801   -0.713598    0.132098
     28          1           0       -1.484201   -0.474997    0.923998
     29          6           0       -2.768804    0.439500   -0.416602
     30          1           0       -2.523704    0.505900   -1.484502
     31          6           0       -4.295203    0.308096   -0.268502
     32          1           0       -4.576403    0.241495    0.787598
     33          1           0       -4.822006    1.159294   -0.715002
     34          1           0       -4.620001   -0.602505   -0.778802
     35          6           0       -2.215907    1.681101    0.307998
     36          8           0       -1.492007    1.579103    1.298398
     37          7           0       -2.602010    2.873700   -0.213502
     38          1           0       -3.155910    2.869899   -1.058302
     39          6           0       -2.180314    4.152601    0.333798
     40          1           0       -1.625213    3.950103    1.250098
     41          1           0       -1.529715    4.689203   -0.366702
     42          1           0       -3.046715    4.781399    0.566998
 ---------------------------------------------------------------------

 SCF Done:  E(RHF) =  -984.692154896     A.U. after   15 cycles
 E2 =    -0.3197309867D+01 EUMP2 =    -0.98788946476256D+03

 The electronic state is 1-A.
 Alpha  occ. eigenvalues --  -20.54906 -20.54585 -20.53158 -20.52226 -15.61358
 Alpha  occ. eigenvalues --  -15.60817 -15.58744 -15.58405 -11.37562 -11.37300
 Alpha  occ. eigenvalues --  -11.36028 -11.35672 -11.30126 -11.29358 -11.29281
 Alpha  occ. eigenvalues --  -11.27813 -11.25371 -11.24139 -11.23903 -11.23093
 Alpha  occ. eigenvalues --   -1.40582  -1.39979  -1.38287  -1.37576  -1.25752
 Alpha  occ. eigenvalues --   -1.24661  -1.23463  -1.23189  -1.07597  -1.04682
 Alpha  occ. eigenvalues --   -1.02989  -0.98413  -0.96527  -0.91681  -0.89683
 Alpha  occ. eigenvalues --   -0.87113  -0.82231  -0.80263  -0.78373  -0.77990
 Alpha  occ. eigenvalues --   -0.73609  -0.72655  -0.69197  -0.67372  -0.66163
 Alpha  occ. eigenvalues --   -0.65955  -0.65361  -0.64491  -0.63121  -0.62733
 Alpha  occ. eigenvalues --   -0.62458  -0.60849  -0.59815  -0.58893  -0.57904
 Alpha  occ. eigenvalues --   -0.57522  -0.57086  -0.56571  -0.56067  -0.55928
 Alpha  occ. eigenvalues --   -0.55216  -0.54623  -0.54203  -0.53653  -0.52815
 Alpha  occ. eigenvalues --   -0.52244  -0.51763  -0.50095  -0.49030  -0.43935
 Alpha  occ. eigenvalues --   -0.43632  -0.42943  -0.41853  -0.41117  -0.40729
 Alpha  occ. eigenvalues --   -0.39098  -0.38675
 Alpha virt. eigenvalues --    0.02653   0.03006   0.03604   0.04209   0.04525
 Alpha virt. eigenvalues --    0.04826   0.04920   0.05716   0.06048   0.06538
 Alpha virt. eigenvalues --    0.06590   0.06935   0.07431   0.07576   0.07936

 Mulliken atomic charges:
              1
     1  H    0.041861
     2  C    0.389971
     3  H   -0.184146
     4  H    0.039380
     5  C    0.449090
     6  O   -0.876579
     7  N   -0.004548
     8  H   -0.101565
     9  C   -0.053295
    10  H   -0.159150
    11  C    0.998959
    12  H   -0.097233
    13  H   -0.106999
    14  H   -0.089248
    15  C    0.583704
    16  O   -0.915382
    17  N   -0.280206
    18  H   -0.085053
    19  C    0.314033
    20  H   -0.280305
    21  C    0.690354
    22  H   -0.053653
    23  H   -0.052749
    24  H   -0.101809
    25  C    1.038119
    26  O   -0.983261
    27  N   -0.422691
    28  H    0.012594
    29  C   -0.375166
    30  H   -0.159509
    31  C    0.929721
    32  H   -0.043717
    33  H   -0.113908
    34  H   -0.050252
    35  C    1.197144
    36  O   -0.898705
    37  N   -0.458992
    38  H   -0.128459
    39  C    0.753512
    40  H   -0.150908
    41  H   -0.085799
    42  H   -0.125158
 Sum of Mulliken atomic charges =   0.00000

 Dipole moment (field-independent basis, Debye):
    X=             -3.2548    Y=              1.8363    Z=              0.6809  Tot=              3.7986
 Quadrupole moment (field-independent basis, Debye-Ang):
   XX=           -133.8032   YY=           -100.7548   ZZ=           -129.0913
   XY=             -9.3953   XZ=            -11.7391   YZ=            -17.8132

 Normal termination of Gaussian 09 at Thu Jan 19 05:13:14 2017.
