 Gaussian 09, Revision A.02,
 Gaussian 09:  EM64L-G09RevA.02 11-Jun-2009

 -------------------
 #SP MP2/aug-cc-pVDZ
 -------------------

 ------------------
 Phi Psi fixed scan
 ------------------
 Symbolic Z-matrix:
 Charge =  0 Multiplicity = 1

                         Standard orientation:
 ---------------------------------------------------------------------
 Center     Atomic      Atomic             Coordinates (Angstroms)
 Number     Number       Type             X           Y           Z
 ---------------------------------------------------------------------
      1          1           0       -6.422598   -2.141812   -1.451006
      2          6           0       -5.750998   -2.285312   -0.598806
      3          1           0       -4.959597   -2.986211   -0.881906
      4          1           0       -6.342197   -2.724012    0.211094
      5          6           0       -5.232698   -0.926912   -0.148306
      6          8           0       -5.988999   -0.026712    0.207194
      7          7           0       -3.879098   -0.781411   -0.163606
      8          1           0       -3.260498   -1.501011   -0.519006
      9          6           0       -3.233599    0.469989    0.179894
     10          1           0       -3.832399    1.290089   -0.236606
     11          6           0       -3.120699    0.666089    1.705794
     12          1           0       -2.487799   -0.110710    2.144094
     13          1           0       -2.680899    1.639190    1.951894
     14          1           0       -4.122099    0.616989    2.140594
     15          6           0       -1.842999    0.451590   -0.465306
     16          8           0       -1.325498   -0.587310   -0.859606
     17          7           0       -1.243899    1.678590   -0.604506
     18          1           0       -1.722100    2.436190   -0.130806
     19          6           0        0.211900    1.821891   -0.642006
     20          1           0        0.545700    1.742391   -1.685206
     21          6           0        0.600400    3.200791   -0.095106
     22          1           0        0.330900    3.276491    0.964194
     23          1           0        1.678800    3.357792   -0.186606
     24          1           0        0.091399    3.995291   -0.652406
     25          6           0        0.918601    0.723491    0.185394
     26          8           0        0.467301    0.324591    1.254194
     27          7           0        2.147301    0.383692   -0.276506
     28          1           0        2.485301    0.674592   -1.187506
     29          6           0        2.986302   -0.586408    0.402294
     30          1           0        2.983701   -0.346808    1.472394
     31          6           0        2.474302   -2.028808    0.213094
     32          1           0        2.500502   -2.305108   -0.845906
     33          1           0        3.086703   -2.743008    0.775394
     34          1           0        1.443402   -2.090208    0.569494
     35          6           0        4.399301   -0.425607   -0.179706
     36          8           0        4.577701    0.077793   -1.286706
     37          7           0        5.402902   -0.909807    0.598494
     38          1           0        5.167602   -1.286707    1.505794
     39          6           0        6.796102   -0.911106    0.183594
     40          1           0        6.841102   -0.463506   -0.809706
     41          1           0        7.411701   -0.320806    0.871694
     42          1           0        7.193402   -1.931606    0.137394
 ---------------------------------------------------------------------

 SCF Done:  E(RHF) =  -984.693686545     A.U. after   15 cycles
 E2 =    -0.3195322501D+01 EUMP2 =    -0.98788900904696D+03

 The electronic state is 1-A.
 Alpha  occ. eigenvalues --  -20.54627 -20.54396 -20.53224 -20.51850 -15.61047
 Alpha  occ. eigenvalues --  -15.60298 -15.59502 -15.58367 -11.37426 -11.36797
 Alpha  occ. eigenvalues --  -11.36421 -11.35317 -11.30322 -11.29812 -11.28807
 Alpha  occ. eigenvalues --  -11.27937 -11.25343 -11.23833 -11.23596 -11.22668
 Alpha  occ. eigenvalues --   -1.40338  -1.39979  -1.38321  -1.37188  -1.24837
 Alpha  occ. eigenvalues --   -1.24822  -1.24205  -1.22976  -1.07488  -1.04745
 Alpha  occ. eigenvalues --   -1.02708  -0.98056  -0.96658  -0.91769  -0.89635
 Alpha  occ. eigenvalues --   -0.86596  -0.81648  -0.79987  -0.78956  -0.77837
 Alpha  occ. eigenvalues --   -0.73846  -0.71750  -0.69411  -0.67856  -0.67089
 Alpha  occ. eigenvalues --   -0.65359  -0.64684  -0.64235  -0.62849  -0.62682
 Alpha  occ. eigenvalues --   -0.61299  -0.61250  -0.60263  -0.59434  -0.58365
 Alpha  occ. eigenvalues --   -0.57222  -0.56433  -0.56339  -0.55930  -0.55773
 Alpha  occ. eigenvalues --   -0.55048  -0.54059  -0.53787  -0.53575  -0.52830
 Alpha  occ. eigenvalues --   -0.51992  -0.51632  -0.49924  -0.48476  -0.44222
 Alpha  occ. eigenvalues --   -0.43681  -0.43165  -0.41488  -0.41049  -0.40487
 Alpha  occ. eigenvalues --   -0.39180  -0.38388
 Alpha virt. eigenvalues --    0.02563   0.03231   0.03842   0.04072   0.04409
 Alpha virt. eigenvalues --    0.04819   0.05085   0.05739   0.06100   0.06143
 Alpha virt. eigenvalues --    0.06633   0.07076   0.07278   0.07506   0.07643

 Mulliken atomic charges:
              1
     1  H    0.044341
     2  C    0.389447
     3  H   -0.175461
     4  H    0.039353
     5  C    0.474531
     6  O   -0.877799
     7  N   -0.083142
     8  H   -0.101160
     9  C   -0.069153
    10  H   -0.165094
    11  C    0.919436
    12  H   -0.041795
    13  H   -0.061730
    14  H   -0.113424
    15  C    0.735635
    16  O   -0.940904
    17  N   -0.407241
    18  H    0.031488
    19  C    0.189748
    20  H   -0.307917
    21  C    0.757930
    22  H    0.017181
    23  H   -0.121852
    24  H   -0.056774
    25  C    0.746088
    26  O   -0.928047
    27  N   -0.180275
    28  H   -0.125274
    29  C   -0.290180
    30  H   -0.212131
    31  C    0.876742
    32  H   -0.028731
    33  H   -0.081811
    34  H   -0.066333
    35  C    1.316725
    36  O   -0.905250
    37  N   -0.466195
    38  H   -0.126949
    39  C    0.715680
    40  H   -0.141458
    41  H   -0.083387
    42  H   -0.094857
 Sum of Mulliken atomic charges =   0.00000

 Dipole moment (field-independent basis, Debye):
    X=              5.5464    Y=             -0.2228    Z=              1.1990  Tot=              5.6789
 Quadrupole moment (field-independent basis, Debye-Ang):
   XX=           -128.8664   YY=           -105.5433   ZZ=           -125.5298
   XY=             -0.3888   XZ=             17.4426   YZ=             -2.3887

 Normal termination of Gaussian 09 at Thu Jan 19 03:16:59 2017.
