 Gaussian 09, Revision A.02,
 Gaussian 09:  EM64L-G09RevA.02 11-Jun-2009

 -------------------------------------------------------------------
 # HF/6-31G* Opt=(ModRedundant, maxcycles=1000, calcfc) geom=nocrowd
 -------------------------------------------------------------------

 ------------------
 Phi Psi fixed scan
 ------------------
 Symbolic Z-matrix:
 Charge =  0 Multiplicity = 1

 SCF Done:  E(RHF) =  -984.526357919     A.U. after   15 cycles

  Exact polarizability:   0.000   0.000   0.000   0.000   0.000   0.000
 Approx polarizability: 134.035  -0.457 142.756   0.531 -10.441 111.625

 SCF Done:  E(RHF) =  -984.538515288     A.U. after   13 cycles
 SCF Done:  E(RHF) =  -984.549227793     A.U. after   16 cycles
 SCF Done:  E(RHF) =  -984.552426258     A.U. after   16 cycles
 SCF Done:  E(RHF) =  -984.533356728     A.U. after   14 cycles
 SCF Done:  E(RHF) =  -984.554760181     A.U. after   13 cycles
 SCF Done:  E(RHF) =  -984.556514103     A.U. after   13 cycles
 SCF Done:  E(RHF) =  -984.558180386     A.U. after   16 cycles
 SCF Done:  E(RHF) =  -984.559138839     A.U. after   16 cycles
 SCF Done:  E(RHF) =  -984.482579687     A.U. after   14 cycles
 SCF Done:  E(RHF) =  -984.560899133     A.U. after    9 cycles
 SCF Done:  E(RHF) =  -984.560899398     A.U. after    9 cycles
 SCF Done:  E(RHF) =  -984.560899931     A.U. after    9 cycles
 SCF Done:  E(RHF) =  -984.560900345     A.U. after    9 cycles
 SCF Done:  E(RHF) =  -984.560900604     A.U. after    9 cycles
 SCF Done:  E(RHF) =  -984.560900378     A.U. after    9 cycles
 SCF Done:  E(RHF) =  -984.560900563     A.U. after    9 cycles
 SCF Done:  E(RHF) =  -984.560900648     A.U. after    9 cycles
 SCF Done:  E(RHF) =  -984.560900656     A.U. after    8 cycles
 SCF Done:  E(RHF) =  -984.560900661     A.U. after    6 cycles
 Optimization completed on the basis of negligible forces.
    -- Stationary point found.

                         Standard orientation:
 ---------------------------------------------------------------------
 Center     Atomic      Atomic             Coordinates (Angstroms)
 Number     Number       Type             X           Y           Z
 ---------------------------------------------------------------------
      1          1           0        7.459486   -0.716117    0.952337
      2          6           0        6.521318   -1.066718    1.368026
      3          1           0        6.646681   -1.151385    2.439647
      4          1           0        6.296110   -2.041136    0.951991
      5          6           0        5.453372   -0.031352    1.086530
      6          8           0        5.457813    1.040643    1.634513
      7          7           0        4.520809   -0.381485    0.179440
      8          1           0        4.519800   -1.284236   -0.238993
      9          6           0        3.434346    0.493252   -0.189146
     10          1           0        3.080635    0.992141    0.704287
     11          6           0        3.868447    1.552054   -1.212034
     12          1           0        4.208400    1.075679   -2.125471
     13          1           0        3.052766    2.224068   -1.455891
     14          1           0        4.680103    2.133754   -0.795785
     15          6           0        2.319226   -0.382251   -0.764909
     16          8           0        2.559105   -1.485106   -1.186370
     17          7           0        1.116062    0.222086   -0.814587
     18          1           0        1.026819    1.083509   -0.319055
     19          6           0       -0.172765   -0.380141   -1.109722
     20          1           0       -0.394787   -0.272840   -2.168069
     21          6           0       -0.274655   -1.865352   -0.728837
     22          1           0       -0.092563   -1.998031    0.332165
     23          1           0       -1.262606   -2.247810   -0.954062
     24          1           0        0.449600   -2.446456   -1.273679
     25          6           0       -1.212278    0.446189   -0.333428
     26          8           0       -0.890021    1.392021    0.343042
     27          7           0       -2.488164    0.057667   -0.465062
     28          1           0       -2.744087   -0.724021   -1.025884
     29          6           0       -3.575937    0.731601    0.206548
     30          1           0       -3.251848    0.984658    1.208044
     31          6           0       -4.003571    2.012333   -0.522048
     32          1           0       -4.346219    1.778576   -1.524030
     33          1           0       -4.806082    2.514931    0.007390
     34          1           0       -3.160515    2.687284   -0.586587
     35          6           0       -4.738450   -0.256033    0.271524
     36          8           0       -4.821873   -1.172998   -0.504417
     37          7           0       -5.666514   -0.004228    1.209434
     38          1           0       -5.492726    0.705837    1.882266
     39          6           0       -6.832196   -0.849587    1.374256
     40          1           0       -7.313111   -1.005483    0.419481
     41          1           0       -6.567768   -1.815506    1.788343
     42          1           0       -7.524764   -0.356146    2.042289
 ---------------------------------------------------------------------

 The electronic state is 1-A.
 Alpha  occ. eigenvalues --  -20.54528 -20.54435 -20.53200 -20.50859 -15.60601
 Alpha  occ. eigenvalues --  -15.59724 -15.58629 -15.57275 -11.36501 -11.36493
 Alpha  occ. eigenvalues --  -11.35345 -11.33779 -11.29508 -11.29384 -11.27382
 Alpha  occ. eigenvalues --  -11.27267 -11.23497 -11.22518 -11.22367 -11.21642
 Alpha  occ. eigenvalues --   -1.41833  -1.41089  -1.39959  -1.37745  -1.25585
 Alpha  occ. eigenvalues --   -1.25357  -1.24455  -1.22879  -1.08017  -1.05226
 Alpha  occ. eigenvalues --   -1.02421  -0.98135  -0.97355  -0.92198  -0.90259
 Alpha  occ. eigenvalues --   -0.87292  -0.82158  -0.80357  -0.78525  -0.77449
 Alpha  occ. eigenvalues --   -0.76049  -0.71915  -0.69056  -0.68356  -0.66869
 Alpha  occ. eigenvalues --   -0.65919  -0.65473  -0.64809  -0.64290  -0.62516
 Alpha  occ. eigenvalues --   -0.61930  -0.61171  -0.60732  -0.59945  -0.59057
 Alpha  occ. eigenvalues --   -0.57522  -0.57109  -0.57024  -0.56271  -0.56167
 Alpha  occ. eigenvalues --   -0.55264  -0.54872  -0.54086  -0.53438  -0.53066
 Alpha  occ. eigenvalues --   -0.52239  -0.51874  -0.51039  -0.48868  -0.44239
 Alpha  occ. eigenvalues --   -0.43658  -0.42054  -0.41468  -0.40710  -0.40444
 Alpha  occ. eigenvalues --   -0.39412  -0.37543
 Alpha virt. eigenvalues --    0.17318   0.18880   0.19760   0.20273   0.21723
 Alpha virt. eigenvalues --    0.23166   0.24545   0.24930   0.25578   0.27115
 Alpha virt. eigenvalues --    0.28317   0.28379   0.28893   0.29913   0.30082

 Mulliken atomic charges:
              1
     1  H    0.201881
     2  C   -0.574617
     3  H    0.205465
     4  H    0.171368
     5  C    0.756872
     6  O   -0.623655
     7  N   -0.825984
     8  H    0.418590
     9  C   -0.033240
    10  H    0.220644
    11  C   -0.485221
    12  H    0.173004
    13  H    0.165129
    14  H    0.210076
    15  C    0.795456
    16  O   -0.641303
    17  N   -0.861386
    18  H    0.431008
    19  C    0.003021
    20  H    0.208542
    21  C   -0.515841
    22  H    0.176716
    23  H    0.164505
    24  H    0.242053
    25  C    0.790363
    26  O   -0.646029
    27  N   -0.842790
    28  H    0.432032
    29  C   -0.033021
    30  H    0.215731
    31  C   -0.486921
    32  H    0.181607
    33  H    0.163631
    34  H    0.210786
    35  C    0.779091
    36  O   -0.630796
    37  N   -0.799708
    38  H    0.391368
    39  C   -0.274153
    40  H    0.204553
    41  H    0.186778
    42  H    0.174398
 Sum of Mulliken atomic charges =   0.00000

 Dipole moment (field-independent basis, Debye):
    X=             -5.6598    Y=             -0.2908    Z=              0.4786  Tot=              5.6875
 Quadrupole moment (field-independent basis, Debye-Ang):
   XX=           -104.2927   YY=           -126.9875   ZZ=           -120.2768
   XY=            -19.1001   XZ=            -20.7553   YZ=             -8.9856

 Normal termination of Gaussian 09 at Mon Dec 26 17:10:45 2016.
