 Gaussian 09, Revision A.02,
 Gaussian 09:  EM64L-G09RevA.02 11-Jun-2009

 -------------------------------------------------------------------
 # HF/6-31G* Opt=(ModRedundant, maxcycles=1000, calcfc) geom=nocrowd
 -------------------------------------------------------------------

 ------------------
 Phi Psi fixed scan
 ------------------
 Symbolic Z-matrix:
 Charge =  0 Multiplicity = 1

 SCF Done:  E(RHF) =  -984.521119715     A.U. after   15 cycles

  Exact polarizability:   0.000   0.000   0.000   0.000   0.000   0.000
 Approx polarizability: 132.382  -4.583 127.502  11.239   1.628 128.937

 SCF Done:  E(RHF) =  -984.533823196     A.U. after   16 cycles
 SCF Done:  E(RHF) =  -984.546494303     A.U. after   15 cycles
 SCF Done:  E(RHF) =  -984.548705533     A.U. after   16 cycles
 SCF Done:  E(RHF) =  -984.531150971     A.U. after   14 cycles
 SCF Done:  E(RHF) =  -984.550670799     A.U. after   14 cycles
 SCF Done:  E(RHF) =  -984.551883123     A.U. after   13 cycles
 SCF Done:  E(RHF) =  -984.552988167     A.U. after   13 cycles
 SCF Done:  E(RHF) =  -984.553733247     A.U. after   12 cycles
 SCF Done:  E(RHF) =  -984.554221276     A.U. after   12 cycles
 SCF Done:  E(RHF) =  -984.555547347     A.U. after   11 cycles
 SCF Done:  E(RHF) =  -984.555542753     A.U. after   11 cycles
 SCF Done:  E(RHF) =  -984.555556519     A.U. after   11 cycles
 SCF Done:  E(RHF) =  -984.555555200     A.U. after   10 cycles
 SCF Done:  E(RHF) =  -984.555557827     A.U. after   10 cycles
 SCF Done:  E(RHF) =  -984.555558216     A.U. after    8 cycles
 SCF Done:  E(RHF) =  -984.555558229     A.U. after    9 cycles
 SCF Done:  E(RHF) =  -984.555558280     A.U. after    7 cycles
 SCF Done:  E(RHF) =  -984.555558292     A.U. after    6 cycles
 SCF Done:  E(RHF) =  -984.555558300     A.U. after    6 cycles
 Optimization completed.
    -- Stationary point found.

                         Standard orientation:
 ---------------------------------------------------------------------
 Center     Atomic      Atomic             Coordinates (Angstroms)
 Number     Number       Type             X           Y           Z
 ---------------------------------------------------------------------
      1          1           0       -4.638475    2.934766   -1.722778
      2          6           0       -5.177820    2.156285   -1.193722
      3          1           0       -5.467567    1.390936   -1.903511
      4          1           0       -6.062084    2.601166   -0.757787
      5          6           0       -4.297355    1.632470   -0.080131
      6          8           0       -4.126787    2.252882    0.936998
      7          7           0       -3.701498    0.445120   -0.313386
      8          1           0       -3.838988   -0.043814   -1.169163
      9          6           0       -2.776616   -0.145117    0.621820
     10          1           0       -2.165463    0.645014    1.039380
     11          6           0       -3.499245   -0.875741    1.762678
     12          1           0       -4.107786   -1.681801    1.367538
     13          1           0       -2.797203   -1.292877    2.478101
     14          1           0       -4.138375   -0.174416    2.282019
     15          6           0       -1.897855   -1.124082   -0.157529
     16          8           0       -2.280396   -1.608829   -1.188578
     17          7           0       -0.708871   -1.388161    0.430543
     18          1           0       -0.564996   -0.963747    1.320056
     19          6           0        0.295533   -2.384917    0.061312
     20          1           0        0.154598   -3.272312    0.665564
     21          6           0        0.304258   -2.789979   -1.415395
     22          1           0        0.376724   -1.931701   -2.070257
     23          1           0        1.166100   -3.427832   -1.581992
     24          1           0       -0.588939   -3.334377   -1.675305
     25          6           0        1.675655   -1.853954    0.463677
     26          8           0        2.379408   -2.475400    1.216409
     27          7           0        2.051263   -0.696359   -0.107407
     28          1           0        1.417293   -0.173460   -0.671153
     29          6           0        3.323712   -0.074580    0.172293
     30          1           0        3.550469   -0.217134    1.221976
     31          6           0        4.454982   -0.681685   -0.667911
     32          1           0        4.257405   -0.538218   -1.724468
     33          1           0        5.410871   -0.226349   -0.431027
     34          1           0        4.521121   -1.742250   -0.463692
     35          6           0        3.176734    1.416336   -0.122445
     36          8           0        2.302579    1.831460   -0.838243
     37          7           0        4.103650    2.214436    0.434971
     38          1           0        4.744074    1.828612    1.089075
     39          6           0        4.094621    3.649079    0.230481
     40          1           0        4.029673    3.872923   -0.824642
     41          1           0        3.256340    4.116835    0.733177
     42          1           0        5.015350    4.059171    0.622395
 ---------------------------------------------------------------------

 The electronic state is 1-A.
 Alpha  occ. eigenvalues --  -20.54087 -20.54056 -20.53328 -20.51449 -15.60504
 Alpha  occ. eigenvalues --  -15.60168 -15.58851 -15.57875 -11.36356 -11.36040
 Alpha  occ. eigenvalues --  -11.35287 -11.34303 -11.28983 -11.28961 -11.28226
 Alpha  occ. eigenvalues --  -11.26915 -11.23079 -11.22727 -11.22528 -11.22473
 Alpha  occ. eigenvalues --   -1.41204  -1.41014  -1.39937  -1.38346  -1.26053
 Alpha  occ. eigenvalues --   -1.24944  -1.24120  -1.23477  -1.07844  -1.05245
 Alpha  occ. eigenvalues --   -1.02929  -0.98673  -0.96948  -0.92170  -0.90082
 Alpha  occ. eigenvalues --   -0.87582  -0.81419  -0.79590  -0.79214  -0.78391
 Alpha  occ. eigenvalues --   -0.75648  -0.73029  -0.68911  -0.67833  -0.66796
 Alpha  occ. eigenvalues --   -0.66149  -0.65260  -0.64896  -0.63654  -0.63135
 Alpha  occ. eigenvalues --   -0.62596  -0.61126  -0.60327  -0.59688  -0.58612
 Alpha  occ. eigenvalues --   -0.57929  -0.57344  -0.56692  -0.56656  -0.55800
 Alpha  occ. eigenvalues --   -0.54972  -0.54634  -0.54173  -0.53730  -0.53175
 Alpha  occ. eigenvalues --   -0.52780  -0.52316  -0.50845  -0.49519  -0.44125
 Alpha  occ. eigenvalues --   -0.43471  -0.42321  -0.41244  -0.40900  -0.40249
 Alpha  occ. eigenvalues --   -0.38951  -0.38293
 Alpha virt. eigenvalues --    0.17756   0.18518   0.19546   0.20569   0.21081
 Alpha virt. eigenvalues --    0.21619   0.24068   0.24849   0.25721   0.27555
 Alpha virt. eigenvalues --    0.27754   0.28293   0.29132   0.29511   0.30271

 Mulliken atomic charges:
              1
     1  H    0.204417
     2  C   -0.575744
     3  H    0.172994
     4  H    0.207300
     5  C    0.756770
     6  O   -0.622532
     7  N   -0.823191
     8  H    0.419026
     9  C   -0.036457
    10  H    0.219767
    11  C   -0.488278
    12  H    0.179333
    13  H    0.155878
    14  H    0.215182
    15  C    0.797613
    16  O   -0.627527
    17  N   -0.857851
    18  H    0.396428
    19  C   -0.004534
    20  H    0.220316
    21  C   -0.491769
    22  H    0.179640
    23  H    0.175692
    24  H    0.217847
    25  C    0.740170
    26  O   -0.620058
    27  N   -0.812887
    28  H    0.429944
    29  C   -0.035277
    30  H    0.212347
    31  C   -0.483546
    32  H    0.181492
    33  H    0.160066
    34  H    0.209084
    35  C    0.775054
    36  O   -0.627675
    37  N   -0.799820
    38  H    0.390449
    39  C   -0.272945
    40  H    0.203065
    41  H    0.187451
    42  H    0.172764
 Sum of Mulliken atomic charges =   0.00000

 Dipole moment (field-independent basis, Debye):
    X=              3.3662    Y=              0.7836    Z=              0.0668  Tot=              3.4568
 Quadrupole moment (field-independent basis, Debye-Ang):
   XX=           -102.1380   YY=           -128.6151   ZZ=           -122.6215
   XY=             18.9389   XZ=              8.8509   YZ=              0.4373

 Normal termination of Gaussian 09 at Mon Dec 26 21:13:37 2016.
