 Gaussian 09, Revision A.02,
 Gaussian 09:  EM64L-G09RevA.02 11-Jun-2009

 -------------------------------------------------------------------
 # HF/6-31G* Opt=(ModRedundant, maxcycles=1000, calcfc) geom=nocrowd
 -------------------------------------------------------------------

 ------------------
 Phi Psi fixed scan
 ------------------
 Symbolic Z-matrix:
 Charge =  0 Multiplicity = 1

 SCF Done:  E(RHF) =  -984.525848829     A.U. after   14 cycles

  Exact polarizability:   0.000   0.000   0.000   0.000   0.000   0.000
 Approx polarizability: 134.291   1.638 137.175  -1.056   9.767 117.002

 SCF Done:  E(RHF) =  -984.537801835     A.U. after   13 cycles
 SCF Done:  E(RHF) =  -984.549845074     A.U. after   16 cycles
 SCF Done:  E(RHF) =  -984.551747149     A.U. after   13 cycles
 SCF Done:  E(RHF) =  -984.555377925     A.U. after   13 cycles
 SCF Done:  E(RHF) =  -984.558156385     A.U. after   14 cycles
 SCF Done:  E(RHF) =  -984.556976939     A.U. after   14 cycles
 SCF Done:  E(RHF) =  -984.558060272     A.U. after   15 cycles
 SCF Done:  E(RHF) =  -984.559249832     A.U. after   12 cycles
 SCF Done:  E(RHF) =  -984.559782034     A.U. after   11 cycles
 SCF Done:  E(RHF) =  -984.560759966     A.U. after   11 cycles
 SCF Done:  E(RHF) =  -984.560766031     A.U. after   11 cycles
 SCF Done:  E(RHF) =  -984.560770449     A.U. after   11 cycles
 SCF Done:  E(RHF) =  -984.560774324     A.U. after   11 cycles
 SCF Done:  E(RHF) =  -984.560777890     A.U. after   11 cycles
 SCF Done:  E(RHF) =  -984.560779632     A.U. after   10 cycles
 SCF Done:  E(RHF) =  -984.560780345     A.U. after    9 cycles
 SCF Done:  E(RHF) =  -984.560780551     A.U. after    9 cycles
 SCF Done:  E(RHF) =  -984.560780652     A.U. after    8 cycles
 SCF Done:  E(RHF) =  -984.560780696     A.U. after    7 cycles
 Optimization completed.
    -- Stationary point found.

                         Standard orientation:
 ---------------------------------------------------------------------
 Center     Atomic      Atomic             Coordinates (Angstroms)
 Number     Number       Type             X           Y           Z
 ---------------------------------------------------------------------
      1          1           0       -7.672673   -0.181199   -0.918436
      2          6           0       -6.728704   -0.658083   -1.147812
      3          1           0       -6.683459   -0.802441   -2.221610
      4          1           0       -6.684726   -1.625145   -0.661871
      5          6           0       -5.605054    0.270513   -0.739764
      6          8           0       -5.614828    1.437385   -1.035291
      7          7           0       -4.597672   -0.295975   -0.046568
      8          1           0       -4.592793   -1.270773    0.152983
      9          6           0       -3.425338    0.443665    0.352835
     10          1           0       -3.147512    1.107264   -0.456898
     11          6           0       -3.673811    1.278356    1.616850
     12          1           0       -3.932322    0.632541    2.449217
     13          1           0       -2.797154    1.856328    1.887845
     14          1           0       -4.493134    1.960405    1.433470
     15          6           0       -2.304181   -0.569198    0.589025
     16          8           0       -2.547649   -1.733978    0.766713
     17          7           0       -1.066761   -0.026845    0.662644
     18          1           0       -0.987878    0.893593    0.285775
     19          6           0        0.186214   -0.763216    0.581410
     20          1           0        0.506673   -1.040844    1.579448
     21          6           0        0.147653   -2.022047   -0.301834
     22          1           0       -0.184831   -1.766958   -1.301952
     23          1           0        1.144580   -2.444732   -0.369199
     24          1           0       -0.519332   -2.762272    0.107864
     25          6           0        1.210264    0.191822   -0.035622
     26          8           0        0.880547    1.051345   -0.814404
     27          7           0        2.479871   -0.000566    0.349486
     28          1           0        2.722854   -0.730605    0.983136
     29          6           0        3.584460    0.734043   -0.223533
     30          1           0        3.386695    0.879388   -1.278314
     31          6           0        3.769915    2.102554    0.444643
     32          1           0        3.982265    1.979990    1.500937
     33          1           0        4.586249    2.654569   -0.008993
     34          1           0        2.862120    2.680567    0.333489
     35          6           0        4.835909   -0.123155   -0.047452
     36          8           0        4.886040   -0.993730    0.782674
     37          7           0        5.872061    0.187155   -0.844006
     38          1           0        5.742520    0.853561   -1.569297
     39          6           0        7.128433   -0.532033   -0.773332
     40          1           0        7.482059   -0.563216    0.247324
     41          1           0        7.023739   -1.548954   -1.132291
     42          1           0        7.856117   -0.014952   -1.383550
 ---------------------------------------------------------------------

 The electronic state is 1-A.
 Alpha  occ. eigenvalues --  -20.54552 -20.54203 -20.53639 -20.50961 -15.60600
 Alpha  occ. eigenvalues --  -15.59784 -15.58845 -15.57380 -11.36516 -11.36282
 Alpha  occ. eigenvalues --  -11.35492 -11.33866 -11.29507 -11.29090 -11.27563
 Alpha  occ. eigenvalues --  -11.27288 -11.23519 -11.22425 -11.22397 -11.21737
 Alpha  occ. eigenvalues --   -1.41758  -1.41027  -1.40284  -1.37862  -1.25565
 Alpha  occ. eigenvalues --   -1.25360  -1.24555  -1.22998  -1.07971  -1.05307
 Alpha  occ. eigenvalues --   -1.02538  -0.98212  -0.97359  -0.92174  -0.90124
 Alpha  occ. eigenvalues --   -0.87173  -0.82022  -0.80181  -0.78725  -0.77689
 Alpha  occ. eigenvalues --   -0.76078  -0.71762  -0.69401  -0.68272  -0.66847
 Alpha  occ. eigenvalues --   -0.65795  -0.65511  -0.64596  -0.64171  -0.62275
 Alpha  occ. eigenvalues --   -0.62000  -0.61610  -0.60584  -0.60119  -0.59440
 Alpha  occ. eigenvalues --   -0.57767  -0.57142  -0.57039  -0.56206  -0.55799
 Alpha  occ. eigenvalues --   -0.55249  -0.54676  -0.54263  -0.53424  -0.53149
 Alpha  occ. eigenvalues --   -0.52191  -0.51881  -0.51155  -0.48914  -0.44116
 Alpha  occ. eigenvalues --   -0.43621  -0.42245  -0.41446  -0.40809  -0.40453
 Alpha  occ. eigenvalues --   -0.39784  -0.37721
 Alpha virt. eigenvalues --    0.17368   0.18774   0.19640   0.20192   0.21577
 Alpha virt. eigenvalues --    0.23158   0.24096   0.24544   0.25455   0.27233
 Alpha virt. eigenvalues --    0.27907   0.28560   0.29019   0.29989   0.30295

 Mulliken atomic charges:
              1
     1  H    0.205612
     2  C   -0.574754
     3  H    0.202616
     4  H    0.171557
     5  C    0.756891
     6  O   -0.622986
     7  N   -0.825679
     8  H    0.418881
     9  C   -0.034963
    10  H    0.220827
    11  C   -0.483562
    12  H    0.173208
    13  H    0.164730
    14  H    0.211264
    15  C    0.786051
    16  O   -0.633265
    17  N   -0.841692
    18  H    0.416395
    19  C    0.012463
    20  H    0.201743
    21  C   -0.517447
    22  H    0.182900
    23  H    0.169238
    24  H    0.236740
    25  C    0.762781
    26  O   -0.638238
    27  N   -0.828530
    28  H    0.427133
    29  C   -0.039459
    30  H    0.216197
    31  C   -0.483323
    32  H    0.182216
    33  H    0.162248
    34  H    0.209951
    35  C    0.778064
    36  O   -0.629471
    37  N   -0.799591
    38  H    0.391641
    39  C   -0.273117
    40  H    0.202901
    41  H    0.187686
    42  H    0.174144
 Sum of Mulliken atomic charges =   0.00000

 Dipole moment (field-independent basis, Debye):
    X=              5.8141    Y=             -0.3967    Z=             -0.7331  Tot=              5.8736
 Quadrupole moment (field-independent basis, Debye-Ang):
   XX=           -101.4378   YY=           -128.3063   ZZ=           -120.5461
   XY=             21.6942   XZ=            -17.2160   YZ=              8.0920

 Normal termination of Gaussian 09 at Mon Dec 26 16:22:15 2016.
