 Gaussian 09, Revision A.02,
 Gaussian 09:  EM64L-G09RevA.02 11-Jun-2009

 -------------------------------------------------------------------
 # HF/6-31G* Opt=(ModRedundant, maxcycles=1000, calcfc) geom=nocrowd
 -------------------------------------------------------------------

 ------------------
 Phi Psi fixed scan
 ------------------
 Symbolic Z-matrix:
 Charge =  0 Multiplicity = 1

 SCF Done:  E(RHF) =  -984.514747582     A.U. after   14 cycles

  Exact polarizability:   0.000   0.000   0.000   0.000   0.000   0.000
 Approx polarizability: 138.664  -1.017 141.047  -3.391  -4.415 109.026

 SCF Done:  E(RHF) =  -984.528964929     A.U. after   14 cycles
 SCF Done:  E(RHF) =  -984.544807506     A.U. after   14 cycles
 SCF Done:  E(RHF) =  -984.545655707     A.U. after   13 cycles
 SCF Done:  E(RHF) =  -984.546107522     A.U. after   13 cycles
 SCF Done:  E(RHF) =  -984.548042280     A.U. after   12 cycles
 SCF Done:  E(RHF) =  -984.549294920     A.U. after   12 cycles
 SCF Done:  E(RHF) =  -984.550647927     A.U. after   13 cycles
 SCF Done:  E(RHF) =  -984.552392372     A.U. after   13 cycles
 SCF Done:  E(RHF) =  -984.553676315     A.U. after   13 cycles
 SCF Done:  E(RHF) =  -984.554947236     A.U. after    8 cycles
 SCF Done:  E(RHF) =  -984.554947315     A.U. after    8 cycles
 SCF Done:  E(RHF) =  -984.554947390     A.U. after    8 cycles
 SCF Done:  E(RHF) =  -984.554947447     A.U. after    8 cycles
 SCF Done:  E(RHF) =  -984.554947477     A.U. after    7 cycles
 SCF Done:  E(RHF) =  -984.554947506     A.U. after    7 cycles
 SCF Done:  E(RHF) =  -984.554947540     A.U. after    8 cycles
 SCF Done:  E(RHF) =  -984.554947566     A.U. after    8 cycles
 SCF Done:  E(RHF) =  -984.554947579     A.U. after    7 cycles
 SCF Done:  E(RHF) =  -984.554947586     A.U. after    6 cycles
 Optimization completed on the basis of negligible forces.
    -- Stationary point found.

                         Standard orientation:
 ---------------------------------------------------------------------
 Center     Atomic      Atomic             Coordinates (Angstroms)
 Number     Number       Type             X           Y           Z
 ---------------------------------------------------------------------
      1          1           0        5.463569   -2.461479   -2.053206
      2          6           0        5.574850   -1.627510   -1.372468
      3          1           0        5.695373   -0.712309   -1.939046
      4          1           0        6.470081   -1.797906   -0.784958
      5          6           0        4.383765   -1.604493   -0.439203
      6          8           0        4.008852   -2.597074    0.128596
      7          7           0        3.786966   -0.406189   -0.275751
      8          1           0        4.104090    0.400706   -0.763900
      9          6           0        2.636722   -0.230565    0.575392
     10          1           0        1.973708   -1.074805    0.432743
     11          6           0        3.026364   -0.144869    2.058671
     12          1           0        3.677927    0.705376    2.229005
     13          1           0        2.154210   -0.044458    2.697718
     14          1           0        3.547763   -1.049967    2.338798
     15          6           0        1.937632    1.058307    0.139219
     16          8           0        2.537853    1.910025   -0.455403
     17          7           0        0.625765    1.119303    0.490747
     18          1           0        0.341414    0.389671    1.108105
     19          6           0       -0.252796    2.288806    0.531029
     20          1           0       -0.268648    2.683894    1.542527
     21          6           0        0.141128    3.422917   -0.419789
     22          1           0        0.215669    3.067994   -1.440211
     23          1           0       -0.629922    4.178235   -0.363748
     24          1           0        1.089693    3.854451   -0.144866
     25          6           0       -1.711379    1.902635    0.248594
     26          8           0       -2.566983    2.745501    0.325601
     27          7           0       -1.983337    0.606624    0.012253
     28          1           0       -1.255434   -0.029249   -0.224063
     29          6           0       -3.326375    0.145378   -0.253365
     30          1           0       -3.988634    0.623849    0.456181
     31          6           0       -3.793928    0.472805   -1.678007
     32          1           0       -3.145912   -0.003667   -2.405684
     33          1           0       -4.808728    0.126915   -1.844902
     34          1           0       -3.766723    1.543694   -1.828127
     35          6           0       -3.323395   -1.365191   -0.036458
     36          8           0       -2.316973   -2.011433   -0.175579
     37          7           0       -4.511388   -1.916627    0.264381
     38          1           0       -5.283305   -1.322657    0.460088
     39          6           0       -4.659629   -3.343285    0.470619
     40          1           0       -4.191376   -3.883520   -0.339293
     41          1           0       -4.206339   -3.660362    1.402632
     42          1           0       -5.714261   -3.581924    0.491659
 ---------------------------------------------------------------------

 The electronic state is 1-A.
 Alpha  occ. eigenvalues --  -20.54407 -20.54013 -20.52906 -20.51421 -15.60511
 Alpha  occ. eigenvalues --  -15.60217 -15.59142 -15.57948 -11.36583 -11.35995
 Alpha  occ. eigenvalues --  -11.35428 -11.34323 -11.29211 -11.28943 -11.28325
 Alpha  occ. eigenvalues --  -11.26932 -11.23014 -11.22769 -11.22708 -11.21569
 Alpha  occ. eigenvalues --   -1.41392  -1.41058  -1.39854  -1.38361  -1.26412
 Alpha  occ. eigenvalues --   -1.24959  -1.24046  -1.23519  -1.07537  -1.05243
 Alpha  occ. eigenvalues --   -1.02973  -0.98723  -0.97008  -0.92087  -0.90012
 Alpha  occ. eigenvalues --   -0.87289  -0.81507  -0.80158  -0.79039  -0.77947
 Alpha  occ. eigenvalues --   -0.75646  -0.72940  -0.68918  -0.67963  -0.67202
 Alpha  occ. eigenvalues --   -0.66783  -0.65250  -0.64833  -0.63710  -0.63024
 Alpha  occ. eigenvalues --   -0.61871  -0.61165  -0.60558  -0.59837  -0.59096
 Alpha  occ. eigenvalues --   -0.58041  -0.56789  -0.56681  -0.56645  -0.56008
 Alpha  occ. eigenvalues --   -0.54870  -0.54037  -0.53785  -0.53682  -0.52896
 Alpha  occ. eigenvalues --   -0.52482  -0.52327  -0.50247  -0.49554  -0.44361
 Alpha  occ. eigenvalues --   -0.43520  -0.42975  -0.41231  -0.40882  -0.39848
 Alpha  occ. eigenvalues --   -0.39343  -0.38404
 Alpha virt. eigenvalues --    0.17606   0.18262   0.19830   0.20300   0.20677
 Alpha virt. eigenvalues --    0.21535   0.24046   0.25618   0.26532   0.27153
 Alpha virt. eigenvalues --    0.28286   0.28852   0.29084   0.29463   0.30858

 Mulliken atomic charges:
              1
     1  H    0.208019
     2  C   -0.575159
     3  H    0.172506
     4  H    0.203097
     5  C    0.758004
     6  O   -0.620901
     7  N   -0.826363
     8  H    0.419461
     9  C   -0.040374
    10  H    0.226614
    11  C   -0.491395
    12  H    0.178485
    13  H    0.152800
    14  H    0.219400
    15  C    0.797739
    16  O   -0.617170
    17  N   -0.872130
    18  H    0.393271
    19  C   -0.002181
    20  H    0.212684
    21  C   -0.497671
    22  H    0.178868
    23  H    0.203878
    24  H    0.208215
    25  C    0.782522
    26  O   -0.631840
    27  N   -0.843436
    28  H    0.427670
    29  C   -0.035747
    30  H    0.213747
    31  C   -0.491685
    32  H    0.180904
    33  H    0.163654
    34  H    0.213744
    35  C    0.782178
    36  O   -0.631536
    37  N   -0.800283
    38  H    0.390407
    39  C   -0.274030
    40  H    0.205637
    41  H    0.185300
    42  H    0.173096
 Sum of Mulliken atomic charges =   0.00000

 Dipole moment (field-independent basis, Debye):
    X=             -3.3620    Y=             -0.3523    Z=              0.6834  Tot=              3.4488
 Quadrupole moment (field-independent basis, Debye-Ang):
   XX=            -94.0978   YY=           -142.1339   ZZ=           -114.7917
   XY=             20.5300   XZ=             -4.5359   YZ=              1.7140

 Normal termination of Gaussian 09 at Mon Dec 26 15:50:24 2016.
