 Gaussian 09, Revision A.02,
 Gaussian 09:  EM64L-G09RevA.02 11-Jun-2009

 -------------------------------------------------------------------
 # HF/6-31G* Opt=(ModRedundant, maxcycles=1000, calcfc) geom=nocrowd
 -------------------------------------------------------------------

 ------------------
 Phi Psi fixed scan
 ------------------
 Symbolic Z-matrix:
 Charge =  0 Multiplicity = 1

 SCF Done:  E(RHF) =  -984.522352086     A.U. after   15 cycles

  Exact polarizability:   0.000   0.000   0.000   0.000   0.000   0.000
 Approx polarizability: 134.098  -4.965 126.837   1.493  -6.472 127.924

 SCF Done:  E(RHF) =  -984.534313715     A.U. after   13 cycles
 SCF Done:  E(RHF) =  -984.546166519     A.U. after   15 cycles
 SCF Done:  E(RHF) =  -984.548394272     A.U. after   13 cycles
 SCF Done:  E(RHF) =  -984.551675069     A.U. after   13 cycles
 SCF Done:  E(RHF) =  -984.554171082     A.U. after   16 cycles
 SCF Done:  E(RHF) =  -984.551782853     A.U. after   15 cycles
 SCF Done:  E(RHF) =  -984.512474577     A.U. after   16 cycles
 SCF Done:  E(RHF) =  -984.523559187     A.U. after   13 cycles
 SCF Done:  E(RHF) =  -984.554493044     A.U. after   15 cycles
 SCF Done:  E(RHF) =  -984.556651748     A.U. after   11 cycles
 SCF Done:  E(RHF) =  -984.556660307     A.U. after   11 cycles
 SCF Done:  E(RHF) =  -984.556662560     A.U. after   10 cycles
 SCF Done:  E(RHF) =  -984.556663620     A.U. after    9 cycles
 SCF Done:  E(RHF) =  -984.556664808     A.U. after   10 cycles
 SCF Done:  E(RHF) =  -984.556665436     A.U. after    9 cycles
 SCF Done:  E(RHF) =  -984.556665938     A.U. after    9 cycles
 SCF Done:  E(RHF) =  -984.556666460     A.U. after    9 cycles
 SCF Done:  E(RHF) =  -984.556666781     A.U. after    9 cycles
 SCF Done:  E(RHF) =  -984.556666794     A.U. after    7 cycles
 Optimization completed.
    -- Stationary point found.

                         Standard orientation:
 ---------------------------------------------------------------------
 Center     Atomic      Atomic             Coordinates (Angstroms)
 Number     Number       Type             X           Y           Z
 ---------------------------------------------------------------------
      1          1           0        7.687007   -0.343602   -0.462332
      2          6           0        6.819567    0.233053   -0.754435
      3          1           0        6.857548    0.369237   -1.829894
      4          1           0        6.853049    1.205633   -0.278627
      5          6           0        5.574101   -0.556169   -0.412858
      6          8           0        5.494039   -1.736329   -0.635417
      7          7           0        4.563387    0.150534    0.132002
      8          1           0        4.636309    1.133419    0.269365
      9          6           0        3.285871   -0.445255    0.436877
     10          1           0        3.031868   -1.133741   -0.359953
     11          6           0        3.310141   -1.210631    1.767364
     12          1           0        3.542146   -0.536316    2.584681
     13          1           0        2.355081   -1.682685    1.970728
     14          1           0        4.070536   -1.978377    1.718296
     15          6           0        2.254240    0.682447    0.485228
     16          8           0        2.591330    1.827515    0.624974
     17          7           0        0.963968    0.266398    0.448581
     18          1           0        0.849449   -0.666042    0.116009
     19          6           0       -0.187684    1.125543    0.170307
     20          1           0       -0.571319    1.505186    1.110152
     21          6           0        0.078569    2.303443   -0.774906
     22          1           0        0.487655    1.946188   -1.711410
     23          1           0       -0.862402    2.804805   -0.982200
     24          1           0        0.760803    3.011936   -0.334927
     25          6           0       -1.230389    0.228942   -0.500539
     26          8           0       -0.971665   -0.364058   -1.517059
     27          7           0       -2.406647    0.120415    0.134088
     28          1           0       -2.595762    0.637879    0.964231
     29          6           0       -3.512645   -0.633770   -0.410132
     30          1           0       -3.520605   -0.498343   -1.484593
     31          6           0       -3.394460   -2.130722   -0.095493
     32          1           0       -3.394373   -2.291144    0.976973
     33          1           0       -4.217931   -2.689571   -0.527143
     34          1           0       -2.469564   -2.510888   -0.508669
     35          6           0       -4.792403   -0.058824    0.192634
     36          8           0       -4.772183    0.572015    1.217771
     37          7           0       -5.926316   -0.340884   -0.470742
     38          1           0       -5.868822   -0.778818   -1.360711
     39          6           0       -7.217016    0.129023   -0.008476
     40          1           0       -7.334341   -0.091375    1.042533
     41          1           0       -7.326146    1.197934   -0.150397
     42          1           0       -7.990461   -0.382191   -0.565185
 ---------------------------------------------------------------------

 The electronic state is 1-A.
 Alpha  occ. eigenvalues --  -20.54519 -20.53955 -20.53753 -20.51152 -15.60571
 Alpha  occ. eigenvalues --  -15.59841 -15.59442 -15.57546 -11.36492 -11.36001
 Alpha  occ. eigenvalues --  -11.35761 -11.34022 -11.29440 -11.29004 -11.27830
 Alpha  occ. eigenvalues --  -11.27253 -11.23534 -11.22528 -11.21983 -11.21879
 Alpha  occ. eigenvalues --   -1.41644  -1.40969  -1.40388  -1.38048  -1.25487
 Alpha  occ. eigenvalues --   -1.25327  -1.24738  -1.23178  -1.07783  -1.05420
 Alpha  occ. eigenvalues --   -1.02650  -0.98357  -0.97345  -0.92233  -0.90031
 Alpha  occ. eigenvalues --   -0.87076  -0.81826  -0.80064  -0.79028  -0.77999
 Alpha  occ. eigenvalues --   -0.76025  -0.71791  -0.69509  -0.68197  -0.67101
 Alpha  occ. eigenvalues --   -0.65793  -0.65422  -0.64797  -0.64022  -0.62120
 Alpha  occ. eigenvalues --   -0.61917  -0.61715  -0.60537  -0.60236  -0.59579
 Alpha  occ. eigenvalues --   -0.57967  -0.57138  -0.56965  -0.56341  -0.55490
 Alpha  occ. eigenvalues --   -0.55172  -0.54674  -0.54397  -0.53298  -0.52955
 Alpha  occ. eigenvalues --   -0.52270  -0.51721  -0.51350  -0.49099  -0.44077
 Alpha  occ. eigenvalues --   -0.43640  -0.42062  -0.41395  -0.40983  -0.40641
 Alpha  occ. eigenvalues --   -0.39805  -0.37930
 Alpha virt. eigenvalues --    0.17408   0.18626   0.19541   0.20252   0.21351
 Alpha virt. eigenvalues --    0.22803   0.23328   0.24465   0.25531   0.27205
 Alpha virt. eigenvalues --    0.27758   0.28536   0.29143   0.29731   0.30477

 Mulliken atomic charges:
              1
     1  H    0.206643
     2  C   -0.575477
     3  H    0.202893
     4  H    0.172462
     5  C    0.756227
     6  O   -0.622404
     7  N   -0.824493
     8  H    0.419139
     9  C   -0.035861
    10  H    0.219400
    11  C   -0.483168
    12  H    0.174853
    13  H    0.162544
    14  H    0.212119
    15  C    0.788327
    16  O   -0.627218
    17  N   -0.833584
    18  H    0.401022
    19  C    0.025226
    20  H    0.196553
    21  C   -0.517544
    22  H    0.192976
    23  H    0.163688
    24  H    0.229180
    25  C    0.742653
    26  O   -0.630583
    27  N   -0.822557
    28  H    0.428571
    29  C   -0.040160
    30  H    0.216557
    31  C   -0.484037
    32  H    0.182342
    33  H    0.163430
    34  H    0.208261
    35  C    0.777533
    36  O   -0.628864
    37  N   -0.799210
    38  H    0.391133
    39  C   -0.274157
    40  H    0.205380
    41  H    0.185876
    42  H    0.174329
 Sum of Mulliken atomic charges =   0.00000

 Dipole moment (field-independent basis, Debye):
    X=             -5.5745    Y=              0.3364    Z=             -0.5479  Tot=              5.6114
 Quadrupole moment (field-independent basis, Debye-Ang):
   XX=            -96.0805   YY=           -127.6625   ZZ=           -125.1203
   XY=             19.6212   XZ=             15.3851   YZ=             -6.1731

 Normal termination of Gaussian 09 at Mon Dec 26 15:58:23 2016.
