 Gaussian 09, Revision A.02,
 Gaussian 09:  EM64L-G09RevA.02 11-Jun-2009

 -------------------------------------------------------------------
 # HF/6-31G* Opt=(ModRedundant, maxcycles=1000, calcfc) geom=nocrowd
 -------------------------------------------------------------------

 ------------------
 Phi Psi fixed scan
 ------------------
 Symbolic Z-matrix:
 Charge =  0 Multiplicity = 1

 SCF Done:  E(RHF) =  -984.517696220     A.U. after   15 cycles

  Exact polarizability:   0.000   0.000   0.000   0.000   0.000   0.000
 Approx polarizability: 134.869  -3.130 137.883   6.462   2.681 116.057

 SCF Done:  E(RHF) =  -984.530600537     A.U. after   13 cycles
 SCF Done:  E(RHF) =  -984.542906444     A.U. after   13 cycles
 SCF Done:  E(RHF) =  -984.545647942     A.U. after   14 cycles
 SCF Done:  E(RHF) =  -984.528582645     A.U. after   14 cycles
 SCF Done:  E(RHF) =  -984.548158279     A.U. after   14 cycles
 SCF Done:  E(RHF) =  -984.549905433     A.U. after   13 cycles
 SCF Done:  E(RHF) =  -984.551513050     A.U. after   13 cycles
 SCF Done:  E(RHF) =  -984.552277575     A.U. after   13 cycles
 SCF Done:  E(RHF) =  -984.461418823     A.U. after   15 cycles
 SCF Done:  E(RHF) =  -984.553683850     A.U. after   11 cycles
 SCF Done:  E(RHF) =  -984.553701752     A.U. after   11 cycles
 SCF Done:  E(RHF) =  -984.553719473     A.U. after   11 cycles
 SCF Done:  E(RHF) =  -984.553728380     A.U. after   11 cycles
 SCF Done:  E(RHF) =  -984.553730143     A.U. after    9 cycles
 SCF Done:  E(RHF) =  -984.553730880     A.U. after   10 cycles
 SCF Done:  E(RHF) =  -984.553731141     A.U. after    9 cycles
 SCF Done:  E(RHF) =  -984.553731240     A.U. after    8 cycles
 SCF Done:  E(RHF) =  -984.553731279     A.U. after    8 cycles
 SCF Done:  E(RHF) =  -984.553731292     A.U. after    7 cycles
 Optimization completed.
    -- Stationary point found.

                         Standard orientation:
 ---------------------------------------------------------------------
 Center     Atomic      Atomic             Coordinates (Angstroms)
 Number     Number       Type             X           Y           Z
 ---------------------------------------------------------------------
      1          1           0       -6.968377   -1.638008    0.507093
      2          6           0       -6.316197   -0.834391    0.824900
      3          1           0       -6.453855   -0.700887    1.891713
      4          1           0       -6.596752    0.079242    0.315457
      5          6           0       -4.882316   -1.248124    0.573901
      6          8           0       -4.448974   -2.294650    0.982048
      7          7           0       -4.128635   -0.371849   -0.119440
      8          1           0       -4.497213    0.500595   -0.424762
      9          6           0       -2.732483   -0.607617   -0.392256
     10          1           0       -2.291328   -1.070620    0.481393
     11          6           0       -2.530009   -1.530196   -1.602328
     12          1           0       -2.951983   -1.078995   -2.493748
     13          1           0       -1.477945   -1.727432   -1.781096
     14          1           0       -3.027721   -2.472424   -1.415614
     15          6           0       -2.079873    0.753062   -0.644893
     16          8           0       -2.737774    1.694415   -0.999484
     17          7           0       -0.737358    0.757756   -0.494788
     18          1           0       -0.336832   -0.085174   -0.150243
     19          6           0        0.169740    1.910815   -0.552330
     20          1           0        0.558072    1.997282   -1.564413
     21          6           0       -0.452931    3.242116   -0.145752
     22          1           0       -0.892150    3.176266    0.840620
     23          1           0        0.329029    3.990037   -0.113427
     24          1           0       -1.211293    3.543982   -0.848915
     25          6           0        1.350612    1.581033    0.374776
     26          8           0        1.622694    2.235043    1.341645
     27          7           0        2.041160    0.468719    0.027864
     28          1           0        1.934343    0.068317   -0.880081
     29          6           0        3.225893    0.056148    0.747263
     30          1           0        3.766254    0.941514    1.061590
     31          6           0        2.874419   -0.777522    1.985601
     32          1           0        2.356530   -1.685353    1.695793
     33          1           0        3.762244   -1.052748    2.544626
     34          1           0        2.230951   -0.197902    2.634392
     35          6           0        4.092070   -0.742297   -0.225634
     36          8           0        3.648604   -1.161818   -1.263789
     37          7           0        5.357137   -0.963080    0.168140
     38          1           0        5.693224   -0.516577    0.989506
     39          6           0        6.292531   -1.703698   -0.654867
     40          1           0        5.853067   -2.641334   -0.963316
     41          1           0        6.570054   -1.145545   -1.541229
     42          1           0        7.180429   -1.904962   -0.071414
 ---------------------------------------------------------------------

 The electronic state is 1-A.
 Alpha  occ. eigenvalues --  -20.54680 -20.54197 -20.53755 -20.51294 -15.60612
 Alpha  occ. eigenvalues --  -15.60083 -15.59536 -15.57792 -11.36608 -11.36041
 Alpha  occ. eigenvalues --  -11.35985 -11.34217 -11.29425 -11.29190 -11.28045
 Alpha  occ. eigenvalues --  -11.27304 -11.23613 -11.22675 -11.22275 -11.20930
 Alpha  occ. eigenvalues --   -1.41793  -1.40983  -1.40552  -1.38209  -1.26213
 Alpha  occ. eigenvalues --   -1.25425  -1.24225  -1.23373  -1.07664  -1.05441
 Alpha  occ. eigenvalues --   -1.02759  -0.98536  -0.97363  -0.92457  -0.89843
 Alpha  occ. eigenvalues --   -0.86967  -0.81648  -0.80026  -0.79154  -0.78314
 Alpha  occ. eigenvalues --   -0.76008  -0.72055  -0.69674  -0.68257  -0.67723
 Alpha  occ. eigenvalues --   -0.66195  -0.65512  -0.65203  -0.64297  -0.62586
 Alpha  occ. eigenvalues --   -0.62349  -0.61216  -0.60829  -0.59819  -0.59015
 Alpha  occ. eigenvalues --   -0.57949  -0.57161  -0.56856  -0.56560  -0.55590
 Alpha  occ. eigenvalues --   -0.54762  -0.54632  -0.54335  -0.52998  -0.52809
 Alpha  occ. eigenvalues --   -0.52381  -0.51901  -0.51183  -0.49329  -0.44506
 Alpha  occ. eigenvalues --   -0.43979  -0.42467  -0.41461  -0.41132  -0.40036
 Alpha  occ. eigenvalues --   -0.39897  -0.38103
 Alpha virt. eigenvalues --    0.17234   0.18212   0.19665   0.20304   0.21145
 Alpha virt. eigenvalues --    0.21785   0.24137   0.25150   0.25488   0.27187
 Alpha virt. eigenvalues --    0.27345   0.28332   0.28773   0.29337   0.30442

 Mulliken atomic charges:
              1
     1  H    0.205531
     2  C   -0.574338
     3  H    0.204549
     4  H    0.172401
     5  C    0.757673
     6  O   -0.624409
     7  N   -0.824797
     8  H    0.419668
     9  C   -0.035851
    10  H    0.215311
    11  C   -0.485393
    12  H    0.178019
    13  H    0.159791
    14  H    0.212151
    15  C    0.800893
    16  O   -0.628217
    17  N   -0.862567
    18  H    0.402334
    19  C    0.009246
    20  H    0.196732
    21  C   -0.482299
    22  H    0.183408
    23  H    0.176291
    24  H    0.213762
    25  C    0.747085
    26  O   -0.600825
    27  N   -0.841944
    28  H    0.426760
    29  C   -0.036593
    30  H    0.217935
    31  C   -0.482895
    32  H    0.178748
    33  H    0.161046
    34  H    0.210869
    35  C    0.775942
    36  O   -0.631148
    37  N   -0.798884
    38  H    0.391988
    39  C   -0.273241
    40  H    0.204007
    41  H    0.186779
    42  H    0.174483
 Sum of Mulliken atomic charges =   0.00000

 Dipole moment (field-independent basis, Debye):
    X=              4.9427    Y=             -0.1756    Z=             -0.0468  Tot=              4.9461
 Quadrupole moment (field-independent basis, Debye-Ang):
   XX=            -86.1456   YY=           -137.3483   ZZ=           -125.6057
   XY=            -11.0627   XZ=              8.6636   YZ=             -1.7304

 Normal termination of Gaussian 09 at Mon Dec 26 17:22:49 2016.
