 Gaussian 09, Revision A.02,
 Gaussian 09:  EM64L-G09RevA.02 11-Jun-2009

 -------------------------------------------------------------------
 # HF/6-31G* Opt=(ModRedundant, maxcycles=1000, calcfc) geom=nocrowd
 -------------------------------------------------------------------

 ------------------
 Phi Psi fixed scan
 ------------------
 Symbolic Z-matrix:
 Charge =  0 Multiplicity = 1

 SCF Done:  E(RHF) =  -984.519084940     A.U. after   15 cycles

  Exact polarizability:   0.000   0.000   0.000   0.000   0.000   0.000
 Approx polarizability: 133.748  -4.948 130.597   5.518   0.334 124.596

 SCF Done:  E(RHF) =  -984.531581999     A.U. after   13 cycles
 SCF Done:  E(RHF) =  -984.543396521     A.U. after   13 cycles
 SCF Done:  E(RHF) =  -984.546474166     A.U. after   13 cycles
 SCF Done:  E(RHF) =  -984.549041005     A.U. after   13 cycles
 SCF Done:  E(RHF) =  -984.551968819     A.U. after   14 cycles
 SCF Done:  E(RHF) =  -984.552931340     A.U. after   16 cycles
 SCF Done:  E(RHF) =  -984.514616426     A.U. after   16 cycles
 SCF Done:  E(RHF) =  -984.552700811     A.U. after   15 cycles
 SCF Done:  E(RHF) =  -984.552977190     A.U. after   12 cycles
 SCF Done:  E(RHF) =  -984.553659151     A.U. after   12 cycles
 SCF Done:  E(RHF) =  -984.553671308     A.U. after   12 cycles
 SCF Done:  E(RHF) =  -984.553672922     A.U. after   16 cycles
 SCF Done:  E(RHF) =  -984.553673383     A.U. after   16 cycles
 SCF Done:  E(RHF) =  -984.553673865     A.U. after    8 cycles
 SCF Done:  E(RHF) =  -984.553674277     A.U. after    8 cycles
 SCF Done:  E(RHF) =  -984.553674621     A.U. after    9 cycles
 SCF Done:  E(RHF) =  -984.553675001     A.U. after    9 cycles
 SCF Done:  E(RHF) =  -984.553675576     A.U. after    9 cycles
 SCF Done:  E(RHF) =  -984.553675659     A.U. after    8 cycles
 Optimization completed.
    -- Stationary point found.

                         Standard orientation:
 ---------------------------------------------------------------------
 Center     Atomic      Atomic             Coordinates (Angstroms)
 Number     Number       Type             X           Y           Z
 ---------------------------------------------------------------------
      1          1           0        6.888348   -0.702819   -1.707870
      2          6           0        6.615701   -0.477392   -0.684859
      3          1           0        6.699666    0.589121   -0.516004
      4          1           0        7.314450   -0.993188   -0.036005
      5          6           0        5.227261   -1.020392   -0.425010
      6          8           0        4.932748   -2.154232   -0.702876
      7          7           0        4.356553   -0.163614    0.144643
      8          1           0        4.610824    0.777421    0.344686
      9          6           0        2.993967   -0.534343    0.436032
     10          1           0        2.627109   -1.143179   -0.380567
     11          6           0        2.880773   -1.329745    1.744175
     12          1           0        3.229165   -0.731818    2.579274
     13          1           0        1.856435   -1.630712    1.940077
     14          1           0        3.490092   -2.220564    1.670510
     15          6           0        2.179112    0.757090    0.528038
     16          8           0        2.711772    1.803802    0.785037
     17          7           0        0.851784    0.586948    0.352239
     18          1           0        0.554020   -0.339927    0.145950
     19          6           0       -0.197954    1.608599    0.343122
     20          1           0       -0.605093    1.699826    1.346096
     21          6           0        0.246109    2.986387   -0.141271
     22          1           0        0.687462    2.917849   -1.125303
     23          1           0       -0.629249    3.624039   -0.206674
     24          1           0        0.955857    3.429060    0.537549
     25          6           0       -1.287236    1.069955   -0.595582
     26          8           0       -1.266530    1.265917   -1.779939
     27          7           0       -2.231946    0.321212    0.006704
     28          1           0       -2.281783    0.253018    0.999750
     29          6           0       -3.342034   -0.248607   -0.721678
     30          1           0       -3.661712    0.466088   -1.470459
     31          6           0       -2.958182   -1.560913   -1.417420
     32          1           0       -2.650690   -2.299893   -0.685405
     33          1           0       -3.789685   -1.965446   -1.984466
     34          1           0       -2.138558   -1.376939   -2.099641
     35          6           0       -4.470502   -0.479242    0.281005
     36          8           0       -4.255889   -0.534330    1.464567
     37          7           0       -5.693237   -0.651627   -0.248266
     38          1           0       -5.824446   -0.498704   -1.221144
     39          6           0       -6.856985   -0.886887    0.582891
     40          1           0       -6.653986   -1.681006    1.286738
     41          1           0       -7.136087    0.001438    1.137323
     42          1           0       -7.681216   -1.180410   -0.052619
 ---------------------------------------------------------------------

 The electronic state is 1-A.
 Alpha  occ. eigenvalues --  -20.54566 -20.53666 -20.53624 -20.51249 -15.60574
 Alpha  occ. eigenvalues --  -15.60153 -15.59656 -15.57741 -11.36519 -11.35958
 Alpha  occ. eigenvalues --  -11.35755 -11.34164 -11.29384 -11.29163 -11.28009
 Alpha  occ. eigenvalues --  -11.27269 -11.23590 -11.22623 -11.22341 -11.21215
 Alpha  occ. eigenvalues --   -1.41634  -1.40805  -1.40288  -1.38159  -1.25778
 Alpha  occ. eigenvalues --   -1.25369  -1.24614  -1.23336  -1.07741  -1.05476
 Alpha  occ. eigenvalues --   -1.02748  -0.98519  -0.97354  -0.92413  -0.90016
 Alpha  occ. eigenvalues --   -0.87004  -0.81685  -0.79887  -0.79271  -0.78286
 Alpha  occ. eigenvalues --   -0.75893  -0.72037  -0.69863  -0.68240  -0.67451
 Alpha  occ. eigenvalues --   -0.66178  -0.65427  -0.64907  -0.64176  -0.62496
 Alpha  occ. eigenvalues --   -0.62084  -0.61385  -0.60787  -0.59864  -0.59275
 Alpha  occ. eigenvalues --   -0.57922  -0.57121  -0.56941  -0.56571  -0.55138
 Alpha  occ. eigenvalues --   -0.54791  -0.54629  -0.54375  -0.53253  -0.52822
 Alpha  occ. eigenvalues --   -0.52407  -0.51882  -0.51241  -0.49336  -0.44181
 Alpha  occ. eigenvalues --   -0.43856  -0.42267  -0.41328  -0.41088  -0.40178
 Alpha  occ. eigenvalues --   -0.39521  -0.38059
 Alpha virt. eigenvalues --    0.17380   0.18336   0.19812   0.20291   0.21081
 Alpha virt. eigenvalues --    0.21749   0.23883   0.24303   0.25508   0.27124
 Alpha virt. eigenvalues --    0.27666   0.28390   0.29090   0.29370   0.30395

 Mulliken atomic charges:
              1
     1  H    0.206915
     2  C   -0.574625
     3  H    0.172732
     4  H    0.202966
     5  C    0.758038
     6  O   -0.624284
     7  N   -0.824941
     8  H    0.419654
     9  C   -0.035003
    10  H    0.217736
    11  C   -0.486485
    12  H    0.178424
    13  H    0.155994
    14  H    0.213175
    15  C    0.803177
    16  O   -0.630464
    17  N   -0.850343
    18  H    0.396723
    19  C    0.021382
    20  H    0.188494
    21  C   -0.491566
    22  H    0.199678
    23  H    0.161989
    24  H    0.216343
    25  C    0.740004
    26  O   -0.609162
    27  N   -0.833809
    28  H    0.427069
    29  C   -0.033310
    30  H    0.217216
    31  C   -0.486595
    32  H    0.178677
    33  H    0.163711
    34  H    0.210444
    35  C    0.776572
    36  O   -0.630224
    37  N   -0.799234
    38  H    0.391529
    39  C   -0.273654
    40  H    0.204304
    41  H    0.186371
    42  H    0.174383
 Sum of Mulliken atomic charges =   0.00000

 Dipole moment (field-independent basis, Debye):
    X=             -5.2069    Y=             -0.0234    Z=              0.1292  Tot=              5.2086
 Quadrupole moment (field-independent basis, Debye-Ang):
   XX=            -88.9156   YY=           -131.7460   ZZ=           -127.9663
   XY=             12.2589   XZ=             13.0413   YZ=              0.8095

 Normal termination of Gaussian 09 at Mon Dec 26 17:52:38 2016.
