 Gaussian 09, Revision A.02,
 Gaussian 09:  EM64L-G09RevA.02 11-Jun-2009

 -------------------------------------------------------------------
 # HF/6-31G* Opt=(ModRedundant, maxcycles=1000, calcfc) geom=nocrowd
 -------------------------------------------------------------------

 ------------------
 Phi Psi fixed scan
 ------------------
 Symbolic Z-matrix:
 Charge =  0 Multiplicity = 1

 SCF Done:  E(RHF) =  -984.523378585     A.U. after   15 cycles

  Exact polarizability:   0.000   0.000   0.000   0.000   0.000   0.000
 Approx polarizability: 136.692  -3.201 135.333   9.583   4.544 116.964

 SCF Done:  E(RHF) =  -984.535795628     A.U. after   13 cycles
 SCF Done:  E(RHF) =  -984.548284447     A.U. after   13 cycles
 SCF Done:  E(RHF) =  -984.549614182     A.U. after   13 cycles
 SCF Done:  E(RHF) =  -984.534551226     A.U. after   14 cycles
 SCF Done:  E(RHF) =  -984.552267756     A.U. after   13 cycles
 SCF Done:  E(RHF) =  -984.553747156     A.U. after   13 cycles
 SCF Done:  E(RHF) =  -984.555459859     A.U. after   15 cycles
 SCF Done:  E(RHF) =  -984.556221921     A.U. after   13 cycles
 SCF Done:  E(RHF) =  -984.554694265     A.U. after   13 cycles
 SCF Done:  E(RHF) =  -984.557445035     A.U. after   10 cycles
 SCF Done:  E(RHF) =  -984.557451356     A.U. after   10 cycles
 SCF Done:  E(RHF) =  -984.557454868     A.U. after   10 cycles
 SCF Done:  E(RHF) =  -984.557457895     A.U. after   10 cycles
 SCF Done:  E(RHF) =  -984.557459703     A.U. after   10 cycles
 SCF Done:  E(RHF) =  -984.557460197     A.U. after    9 cycles
 SCF Done:  E(RHF) =  -984.557460307     A.U. after    8 cycles
 SCF Done:  E(RHF) =  -984.557460339     A.U. after    7 cycles
 SCF Done:  E(RHF) =  -984.557460350     A.U. after    7 cycles
 SCF Done:  E(RHF) =  -984.557460353     A.U. after    6 cycles
 Optimization completed.
    -- Stationary point found.

                         Standard orientation:
 ---------------------------------------------------------------------
 Center     Atomic      Atomic             Coordinates (Angstroms)
 Number     Number       Type             X           Y           Z
 ---------------------------------------------------------------------
      1          1           0       -4.864264    2.476408   -2.145194
      2          6           0       -5.314532    1.844836   -1.386829
      3          1           0       -5.661843    0.932269   -1.855999
      4          1           0       -6.155153    2.379244   -0.965238
      5          6           0       -4.295040    1.602941   -0.294998
      6          8           0       -4.019574    2.451440    0.512577
      7          7           0       -3.703178    0.390811   -0.303863
      8          1           0       -3.934437   -0.292925   -0.988846
      9          6           0       -2.661300    0.038713    0.628291
     10          1           0       -2.005981    0.892677    0.747166
     11          6           0       -3.226838   -0.354203    2.001064
     12          1           0       -3.873117   -1.220256    1.908277
     13          1           0       -2.436505   -0.588100    2.707813
     14          1           0       -3.801098    0.472964    2.395529
     15          6           0       -1.883353   -1.131799    0.025075
     16          8           0       -2.384729   -1.842378   -0.803144
     17          7           0       -0.631422   -1.278019    0.523525
     18          1           0       -0.401069   -0.663987    1.273685
     19          6           0        0.299333   -2.390291    0.347509
     20          1           0        0.203823   -3.078812    1.178784
     21          6           0        0.131152   -3.175090   -0.959215
     22          1           0        0.184203   -2.518797   -1.819330
     23          1           0        0.937056   -3.896600   -1.015554
     24          1           0       -0.813023   -3.693472   -0.988493
     25          6           0        1.746001   -1.893509    0.405253
     26          8           0        2.616484   -2.632186    0.786767
     27          7           0        1.975245   -0.639078   -0.015884
     28          1           0        1.234445   -0.073031   -0.366006
     29          6           0        3.302852   -0.075251   -0.073032
     30          1           0        3.841274   -0.393970    0.810512
     31          6           0        4.074107   -0.529289   -1.319583
     32          1           0        3.556887   -0.212281   -2.218590
     33          1           0        5.076061   -0.113318   -1.334879
     34          1           0        4.150803   -1.608552   -1.319248
     35          6           0        3.146560    1.443113   -0.067510
     36          8           0        2.126189    1.967509   -0.432332
     37          7           0        4.226878    2.140243    0.324134
     38          1           0        5.005199    1.652781    0.702997
     39          6           0        4.226850    3.588990    0.359374
     40          1           0        3.597970    3.967685    1.156572
     41          1           0        5.240816    3.930632    0.516611
     42          1           0        3.863568    3.981701   -0.579305
 ---------------------------------------------------------------------

 The electronic state is 1-A.
 Alpha  occ. eigenvalues --  -20.54250 -20.54063 -20.52890 -20.51425 -15.60519
 Alpha  occ. eigenvalues --  -15.60202 -15.59048 -15.57870 -11.36495 -11.36032
 Alpha  occ. eigenvalues --  -11.35295 -11.34282 -11.29031 -11.28983 -11.28268
 Alpha  occ. eigenvalues --  -11.26927 -11.23090 -11.22724 -11.22588 -11.22162
 Alpha  occ. eigenvalues --   -1.41276  -1.41072  -1.39759  -1.38336  -1.26347
 Alpha  occ. eigenvalues --   -1.24961  -1.24041  -1.23468  -1.07724  -1.05248
 Alpha  occ. eigenvalues --   -1.03029  -0.98671  -0.96992  -0.92125  -0.90059
 Alpha  occ. eigenvalues --   -0.87446  -0.81447  -0.79895  -0.79128  -0.78271
 Alpha  occ. eigenvalues --   -0.75761  -0.72977  -0.68954  -0.67894  -0.66885
 Alpha  occ. eigenvalues --   -0.66555  -0.65242  -0.64873  -0.63570  -0.62997
 Alpha  occ. eigenvalues --   -0.62352  -0.61140  -0.60399  -0.59679  -0.58803
 Alpha  occ. eigenvalues --   -0.58002  -0.57340  -0.56692  -0.56663  -0.55924
 Alpha  occ. eigenvalues --   -0.54929  -0.54445  -0.54003  -0.53775  -0.52878
 Alpha  occ. eigenvalues --   -0.52721  -0.52321  -0.50403  -0.49510  -0.44137
 Alpha  occ. eigenvalues --   -0.43529  -0.42462  -0.41210  -0.40891  -0.40165
 Alpha  occ. eigenvalues --   -0.39132  -0.38349
 Alpha virt. eigenvalues --    0.17844   0.18367   0.19682   0.20515   0.20963
 Alpha virt. eigenvalues --    0.21474   0.24145   0.25618   0.25897   0.27151
 Alpha virt. eigenvalues --    0.28290   0.28595   0.29264   0.29459   0.30670

 Mulliken atomic charges:
              1
     1  H    0.204274
     2  C   -0.575593
     3  H    0.172614
     4  H    0.207300
     5  C    0.757059
     6  O   -0.621071
     7  N   -0.824955
     8  H    0.419250
     9  C   -0.037871
    10  H    0.223957
    11  C   -0.489510
    12  H    0.178824
    13  H    0.153445
    14  H    0.218060
    15  C    0.798555
    16  O   -0.623378
    17  N   -0.873081
    18  H    0.394921
    19  C    0.010704
    20  H    0.217170
    21  C   -0.499527
    22  H    0.177388
    23  H    0.191855
    24  H    0.218857
    25  C    0.751642
    26  O   -0.632170
    27  N   -0.825797
    28  H    0.431073
    29  C   -0.034618
    30  H    0.214353
    31  C   -0.487168
    32  H    0.180956
    33  H    0.162077
    34  H    0.210928
    35  C    0.778143
    36  O   -0.629206
    37  N   -0.800250
    38  H    0.390406
    39  C   -0.273444
    40  H    0.186426
    41  H    0.172919
    42  H    0.204482
 Sum of Mulliken atomic charges =   0.00000

 Dipole moment (field-independent basis, Debye):
    X=              3.3389    Y=              0.6575    Z=              0.1459  Tot=              3.4062
 Quadrupole moment (field-independent basis, Debye-Ang):
   XX=            -99.4920   YY=           -136.0839   ZZ=           -117.2193
   XY=             21.5557   XZ=              5.8304   YZ=             -0.9620

 Normal termination of Gaussian 09 at Mon Dec 26 17:59:18 2016.
