 Gaussian 09, Revision A.02,
 Gaussian 09:  EM64L-G09RevA.02 11-Jun-2009

 ----------------------------------------------------------------------
 #MP2/cc-pvTZ density=MP2, maxdisk=16GB, pop=(minimal, MK), 5d, punch=m
 o
 ----------------------------------------------------------------------

 -----------------
 Generated by mdgx
 -----------------
 Symbolic Z-matrix:
 Charge =  0 Multiplicity = 1

                         Standard orientation:
 ---------------------------------------------------------------------
 Center     Atomic      Atomic             Coordinates (Angstroms)
 Number     Number       Type             X           Y           Z
 ---------------------------------------------------------------------
      1          1           0       -3.606996   -1.580438    0.595492
      2          6           0       -3.252187   -0.857274   -0.138842
      3          1           0       -3.934252   -0.019550   -0.284121
      4          1           0       -3.150955   -1.513298   -1.003414
      5          6           0       -1.941098   -0.212717    0.233451
      6          8           0       -1.494735   -0.425999    1.366358
      7          7           0       -1.302903    0.472722   -0.736615
      8          1           0       -1.701273    0.714127   -1.632787
      9          6           0        0.068606    0.949389   -0.632189
     10          1           0        0.265787    1.436243   -1.587277
     11          6           0        0.170061    2.144345    0.433734
     12          1           0       -0.020824    1.889417    1.476171
     13          1           0        1.162636    2.593834    0.404496
     14          1           0       -0.678654    2.809992    0.276586
     15          6           0        1.084528   -0.182266   -0.351187
     16          8           0        0.795011   -1.337593   -0.539780
     17          7           0        2.335530    0.127520   -0.049859
     18          1           0        2.597811    1.101919   -0.092916
     19          6           0        3.320111   -0.879975    0.351534
     20          1           0        3.693303   -1.442359   -0.504358
     21          1           0        4.166402   -0.325513    0.757074
     22          1           0        2.876290   -1.526332    1.108730
 ---------------------------------------------------------------------

 SCF Done:  E(RHF) =  -493.002618939     A.U. after   13 cycles
 E2 =    -0.1884066069D+01 EUMP2 =    -0.49488668500835D+03

 The electronic state is 1-A.
 Alpha  occ. eigenvalues --  -20.50113 -20.49893 -15.58634 -15.57914 -11.34132
 Alpha  occ. eigenvalues --  -11.33429 -11.29769 -11.26147 -11.23114 -11.22375
 Alpha  occ. eigenvalues --   -1.38461  -1.35746  -1.23459  -1.22697  -1.04340
 Alpha  occ. eigenvalues --   -0.98376  -0.95262  -0.88796  -0.80812  -0.77675
 Alpha  occ. eigenvalues --   -0.70502  -0.69188  -0.64344  -0.63016  -0.62334
 Alpha  occ. eigenvalues --   -0.62034  -0.58711  -0.57988  -0.56299  -0.55512
 Alpha  occ. eigenvalues --   -0.54506  -0.53867  -0.52489  -0.50524  -0.48277
 Alpha  occ. eigenvalues --   -0.41861  -0.40548  -0.39009  -0.38337
 Alpha virt. eigenvalues --    0.11258   0.13666   0.15654   0.16319   0.17461
 Alpha virt. eigenvalues --    0.19115   0.20310   0.20494   0.21712   0.22714
 Alpha virt. eigenvalues --    0.23346   0.24086   0.24409   0.25147   0.29165

 Mulliken atomic charges:
              1
     1  H    0.147847
     2  C   -0.391794
     3  H    0.118693
     4  H    0.127317
     5  C    0.201900
     6  O   -0.327376
     7  N   -0.153358
     8  H    0.185790
     9  C   -0.106290
    10  H    0.156713
    11  C   -0.395652
    12  H    0.162119
    13  H    0.110946
    14  H    0.122404
    15  C    0.192153
    16  O   -0.314712
    17  N   -0.137954
    18  H    0.172392
    19  C   -0.248160
    20  H    0.123957
    21  H    0.109244
    22  H    0.143820
 Sum of Mulliken atomic charges =   0.00000

 Dipole moment (field-independent basis, Debye):
    X=              1.4960    Y=              3.6046    Z=             -2.5942  Tot=              4.6863
 Quadrupole moment (field-independent basis, Debye-Ang):
   XX=            -47.7252   YY=            -61.7878   ZZ=            -62.7714
   XY=              1.6373   XZ=              6.3402   YZ=             -2.1606

 Normal termination of Gaussian 09 at Sun Mar 19 17:10:13 2017.
