 Gaussian 09, Revision A.02,
 Gaussian 09:  EM64L-G09RevA.02 11-Jun-2009

 -------------------------------------------------------------------
 # HF/6-31G* Opt=(ModRedundant, maxcycles=1000, calcfc) geom=nocrowd
 -------------------------------------------------------------------

 ------------------
 Phi Psi fixed scan
 ------------------
 Symbolic Z-matrix:
 Charge =  0 Multiplicity = 1

 SCF Done:  E(RHF) =  -984.513762035     A.U. after   15 cycles

  Exact polarizability:   0.000   0.000   0.000   0.000   0.000   0.000
 Approx polarizability: 129.052  -8.485 129.639   8.275  -8.201 131.529

 SCF Done:  E(RHF) =  -984.526745055     A.U. after   13 cycles
 SCF Done:  E(RHF) =  -984.542081788     A.U. after   13 cycles
 SCF Done:  E(RHF) =  -984.547216502     A.U. after   13 cycles
 SCF Done:  E(RHF) =  -984.550021720     A.U. after   13 cycles
 SCF Done:  E(RHF) =  -984.550804273     A.U. after   14 cycles
 SCF Done:  E(RHF) =  -984.436901690     A.U. after   16 cycles
 SCF Done:  E(RHF) =  -984.505915258     A.U. after   14 cycles
 SCF Done:  E(RHF) =  -984.526985253     A.U. after   12 cycles
 SCF Done:  E(RHF) =  -984.541271656     A.U. after   13 cycles
 SCF Done:  E(RHF) =  -984.552115492     A.U. after    9 cycles
 SCF Done:  E(RHF) =  -984.552115985     A.U. after   10 cycles
 SCF Done:  E(RHF) =  -984.552116199     A.U. after    9 cycles
 SCF Done:  E(RHF) =  -984.552116249     A.U. after    8 cycles
 SCF Done:  E(RHF) =  -984.552116271     A.U. after    8 cycles
 SCF Done:  E(RHF) =  -984.552116285     A.U. after    8 cycles
 SCF Done:  E(RHF) =  -984.552116289     A.U. after    6 cycles
 SCF Done:  E(RHF) =  -984.552116296     A.U. after    5 cycles
 SCF Done:  E(RHF) =  -984.552116302     A.U. after    6 cycles
 SCF Done:  E(RHF) =  -984.552116306     A.U. after    7 cycles
 Optimization completed.
    -- Stationary point found.

                         Standard orientation:
 ---------------------------------------------------------------------
 Center     Atomic      Atomic             Coordinates (Angstroms)
 Number     Number       Type             X           Y           Z
 ---------------------------------------------------------------------
      1          1           0        5.652577    2.041648   -1.969121
      2          6           0        4.856902    2.290870   -1.279661
      3          1           0        4.001923    2.661872   -1.831567
      4          1           0        5.218940    3.076373   -0.625279
      5          6           0        4.544298    1.071081   -0.440570
      6          8           0        5.416503    0.397937    0.044277
      7          7           0        3.235533    0.803318   -0.256810
      8          1           0        2.528362    1.356835   -0.685328
      9          6           0        2.785907   -0.327931    0.515931
     10          1           0        3.447445   -1.159788    0.310207
     11          6           0        2.797137   -0.040935    2.023728
     12          1           0        2.130374    0.782413    2.255099
     13          1           0        2.483248   -0.909080    2.594435
     14          1           0        3.801761    0.223079    2.326233
     15          6           0        1.368433   -0.662116    0.053875
     16          8           0        0.664409    0.179005   -0.439983
     17          7           0        0.982245   -1.929898    0.303113
     18          1           0        1.681009   -2.546482    0.653340
     19          6           0       -0.275690   -2.587980   -0.050169
     20          1           0       -0.046014   -3.352629   -0.780535
     21          6           0       -0.879165   -3.254898    1.186486
     22          1           0       -1.080134   -2.538835    1.974382
     23          1           0       -1.802513   -3.763928    0.935027
     24          1           0       -0.188286   -3.993428    1.581697
     25          6           0       -1.249918   -1.667486   -0.803777
     26          8           0       -1.285965   -1.698568   -2.002271
     27          7           0       -2.113386   -0.951730   -0.055418
     28          1           0       -1.926084   -0.812619    0.913049
     29          6           0       -2.900874    0.096554   -0.663739
     30          1           0       -2.345725    0.501584   -1.501228
     31          6           0       -4.251116   -0.430910   -1.162705
     32          1           0       -4.831433   -0.824774   -0.335532
     33          1           0       -4.827776    0.349310   -1.648538
     34          1           0       -4.077874   -1.224608   -1.877456
     35          6           0       -3.095237    1.191193    0.382690
     36          8           0       -2.909782    0.988900    1.555193
     37          7           0       -3.522994    2.375668   -0.092187
     38          1           0       -3.524631    2.523409   -1.074757
     39          6           0       -3.719281    3.516122    0.778190
     40          1           0       -4.308743    3.225472    1.635367
     41          1           0       -2.776531    3.919806    1.130351
     42          1           0       -4.249380    4.283282    0.229866
 ---------------------------------------------------------------------

 The electronic state is 1-A.
 Alpha  occ. eigenvalues --  -20.54125 -20.53284 -20.52155 -20.51573 -15.60590
 Alpha  occ. eigenvalues --  -15.59268 -15.58054 -15.57388 -11.36408 -11.35144
 Alpha  occ. eigenvalues --  -11.34760 -11.34460 -11.29128 -11.28376 -11.27549
 Alpha  occ. eigenvalues --  -11.26295 -11.23711 -11.22892 -11.22537 -11.22076
 Alpha  occ. eigenvalues --   -1.41293  -1.40229  -1.38934  -1.38467  -1.25739
 Alpha  occ. eigenvalues --   -1.24094  -1.23700  -1.23324  -1.07725  -1.04833
 Alpha  occ. eigenvalues --   -1.02848  -0.98825  -0.96141  -0.91754  -0.89694
 Alpha  occ. eigenvalues --   -0.87185  -0.82387  -0.79788  -0.78872  -0.77947
 Alpha  occ. eigenvalues --   -0.73715  -0.72709  -0.69020  -0.67338  -0.66300
 Alpha  occ. eigenvalues --   -0.65729  -0.64773  -0.64146  -0.63520  -0.63089
 Alpha  occ. eigenvalues --   -0.62036  -0.61361  -0.59564  -0.59254  -0.58779
 Alpha  occ. eigenvalues --   -0.57300  -0.57107  -0.56714  -0.56129  -0.55970
 Alpha  occ. eigenvalues --   -0.55047  -0.54973  -0.54140  -0.53559  -0.52829
 Alpha  occ. eigenvalues --   -0.52681  -0.52252  -0.49791  -0.49635  -0.43121
 Alpha  occ. eigenvalues --   -0.42621  -0.41833  -0.41380  -0.40536  -0.40082
 Alpha  occ. eigenvalues --   -0.38425  -0.38219
 Alpha virt. eigenvalues --    0.17920   0.19149   0.19513   0.20942   0.21462
 Alpha virt. eigenvalues --    0.21701   0.23877   0.24975   0.26382   0.27009
 Alpha virt. eigenvalues --    0.28204   0.28551   0.29407   0.29671   0.29926

 Mulliken atomic charges:
              1
     1  H    0.208511
     2  C   -0.575321
     3  H    0.172905
     4  H    0.202611
     5  C    0.757114
     6  O   -0.622927
     7  N   -0.823422
     8  H    0.418792
     9  C   -0.031634
    10  H    0.215165
    11  C   -0.486290
    12  H    0.181834
    13  H    0.157843
    14  H    0.211948
    15  C    0.802921
    16  O   -0.636552
    17  N   -0.841054
    18  H    0.389893
    19  C   -0.011575
    20  H    0.220361
    21  C   -0.490656
    22  H    0.178810
    23  H    0.190439
    24  H    0.166833
    25  C    0.784873
    26  O   -0.617726
    27  N   -0.810593
    28  H    0.424776
    29  C   -0.039635
    30  H    0.223315
    31  C   -0.477562
    32  H    0.176522
    33  H    0.155215
    34  H    0.206539
    35  C    0.776121
    36  O   -0.634360
    37  N   -0.796012
    38  H    0.389065
    39  C   -0.272759
    40  H    0.203310
    41  H    0.181748
    42  H    0.170614
 Sum of Mulliken atomic charges =   0.00000

 Dipole moment (field-independent basis, Debye):
    X=             -2.5108    Y=              1.2474    Z=              0.3870  Tot=              2.8302
 Quadrupole moment (field-independent basis, Debye-Ang):
   XX=           -134.6793   YY=            -96.9963   ZZ=           -127.6712
   XY=             -6.4696   XZ=              2.1797   YZ=            -13.1328

 Normal termination of Gaussian 09 at Mon Dec 26 13:58:01 2016.
