 Gaussian 09, Revision A.02,
 Gaussian 09:  EM64L-G09RevA.02 11-Jun-2009

 -------------------------------------------------------------------
 # HF/6-31G* Opt=(ModRedundant, maxcycles=1000, calcfc) geom=nocrowd
 -------------------------------------------------------------------

 ------------------
 Phi Psi fixed scan
 ------------------
 Symbolic Z-matrix:
 Charge =  0 Multiplicity = 1

 SCF Done:  E(RHF) =  -984.346471596     A.U. after   17 cycles

  Exact polarizability:   0.000   0.000   0.000   0.000   0.000   0.000
 Approx polarizability: 142.150  -1.772 138.588   1.440 -16.676 117.876

 SCF Done:  E(RHF) =  -984.386462898     A.U. after   15 cycles
 SCF Done:  E(RHF) =  -984.445590402     A.U. after   15 cycles
 SCF Done:  E(RHF) =  -984.490286982     A.U. after   16 cycles
 SCF Done:  E(RHF) =  -984.508533433     A.U. after   13 cycles
 SCF Done:  E(RHF) =  -984.522923797     A.U. after   16 cycles
 SCF Done:  E(RHF) =  -984.531905145     A.U. after   15 cycles
 SCF Done:  E(RHF) =  -984.527533684     A.U. after   15 cycles
 SCF Done:  E(RHF) =  -984.539039173     A.U. after   15 cycles
 SCF Done:  E(RHF) =  -984.536815167     A.U. after   15 cycles
 SCF Done:  E(RHF) =  -984.543833184     A.U. after    9 cycles
 SCF Done:  E(RHF) =  -984.543832529     A.U. after   10 cycles
 SCF Done:  E(RHF) =  -984.520448070     A.U. after   15 cycles
 SCF Done:  E(RHF) =  -984.543833385     A.U. after   15 cycles
 SCF Done:  E(RHF) =  -984.543832086     A.U. after   10 cycles
 SCF Done:  E(RHF) =  -984.543833664     A.U. after   10 cycles
 SCF Done:  E(RHF) =  -984.543834124     A.U. after    9 cycles
 SCF Done:  E(RHF) =  -984.543834134     A.U. after    7 cycles
 SCF Done:  E(RHF) =  -984.543834134     A.U. after    6 cycles
 SCF Done:  E(RHF) =  -984.543834136     A.U. after    6 cycles
 Optimization completed.
    -- Stationary point found.

                         Standard orientation:
 ---------------------------------------------------------------------
 Center     Atomic      Atomic             Coordinates (Angstroms)
 Number     Number       Type             X           Y           Z
 ---------------------------------------------------------------------
      1          1           0       -6.957959   -1.874650   -0.984094
      2          6           0       -6.192470   -1.968697   -0.224963
      3          1           0       -5.525223   -2.782213   -0.482113
      4          1           0       -6.683777   -2.201674    0.713300
      5          6           0       -5.487546   -0.637134   -0.081162
      6          8           0       -6.102763    0.394984    0.000808
      7          7           0       -4.142299   -0.686409   -0.032270
      8          1           0       -3.650784   -1.544943   -0.140500
      9          6           0       -3.332661    0.499621    0.090723
     10          1           0       -3.776965    1.277626   -0.518991
     11          6           0       -3.245675    0.991399    1.542435
     12          1           0       -2.767192    0.244560    2.165532
     13          1           0       -2.677734    1.913276    1.616056
     14          1           0       -4.245135    1.177891    1.912161
     15          6           0       -1.939330    0.164664   -0.435133
     16          8           0       -1.570654   -0.967459   -0.539354
     17          7           0       -1.207547    1.252022   -0.836933
     18          1           0       -1.716540    2.104541   -0.750087
     19          6           0        0.225814    1.486945   -0.677167
     20          1           0        0.654130    1.622910   -1.665029
     21          6           0        0.449288    2.772823    0.128023
     22          1           0        0.066941    2.655855    1.135031
     23          1           0        1.504828    3.010289    0.181228
     24          1           0       -0.055557    3.608697   -0.346938
     25          6           0        0.994292    0.368878    0.030060
     26          8           0        0.567122   -0.185969    1.003884
     27          7           0        2.278625    0.258325   -0.366786
     28          1           0        2.593301    0.659615   -1.222384
     29          6           0        3.190690   -0.666639    0.264247
     30          1           0        3.068738   -0.576734    1.336095
     31          6           0        2.932486   -2.121798   -0.150914
     32          1           0        3.071247   -2.237473   -1.220328
     33          1           0        3.609773   -2.799431    0.358872
     34          1           0        1.916421   -2.392438    0.102766
     35          6           0        4.600800   -0.247124   -0.138924
     36          8           0        4.806973    0.351384   -1.163360
     37          7           0        5.584628   -0.630455    0.692669
     38          1           0        5.347230   -1.047128    1.562581
     39          6           0        6.975032   -0.331333    0.417299
     40          1           0        7.227745   -0.632668   -0.589271
     41          1           0        7.181505    0.727463    0.520784
     42          1           0        7.591428   -0.880905    1.115609
 ---------------------------------------------------------------------

 The electronic state is 1-A.
 Alpha  occ. eigenvalues --  -20.53825 -20.53295 -20.52674 -20.50957 -15.60031
 Alpha  occ. eigenvalues --  -15.59141 -15.58775 -15.57333 -11.35794 -11.35353
 Alpha  occ. eigenvalues --  -11.35248 -11.33855 -11.29482 -11.28576 -11.27569
 Alpha  occ. eigenvalues --  -11.26867 -11.24143 -11.22452 -11.22383 -11.21776
 Alpha  occ. eigenvalues --   -1.40977  -1.40525  -1.39305  -1.37826  -1.24826
 Alpha  occ. eigenvalues --   -1.24764  -1.24224  -1.22963  -1.07678  -1.04885
 Alpha  occ. eigenvalues --   -1.02851  -0.98241  -0.96803  -0.91925  -0.89753
 Alpha  occ. eigenvalues --   -0.86781  -0.81863  -0.79945  -0.79190  -0.78025
 Alpha  occ. eigenvalues --   -0.72999  -0.72046  -0.69184  -0.67735  -0.66922
 Alpha  occ. eigenvalues --   -0.65221  -0.64751  -0.64572  -0.63235  -0.62728
 Alpha  occ. eigenvalues --   -0.61614  -0.61296  -0.60295  -0.59736  -0.58438
 Alpha  occ. eigenvalues --   -0.57687  -0.56816  -0.56593  -0.56532  -0.56100
 Alpha  occ. eigenvalues --   -0.55194  -0.54533  -0.54087  -0.53603  -0.53020
 Alpha  occ. eigenvalues --   -0.52215  -0.51627  -0.50159  -0.48787  -0.43409
 Alpha  occ. eigenvalues --   -0.42814  -0.42137  -0.40783  -0.40665  -0.39661
 Alpha  occ. eigenvalues --   -0.38615  -0.37936
 Alpha virt. eigenvalues --    0.18134   0.18799   0.19850   0.20619   0.20727
 Alpha virt. eigenvalues --    0.21684   0.24076   0.24451   0.25851   0.26273
 Alpha virt. eigenvalues --    0.27921   0.28121   0.29179   0.29535   0.30647

 Mulliken atomic charges:
              1
     1  H    0.205583
     2  C   -0.574401
     3  H    0.172825
     4  H    0.201987
     5  C    0.757281
     6  O   -0.626195
     7  N   -0.821576
     8  H    0.420186
     9  C   -0.052461
    10  H    0.214865
    11  C   -0.486270
    12  H    0.191103
    13  H    0.150442
    14  H    0.209476
    15  C    0.807483
    16  O   -0.599032
    17  N   -0.829125
    18  H    0.380759
    19  C    0.007537
    20  H    0.191490
    21  C   -0.518822
    22  H    0.200942
    23  H    0.193471
    24  H    0.174045
    25  C    0.791552
    26  O   -0.617092
    27  N   -0.838501
    28  H    0.418234
    29  C   -0.035455
    30  H    0.211778
    31  C   -0.492384
    32  H    0.179734
    33  H    0.159031
    34  H    0.225035
    35  C    0.780889
    36  O   -0.632586
    37  N   -0.800420
    38  H    0.390921
    39  C   -0.272259
    40  H    0.202363
    41  H    0.185130
    42  H    0.172438
 Sum of Mulliken atomic charges =   0.00000

 Dipole moment (field-independent basis, Debye):
    X=              5.1921    Y=              0.0356    Z=              1.5544  Tot=              5.4199
 Quadrupole moment (field-independent basis, Debye-Ang):
   XX=           -122.9298   YY=           -110.1604   ZZ=           -121.1087
   XY=              2.4230   XZ=             14.6456   YZ=             -2.0000

 Normal termination of Gaussian 09 at Mon Dec 26 16:14:05 2016.
