 Gaussian 09, Revision A.02,
 Gaussian 09:  EM64L-G09RevA.02 11-Jun-2009

 -------------------------------------------------------------------
 # HF/6-31G* Opt=(ModRedundant, maxcycles=1000, calcfc) geom=nocrowd
 -------------------------------------------------------------------

 ------------------
 Phi Psi fixed scan
 ------------------
 Symbolic Z-matrix:
 Charge =  0 Multiplicity = 1

 SCF Done:  E(RHF) =  -984.478809492     A.U. after   15 cycles

  Exact polarizability:   0.000   0.000   0.000   0.000   0.000   0.000
 Approx polarizability: 133.223   7.800 136.363  -0.048 -12.206 121.725

 SCF Done:  E(RHF) =  -984.500880967     A.U. after   14 cycles
 SCF Done:  E(RHF) =  -984.528132086     A.U. after   15 cycles
 SCF Done:  E(RHF) =  -984.519990495     A.U. after   14 cycles
 SCF Done:  E(RHF) =  -984.538273900     A.U. after   14 cycles
 SCF Done:  E(RHF) =  -984.540851472     A.U. after   12 cycles
 SCF Done:  E(RHF) =  -984.544027350     A.U. after   13 cycles
 SCF Done:  E(RHF) =  -984.545961533     A.U. after   13 cycles
 SCF Done:  E(RHF) =  -984.546545451     A.U. after   14 cycles
 SCF Done:  E(RHF) =  -984.546922081     A.U. after   14 cycles
 SCF Done:  E(RHF) =  -984.547488033     A.U. after   10 cycles
 SCF Done:  E(RHF) =  -984.547489047     A.U. after    9 cycles
 SCF Done:  E(RHF) =  -984.547489526     A.U. after    9 cycles
 SCF Done:  E(RHF) =  -984.547489661     A.U. after    8 cycles
 SCF Done:  E(RHF) =  -984.547489826     A.U. after    8 cycles
 SCF Done:  E(RHF) =  -984.547490108     A.U. after    9 cycles
 SCF Done:  E(RHF) =  -984.547490446     A.U. after    9 cycles
 SCF Done:  E(RHF) =  -984.547490774     A.U. after    9 cycles
 SCF Done:  E(RHF) =  -984.547490915     A.U. after    8 cycles
 SCF Done:  E(RHF) =  -984.547490939     A.U. after    7 cycles
 Optimization completed.
    -- Stationary point found.

                         Standard orientation:
 ---------------------------------------------------------------------
 Center     Atomic      Atomic             Coordinates (Angstroms)
 Number     Number       Type             X           Y           Z
 ---------------------------------------------------------------------
      1          1           0        5.961710   -3.050352    0.340162
      2          6           0        4.963816   -2.747943    0.626319
      3          1           0        4.875347   -2.854596    1.702596
      4          1           0        4.235839   -3.396842    0.154380
      5          6           0        4.773886   -1.290130    0.267698
      6          8           0        5.666134   -0.489148    0.372928
      7          7           0        3.538305   -0.948910   -0.152309
      8          1           0        2.796152   -1.612313   -0.160986
      9          6           0        3.171511    0.420948   -0.412776
     10          1           0        3.639261    1.048794    0.336091
     11          6           0        3.627178    0.880355   -1.805041
     12          1           0        3.153095    0.278201   -2.572285
     13          1           0        3.380583    1.921750   -1.984537
     14          1           0        4.699984    0.765122   -1.879771
     15          6           0        1.651828    0.520826   -0.279874
     16          8           0        0.955996   -0.454304   -0.335252
     17          7           0        1.170457    1.790898   -0.212285
     18          1           0        1.874180    2.489479   -0.114195
     19          6           0       -0.111863    2.221974    0.350753
     20          1           0        0.110074    2.794588    1.243589
     21          6           0       -0.821976    3.131838   -0.650880
     22          1           0       -1.040732    2.606912   -1.574132
     23          1           0       -1.742467    3.530581   -0.239289
     24          1           0       -0.179643    3.969899   -0.899571
     25          6           0       -0.943991    1.052208    0.904163
     26          8           0       -0.562663    0.478894    1.888422
     27          7           0       -2.155438    0.843576    0.360388
     28          1           0       -2.401647    1.237935   -0.519502
     29          6           0       -2.975386   -0.266752    0.788729
     30          1           0       -2.324100   -1.088801    1.058695
     31          6           0       -3.843137    0.103516    1.997892
     32          1           0       -4.515929    0.915559    1.744624
     33          1           0       -4.434213   -0.742009    2.333912
     34          1           0       -3.202120    0.418736    2.810396
     35          6           0       -3.846706   -0.674404   -0.396450
     36          8           0       -4.043921    0.071563   -1.321091
     37          7           0       -4.404211   -1.895601   -0.313433
     38          1           0       -4.103452   -2.511262    0.406132
     39          6           0       -5.239908   -2.423440   -1.372206
     40          1           0       -5.986097   -1.693155   -1.649103
     41          1           0       -4.660023   -2.673761   -2.253343
     42          1           0       -5.735470   -3.314220   -1.010424
 ---------------------------------------------------------------------

 The electronic state is 1-A.
 Alpha  occ. eigenvalues --  -20.53899 -20.53606 -20.51741 -20.51310 -15.59811
 Alpha  occ. eigenvalues --  -15.59608 -15.58133 -15.57556 -11.35880 -11.35488
 Alpha  occ. eigenvalues --  -11.34924 -11.34094 -11.29269 -11.28044 -11.28007
 Alpha  occ. eigenvalues --  -11.26511 -11.23342 -11.22559 -11.22408 -11.22268
 Alpha  occ. eigenvalues --   -1.41088  -1.40525  -1.38790  -1.38146  -1.25095
 Alpha  occ. eigenvalues --   -1.24420  -1.23817  -1.23241  -1.07565  -1.04897
 Alpha  occ. eigenvalues --   -1.02650  -0.98458  -0.96433  -0.91471  -0.89799
 Alpha  occ. eigenvalues --   -0.87254  -0.81913  -0.79866  -0.78596  -0.78291
 Alpha  occ. eigenvalues --   -0.73592  -0.72704  -0.68428  -0.67520  -0.66593
 Alpha  occ. eigenvalues --   -0.65554  -0.64385  -0.64110  -0.63866  -0.63100
 Alpha  occ. eigenvalues --   -0.61646  -0.60852  -0.59862  -0.59355  -0.58527
 Alpha  occ. eigenvalues --   -0.57566  -0.56545  -0.56227  -0.56140  -0.55898
 Alpha  occ. eigenvalues --   -0.55307  -0.54780  -0.54267  -0.53685  -0.53000
 Alpha  occ. eigenvalues --   -0.52518  -0.52122  -0.49843  -0.49063  -0.42992
 Alpha  occ. eigenvalues --   -0.42761  -0.41803  -0.41063  -0.40379  -0.40336
 Alpha  occ. eigenvalues --   -0.38436  -0.37974
 Alpha virt. eigenvalues --    0.17463   0.18873   0.19316   0.21091   0.21286
 Alpha virt. eigenvalues --    0.22699   0.24469   0.24823   0.26242   0.27688
 Alpha virt. eigenvalues --    0.28236   0.28897   0.29367   0.30121   0.30330

 Mulliken atomic charges:
              1
     1  H    0.207333
     2  C   -0.577025
     3  H    0.202997
     4  H    0.173927
     5  C    0.754173
     6  O   -0.622722
     7  N   -0.820483
     8  H    0.421272
     9  C   -0.034418
    10  H    0.214105
    11  C   -0.483360
    12  H    0.177659
    13  H    0.155383
    14  H    0.214011
    15  C    0.800217
    16  O   -0.618439
    17  N   -0.824940
    18  H    0.383193
    19  C   -0.010538
    20  H    0.212032
    21  C   -0.501373
    22  H    0.187016
    23  H    0.183399
    24  H    0.173408
    25  C    0.802152
    26  O   -0.630761
    27  N   -0.844869
    28  H    0.433412
    29  C   -0.034897
    30  H    0.223966
    31  C   -0.480636
    32  H    0.176855
    33  H    0.157789
    34  H    0.209542
    35  C    0.774184
    36  O   -0.632449
    37  N   -0.797020
    38  H    0.390034
    39  C   -0.273391
    40  H    0.203637
    41  H    0.183899
    42  H    0.171726
 Sum of Mulliken atomic charges =   0.00000

 Dipole moment (field-independent basis, Debye):
    X=             -3.6207    Y=             -0.7491    Z=             -0.3851  Tot=              3.7174
 Quadrupole moment (field-independent basis, Debye-Ang):
   XX=           -135.0066   YY=            -94.9851   ZZ=           -126.9215
   XY=             10.2472   XZ=             -9.0667   YZ=             -0.4070

 Normal termination of Gaussian 09 at Mon Dec 26 14:43:34 2016.
