 Gaussian 09, Revision A.02,
 Gaussian 09:  EM64L-G09RevA.02 11-Jun-2009

 -------------------------------------------------------------------
 # HF/6-31G* Opt=(ModRedundant, maxcycles=1000, calcfc) geom=nocrowd
 -------------------------------------------------------------------

 ------------------
 Phi Psi fixed scan
 ------------------
 Symbolic Z-matrix:
 Charge =  0 Multiplicity = 1

 SCF Done:  E(RHF) =  -984.483122947     A.U. after   15 cycles

  Exact polarizability:   0.000   0.000   0.000   0.000   0.000   0.000
 Approx polarizability: 131.646  -6.369 133.590  14.525  -4.081 126.008

 SCF Done:  E(RHF) =  -984.506848736     A.U. after   13 cycles
 SCF Done:  E(RHF) =  -984.538261543     A.U. after   14 cycles
 SCF Done:  E(RHF) =  -984.533444622     A.U. after   15 cycles
 SCF Done:  E(RHF) =  -984.541682935     A.U. after   15 cycles
 SCF Done:  E(RHF) =  -984.544875143     A.U. after   15 cycles
 SCF Done:  E(RHF) =  -984.547396779     A.U. after   13 cycles
 SCF Done:  E(RHF) =  -984.547374247     A.U. after   15 cycles
 SCF Done:  E(RHF) =  -984.549183875     A.U. after   13 cycles
 SCF Done:  E(RHF) =  -984.548750492     A.U. after   13 cycles
 SCF Done:  E(RHF) =  -984.550787659     A.U. after   10 cycles
 SCF Done:  E(RHF) =  -984.550793097     A.U. after   10 cycles
 SCF Done:  E(RHF) =  -984.550799048     A.U. after   10 cycles
 SCF Done:  E(RHF) =  -984.550808776     A.U. after   11 cycles
 SCF Done:  E(RHF) =  -984.550817418     A.U. after   11 cycles
 SCF Done:  E(RHF) =  -984.550824042     A.U. after   11 cycles
 SCF Done:  E(RHF) =  -984.550825274     A.U. after   10 cycles
 SCF Done:  E(RHF) =  -984.550825646     A.U. after    9 cycles
 SCF Done:  E(RHF) =  -984.550825755     A.U. after    8 cycles
 SCF Done:  E(RHF) =  -984.550825791     A.U. after    7 cycles
 Optimization completed.
    -- Stationary point found.

                         Standard orientation:
 ---------------------------------------------------------------------
 Center     Atomic      Atomic             Coordinates (Angstroms)
 Number     Number       Type             X           Y           Z
 ---------------------------------------------------------------------
      1          1           0        5.788600    1.590803   -1.606557
      2          6           0        4.861051    1.871467   -1.126118
      3          1           0        4.149498    2.201063   -1.873470
      4          1           0        5.070013    2.698141   -0.455428
      5          6           0        4.365227    0.699602   -0.307187
      6          8           0        5.114407    0.026607    0.351978
      7          7           0        3.035958    0.476014   -0.348023
      8          1           0        2.432754    1.039452   -0.903571
      9          6           0        2.414561   -0.590838    0.395819
     10          1           0        3.070570   -1.451197    0.360278
     11          6           0        2.164388   -0.207587    1.861852
     12          1           0        1.482814    0.633794    1.922495
     13          1           0        1.739668   -1.036600    2.420063
     14          1           0        3.105282    0.063397    2.322158
     15          6           0        1.086769   -0.913500   -0.284189
     16          8           0        0.510791   -0.085609   -0.938668
     17          7           0        0.645410   -2.177095   -0.085849
     18          1           0        1.248533   -2.752084    0.459969
     19          6           0       -0.699825   -2.740825   -0.234933
     20          1           0       -0.669201   -3.472225   -1.030434
     21          6           0       -1.110205   -3.442335    1.063380
     22          1           0       -1.160998   -2.746966    1.893195
     23          1           0       -2.081449   -3.908053    0.943062
     24          1           0       -0.397859   -4.223132    1.313344
     25          6           0       -1.795330   -1.766692   -0.684869
     26          8           0       -2.445141   -2.014929   -1.662956
     27          7           0       -2.030126   -0.708779    0.113945
     28          1           0       -1.372386   -0.473038    0.822504
     29          6           0       -2.832434    0.402894   -0.338719
     30          1           0       -2.719212    0.494353   -1.412438
     31          6           0       -4.316082    0.210050   -0.004365
     32          1           0       -4.453419    0.133375    1.068575
     33          1           0       -4.915256    1.036820   -0.371663
     34          1           0       -4.667654   -0.702217   -0.468164
     35          6           0       -2.285946    1.659801    0.335150
     36          8           0       -1.622586    1.602957    1.339072
     37          7           0       -2.638423    2.824010   -0.239442
     38          1           0       -3.063970    2.803131   -1.137109
     39          6           0       -2.175496    4.095628    0.275575
     40          1           0       -2.341080    4.140820    1.341962
     41          1           0       -1.118581    4.245206    0.084949
     42          1           0       -2.736240    4.887904   -0.201924
 ---------------------------------------------------------------------

 The electronic state is 1-A.
 Alpha  occ. eigenvalues --  -20.54275 -20.53399 -20.52649 -20.51604 -15.60666
 Alpha  occ. eigenvalues --  -15.59425 -15.58052 -15.57453 -11.36490 -11.35305
 Alpha  occ. eigenvalues --  -11.34943 -11.34477 -11.29181 -11.28380 -11.27813
 Alpha  occ. eigenvalues --  -11.26428 -11.24183 -11.22925 -11.22428 -11.22175
 Alpha  occ. eigenvalues --   -1.41369  -1.40334  -1.39275  -1.38505  -1.25880
 Alpha  occ. eigenvalues --   -1.24243  -1.23790  -1.23396  -1.07808  -1.04871
 Alpha  occ. eigenvalues --   -1.03180  -0.98848  -0.96319  -0.91838  -0.89798
 Alpha  occ. eigenvalues --   -0.87235  -0.82324  -0.79971  -0.78887  -0.78200
 Alpha  occ. eigenvalues --   -0.73410  -0.72904  -0.69343  -0.67484  -0.66077
 Alpha  occ. eigenvalues --   -0.65792  -0.65446  -0.64303  -0.63092  -0.63062
 Alpha  occ. eigenvalues --   -0.62656  -0.61441  -0.59553  -0.59288  -0.58703
 Alpha  occ. eigenvalues --   -0.57474  -0.57414  -0.56998  -0.56567  -0.56098
 Alpha  occ. eigenvalues --   -0.55284  -0.54936  -0.54447  -0.53180  -0.52854
 Alpha  occ. eigenvalues --   -0.52630  -0.52219  -0.50084  -0.49624  -0.43573
 Alpha  occ. eigenvalues --   -0.42755  -0.42011  -0.41411  -0.40971  -0.40037
 Alpha  occ. eigenvalues --   -0.38519  -0.38103
 Alpha virt. eigenvalues --    0.17955   0.18673   0.19602   0.20470   0.21145
 Alpha virt. eigenvalues --    0.21522   0.23631   0.25015   0.26190   0.26892
 Alpha virt. eigenvalues --    0.28365   0.28609   0.28912   0.29607   0.30294

 Mulliken atomic charges:
              1
     1  H    0.208860
     2  C   -0.576114
     3  H    0.172833
     4  H    0.202341
     5  C    0.757190
     6  O   -0.622494
     7  N   -0.820895
     8  H    0.417546
     9  C   -0.038132
    10  H    0.218074
    11  C   -0.499783
    12  H    0.200874
    13  H    0.152230
    14  H    0.212072
    15  C    0.789217
    16  O   -0.629431
    17  N   -0.837160
    18  H    0.389437
    19  C   -0.015576
    20  H    0.228639
    21  C   -0.508546
    22  H    0.182673
    23  H    0.198790
    24  H    0.170302
    25  C    0.778065
    26  O   -0.618910
    27  N   -0.797267
    28  H    0.421962
    29  C   -0.035128
    30  H    0.215906
    31  C   -0.478983
    32  H    0.177578
    33  H    0.156842
    34  H    0.206651
    35  C    0.783659
    36  O   -0.639456
    37  N   -0.795967
    38  H    0.389375
    39  C   -0.272973
    40  H    0.203515
    41  H    0.180851
    42  H    0.171334
 Sum of Mulliken atomic charges =   0.00000

 Dipole moment (field-independent basis, Debye):
    X=             -2.0679    Y=              1.8039    Z=              0.2475  Tot=              2.7553
 Quadrupole moment (field-independent basis, Debye-Ang):
   XX=           -135.9580   YY=            -98.6767   ZZ=           -126.6504
   XY=             -6.4698   XZ=             -7.1801   YZ=            -15.2685

 Normal termination of Gaussian 09 at Mon Dec 26 14:24:31 2016.
