 Gaussian 09, Revision A.02,
 Gaussian 09:  EM64L-G09RevA.02 11-Jun-2009

 -------------------------------------------------------------------
 # HF/6-31G* Opt=(ModRedundant, maxcycles=1000, calcfc) geom=nocrowd
 -------------------------------------------------------------------

 ------------------
 Phi Psi fixed scan
 ------------------
 Symbolic Z-matrix:
 Charge =  0 Multiplicity = 1

 SCF Done:  E(RHF) =  -984.337200668     A.U. after   17 cycles

  Exact polarizability:   0.000   0.000   0.000   0.000   0.000   0.000
 Approx polarizability: 142.624   2.660 147.618   1.343  -2.122 109.040

 SCF Done:  E(RHF) =  -984.377985607     A.U. after   15 cycles
 SCF Done:  E(RHF) =  -984.439084307     A.U. after   15 cycles
 SCF Done:  E(RHF) =  -984.487170624     A.U. after   15 cycles
 SCF Done:  E(RHF) =  -984.506411757     A.U. after   14 cycles
 SCF Done:  E(RHF) =  -984.525274685     A.U. after   16 cycles
 SCF Done:  E(RHF) =  -984.528205058     A.U. after   15 cycles
 SCF Done:  E(RHF) =  -984.498698969     A.U. after   15 cycles
 SCF Done:  E(RHF) =  -984.531589329     A.U. after   15 cycles
 SCF Done:  E(RHF) =  -984.516872289     A.U. after   15 cycles
 SCF Done:  E(RHF) =  -984.538984227     A.U. after   11 cycles
 SCF Done:  E(RHF) =  -984.538985500     A.U. after    9 cycles
 SCF Done:  E(RHF) =  -984.538995815     A.U. after   11 cycles
 SCF Done:  E(RHF) =  -984.538974908     A.U. after   13 cycles
 SCF Done:  E(RHF) =  -984.538998551     A.U. after   11 cycles
 SCF Done:  E(RHF) =  -984.538997498     A.U. after   10 cycles
 SCF Done:  E(RHF) =  -984.538998720     A.U. after   10 cycles
 SCF Done:  E(RHF) =  -984.538998846     A.U. after    8 cycles
 SCF Done:  E(RHF) =  -984.538998883     A.U. after    8 cycles
 SCF Done:  E(RHF) =  -984.538998895     A.U. after    7 cycles
 Optimization completed on the basis of negligible forces.
    -- Stationary point found.

                         Standard orientation:
 ---------------------------------------------------------------------
 Center     Atomic      Atomic             Coordinates (Angstroms)
 Number     Number       Type             X           Y           Z
 ---------------------------------------------------------------------
      1          1           0        4.956691   -3.325491    0.585625
      2          6           0        5.302737   -2.709408   -0.238062
      3          1           0        4.818174   -3.045551   -1.146886
      4          1           0        6.372833   -2.836578   -0.326327
      5          6           0        5.007698   -1.260444    0.084168
      6          8           0        5.730662   -0.607948    0.791960
      7          7           0        3.876302   -0.762901   -0.455207
      8          1           0        3.247508   -1.348072   -0.958839
      9          6           0        3.388665    0.553880   -0.127169
     10          1           0        3.555470    0.730341    0.929021
     11          6           0        4.109680    1.641855   -0.936599
     12          1           0        3.932763    1.498668   -1.996801
     13          1           0        3.776567    2.638557   -0.665244
     14          1           0        5.171858    1.575677   -0.744551
     15          6           0        1.883942    0.565942   -0.404096
     16          8           0        1.371085   -0.278824   -1.075930
     17          7           0        1.231509    1.679701    0.059593
     18          1           0        1.840091    2.287181    0.563680
     19          6           0       -0.128401    1.788375    0.596122
     20          1           0       -0.031591    2.024631    1.651930
     21          6           0       -0.837763    2.955324   -0.095664
     22          1           0       -1.043144    2.723341   -1.134662
     23          1           0       -1.762804    3.222477    0.402865
     24          1           0       -0.196065    3.828487   -0.074683
     25          6           0       -0.906295    0.464640    0.633739
     26          8           0       -0.374734   -0.546828    0.999519
     27          7           0       -2.245233    0.562883    0.501032
     28          1           0       -2.669803    1.349856    0.064926
     29          6           0       -3.084242   -0.610822    0.593667
     30          1           0       -2.538731   -1.457942    0.196598
     31          6           0       -3.479198   -0.908195    2.045576
     32          1           0       -4.043938   -0.080241    2.459953
     33          1           0       -4.083181   -1.806704    2.115642
     34          1           0       -2.582913   -1.051687    2.634258
     35          6           0       -4.321633   -0.356233   -0.263869
     36          8           0       -4.633471    0.755416   -0.606984
     37          7           0       -5.048063   -1.444467   -0.572729
     38          1           0       -4.681160   -2.343226   -0.361034
     39          6           0       -6.241081   -1.356442   -1.389933
     40          1           0       -6.002117   -1.131534   -2.423021
     41          1           0       -6.760963   -2.303799   -1.345697
     42          1           0       -6.890137   -0.580268   -1.011370
 ---------------------------------------------------------------------

 The electronic state is 1-A.
 Alpha  occ. eigenvalues --  -20.53950 -20.53357 -20.52351 -20.51010 -15.59930
 Alpha  occ. eigenvalues --  -15.59073 -15.58487 -15.57144 -11.35833 -11.35322
 Alpha  occ. eigenvalues --  -11.35321 -11.33768 -11.29674 -11.28439 -11.27586
 Alpha  occ. eigenvalues --  -11.26768 -11.23348 -11.22755 -11.22276 -11.22040
 Alpha  occ. eigenvalues --   -1.41017  -1.40568  -1.39193  -1.37819  -1.24740
 Alpha  occ. eigenvalues --   -1.24606  -1.24059  -1.22852  -1.07599  -1.04885
 Alpha  occ. eigenvalues --   -1.02505  -0.98148  -0.96716  -0.91559  -0.89801
 Alpha  occ. eigenvalues --   -0.87265  -0.81748  -0.79776  -0.78962  -0.77814
 Alpha  occ. eigenvalues --   -0.73255  -0.72580  -0.67949  -0.67842  -0.66873
 Alpha  occ. eigenvalues --   -0.65415  -0.64713  -0.64181  -0.63989  -0.62773
 Alpha  occ. eigenvalues --   -0.61426  -0.60519  -0.60228  -0.59256  -0.58371
 Alpha  occ. eigenvalues --   -0.57865  -0.56510  -0.56360  -0.56205  -0.55706
 Alpha  occ. eigenvalues --   -0.55393  -0.55094  -0.54267  -0.53621  -0.53059
 Alpha  occ. eigenvalues --   -0.52285  -0.51946  -0.49856  -0.48658  -0.43346
 Alpha  occ. eigenvalues --   -0.42652  -0.41807  -0.40839  -0.40645  -0.40158
 Alpha  occ. eigenvalues --   -0.38693  -0.37544
 Alpha virt. eigenvalues --    0.17202   0.18797   0.19044   0.20816   0.21358
 Alpha virt. eigenvalues --    0.22815   0.24850   0.24976   0.26125   0.27806
 Alpha virt. eigenvalues --    0.28015   0.29022   0.29311   0.29714   0.30592

 Mulliken atomic charges:
              1
     1  H    0.201810
     2  C   -0.577384
     3  H    0.174915
     4  H    0.206300
     5  C    0.753402
     6  O   -0.624093
     7  N   -0.818627
     8  H    0.422644
     9  C   -0.040034
    10  H    0.213093
    11  C   -0.485064
    12  H    0.177923
    13  H    0.151142
    14  H    0.215143
    15  C    0.807368
    16  O   -0.598192
    17  N   -0.825923
    18  H    0.377961
    19  C   -0.018977
    20  H    0.210523
    21  C   -0.504315
    22  H    0.194526
    23  H    0.173698
    24  H    0.179095
    25  C    0.787691
    26  O   -0.614958
    27  N   -0.850526
    28  H    0.437187
    29  C   -0.037005
    30  H    0.222793
    31  C   -0.480073
    32  H    0.177395
    33  H    0.158290
    34  H    0.209454
    35  C    0.773877
    36  O   -0.632263
    37  N   -0.797575
    38  H    0.390910
    39  C   -0.273223
    40  H    0.184864
    41  H    0.172725
    42  H    0.203501
 Sum of Mulliken atomic charges =   0.00000

 Dipole moment (field-independent basis, Debye):
    X=             -4.5265    Y=             -0.5115    Z=             -0.2385  Tot=              4.5615
 Quadrupole moment (field-independent basis, Debye-Ang):
   XX=           -129.8485   YY=           -102.7470   ZZ=           -122.0877
   XY=             15.2061   XZ=             -8.4399   YZ=              7.1960

 Normal termination of Gaussian 09 at Mon Dec 26 17:46:02 2016.
