 Gaussian 09, Revision A.02,
 Gaussian 09:  EM64L-G09RevA.02 11-Jun-2009

 -------------------------------------------------------------------
 # HF/6-31G* Opt=(ModRedundant, maxcycles=1000, calcfc) geom=nocrowd
 -------------------------------------------------------------------

 ------------------
 Phi Psi fixed scan
 ------------------
 Symbolic Z-matrix:
 Charge =  0 Multiplicity = 1

 SCF Done:  E(RHF) =  -984.490630296     A.U. after   15 cycles

  Exact polarizability:   0.000   0.000   0.000   0.000   0.000   0.000
 Approx polarizability: 133.545  -6.387 127.922   2.897 -15.089 129.538

 SCF Done:  E(RHF) =  -984.510398930     A.U. after   13 cycles
 SCF Done:  E(RHF) =  -984.534358215     A.U. after   14 cycles
 SCF Done:  E(RHF) =  -984.524267582     A.U. after   15 cycles
 SCF Done:  E(RHF) =  -984.544070183     A.U. after   14 cycles
 SCF Done:  E(RHF) =  -984.546154070     A.U. after   12 cycles
 SCF Done:  E(RHF) =  -984.548679882     A.U. after   14 cycles
 SCF Done:  E(RHF) =  -984.550205533     A.U. after   13 cycles
 SCF Done:  E(RHF) =  -984.550968235     A.U. after   15 cycles
 SCF Done:  E(RHF) =  -984.551568461     A.U. after   14 cycles
 SCF Done:  E(RHF) =  -984.552147880     A.U. after    9 cycles
 SCF Done:  E(RHF) =  -984.552148987     A.U. after    9 cycles
 SCF Done:  E(RHF) =  -984.552149859     A.U. after    9 cycles
 SCF Done:  E(RHF) =  -984.552150920     A.U. after    9 cycles
 SCF Done:  E(RHF) =  -984.552152524     A.U. after   10 cycles
 SCF Done:  E(RHF) =  -984.552154376     A.U. after   10 cycles
 SCF Done:  E(RHF) =  -984.552155421     A.U. after    9 cycles
 SCF Done:  E(RHF) =  -984.552155685     A.U. after    8 cycles
 SCF Done:  E(RHF) =  -984.552155749     A.U. after    8 cycles
 SCF Done:  E(RHF) =  -984.552155761     A.U. after    7 cycles
 Optimization completed.
    -- Stationary point found.

                         Standard orientation:
 ---------------------------------------------------------------------
 Center     Atomic      Atomic             Coordinates (Angstroms)
 Number     Number       Type             X           Y           Z
 ---------------------------------------------------------------------
      1          1           0       -6.059394   -2.902038   -1.024801
      2          6           0       -5.454964   -2.637410   -0.167307
      3          1           0       -4.606936   -3.307936   -0.100284
      4          1           0       -6.067089   -2.758076    0.719839
      5          6           0       -5.059348   -1.181450   -0.284702
      6          8           0       -5.855342   -0.335077   -0.600194
      7          7           0       -3.774083   -0.896475    0.004586
      8          1           0       -3.124689   -1.613152    0.238786
      9          6           0       -3.250933    0.445039   -0.061812
     10          1           0       -3.687579    0.935913   -0.922932
     11          6           0       -3.580128    1.258034    1.198291
     12          1           0       -3.131634    0.798277    2.071701
     13          1           0       -3.213264    2.276632    1.121097
     14          1           0       -4.653883    1.291365    1.326306
     15          6           0       -1.738962    0.342520   -0.238044
     16          8           0       -1.139880   -0.648318    0.075963
     17          7           0       -1.157629    1.430280   -0.807005
     18          1           0       -1.785550    2.174956   -1.016498
     19          6           0        0.221403    1.883476   -0.634525
     20          1           0        0.692434    1.885410   -1.611805
     21          6           0        0.240070    3.307360   -0.079990
     22          1           0       -0.189223    3.326984    0.912852
     23          1           0        1.258074    3.676678   -0.025229
     24          1           0       -0.319738    3.975365   -0.728355
     25          6           0        1.042437    0.988159    0.301915
     26          8           0        0.805948    0.944835    1.478667
     27          7           0        2.127867    0.426474   -0.256269
     28          1           0        2.245858    0.409403   -1.244793
     29          6           0        3.003352   -0.440862    0.496842
     30          1           0        3.182712    0.023036    1.458046
     31          6           0        2.398652   -1.835100    0.713080
     32          1           0        2.243058   -2.328134   -0.240083
     33          1           0        3.053780   -2.453311    1.318790
     34          1           0        1.444989   -1.739049    1.213268
     35          6           0        4.307640   -0.549735   -0.285510
     36          8           0        4.334046   -0.411308   -1.481379
     37          7           0        5.398824   -0.857487    0.437225
     38          1           0        5.332496   -0.875487    1.428124
     39          6           0        6.698126   -1.027490   -0.179615
     40          1           0        6.626147   -1.707727   -1.016277
     41          1           0        7.094799   -0.084491   -0.537320
     42          1           0        7.377544   -1.440488    0.553604
 ---------------------------------------------------------------------

 The electronic state is 1-A.
 Alpha  occ. eigenvalues --  -20.53835 -20.53413 -20.52041 -20.51292 -15.59866
 Alpha  occ. eigenvalues --  -15.59677 -15.58461 -15.57726 -11.35830 -11.35381
 Alpha  occ. eigenvalues --  -11.34985 -11.34181 -11.29207 -11.28084 -11.27996
 Alpha  occ. eigenvalues --  -11.26587 -11.23475 -11.22655 -11.22153 -11.21829
 Alpha  occ. eigenvalues --   -1.41039  -1.40390  -1.38952  -1.38176  -1.25216
 Alpha  occ. eigenvalues --   -1.24426  -1.24010  -1.23344  -1.07464  -1.04844
 Alpha  occ. eigenvalues --   -1.02927  -0.98547  -0.96453  -0.91779  -0.89732
 Alpha  occ. eigenvalues --   -0.86520  -0.82033  -0.79930  -0.78857  -0.78461
 Alpha  occ. eigenvalues --   -0.73207  -0.72317  -0.69048  -0.67784  -0.66752
 Alpha  occ. eigenvalues --   -0.65691  -0.64840  -0.64299  -0.63189  -0.62765
 Alpha  occ. eigenvalues --   -0.61409  -0.61139  -0.60081  -0.59366  -0.58754
 Alpha  occ. eigenvalues --   -0.58025  -0.56912  -0.56406  -0.56288  -0.55901
 Alpha  occ. eigenvalues --   -0.54657  -0.54300  -0.54181  -0.53048  -0.52538
 Alpha  occ. eigenvalues --   -0.52481  -0.51816  -0.50237  -0.49193  -0.43041
 Alpha  occ. eigenvalues --   -0.42696  -0.42215  -0.41104  -0.40283  -0.39940
 Alpha  occ. eigenvalues --   -0.38504  -0.38243
 Alpha virt. eigenvalues --    0.18540   0.18714   0.19831   0.21080   0.21160
 Alpha virt. eigenvalues --    0.21481   0.24176   0.24194   0.26131   0.27057
 Alpha virt. eigenvalues --    0.27988   0.28570   0.29043   0.29789   0.30525

 Mulliken atomic charges:
              1
     1  H    0.207065
     2  C   -0.575078
     3  H    0.172846
     4  H    0.202674
     5  C    0.757187
     6  O   -0.624138
     7  N   -0.822235
     8  H    0.419069
     9  C   -0.045625
    10  H    0.217832
    11  C   -0.487110
    12  H    0.188361
    13  H    0.154308
    14  H    0.210908
    15  C    0.804891
    16  O   -0.621180
    17  N   -0.827926
    18  H    0.385695
    19  C    0.001729
    20  H    0.192784
    21  C   -0.510237
    22  H    0.209531
    23  H    0.185622
    24  H    0.163956
    25  C    0.818848
    26  O   -0.634701
    27  N   -0.833660
    28  H    0.419127
    29  C   -0.043656
    30  H    0.211842
    31  C   -0.489454
    32  H    0.180047
    33  H    0.154282
    34  H    0.231363
    35  C    0.782113
    36  O   -0.632752
    37  N   -0.800469
    38  H    0.390307
    39  C   -0.271752
    40  H    0.201830
    41  H    0.184450
    42  H    0.171305
 Sum of Mulliken atomic charges =   0.00000

 Dipole moment (field-independent basis, Debye):
    X=              4.2917    Y=              0.2456    Z=              1.1359  Tot=              4.4462
 Quadrupole moment (field-independent basis, Debye-Ang):
   XX=           -121.6807   YY=           -105.8400   ZZ=           -125.2455
   XY=              0.3203   XZ=              8.0755   YZ=             -6.5834

 Normal termination of Gaussian 09 at Mon Dec 26 14:41:42 2016.
