 Gaussian 09, Revision A.02,
 Gaussian 09:  EM64L-G09RevA.02 11-Jun-2009

 -------------------------------------------------------------------
 # HF/6-31G* Opt=(ModRedundant, maxcycles=1000, calcfc) geom=nocrowd
 -------------------------------------------------------------------

 ------------------
 Phi Psi fixed scan
 ------------------
 Symbolic Z-matrix:
 Charge =  0 Multiplicity = 1

 SCF Done:  E(RHF) =  -984.173179906     A.U. after   19 cycles

  Exact polarizability:   0.000   0.000   0.000   0.000   0.000   0.000
 Approx polarizability: 151.102  -5.451 145.766  10.910  -2.850 113.791

 SCF Done:  E(RHF) =  -984.246315668     A.U. after   16 cycles
 SCF Done:  E(RHF) =  -984.357001212     A.U. after   15 cycles
 SCF Done:  E(RHF) =  -984.432810535     A.U. after   15 cycles
 SCF Done:  E(RHF) =  -984.477904868     A.U. after   13 cycles
 SCF Done:  E(RHF) =  -984.506923596     A.U. after   14 cycles
 SCF Done:  E(RHF) =  -984.523475779     A.U. after   14 cycles
 SCF Done:  E(RHF) =  -984.532513585     A.U. after   14 cycles
 SCF Done:  E(RHF) =  -984.443682702     A.U. after   15 cycles
 SCF Done:  E(RHF) =  -984.538608113     A.U. after   15 cycles
 SCF Done:  E(RHF) =  -984.546369940     A.U. after   10 cycles
 SCF Done:  E(RHF) =  -984.546370644     A.U. after    8 cycles
 SCF Done:  E(RHF) =  -984.546371293     A.U. after    9 cycles
 SCF Done:  E(RHF) =  -984.546371748     A.U. after    8 cycles
 SCF Done:  E(RHF) =  -984.546372177     A.U. after    9 cycles
 SCF Done:  E(RHF) =  -984.546372431     A.U. after    9 cycles
 SCF Done:  E(RHF) =  -984.546372637     A.U. after    9 cycles
 SCF Done:  E(RHF) =  -984.546372684     A.U. after    8 cycles
 SCF Done:  E(RHF) =  -984.546372711     A.U. after    7 cycles
 SCF Done:  E(RHF) =  -984.546372722     A.U. after    7 cycles
 Optimization completed.
    -- Stationary point found.

                         Standard orientation:
 ---------------------------------------------------------------------
 Center     Atomic      Atomic             Coordinates (Angstroms)
 Number     Number       Type             X           Y           Z
 ---------------------------------------------------------------------
      1          1           0        5.614114    2.701369   -1.436092
      2          6           0        4.869281    2.659868   -0.652921
      3          1           0        3.982724    3.198908   -0.963967
      4          1           0        5.281312    3.145578    0.225289
      5          6           0        4.597241    1.209576   -0.318752
      6          8           0        5.483474    0.397857   -0.251211
      7          7           0        3.307220    0.894575   -0.081463
      8          1           0        2.586592    1.578388   -0.142962
      9          6           0        2.899003   -0.441101    0.274150
     10          1           0        3.495257   -1.136883   -0.301744
     11          6           0        3.098215   -0.727943    1.769280
     12          1           0        2.503115   -0.045624    2.366213
     13          1           0        2.813480   -1.744722    2.020978
     14          1           0        4.142629   -0.594261    2.018065
     15          6           0        1.421747   -0.583600   -0.094704
     16          8           0        0.717592    0.392536   -0.156522
     17          7           0        1.026721   -1.851724   -0.297981
     18          1           0        1.759445   -2.522822   -0.229703
     19          6           0       -0.256974   -2.511712   -0.576867
     20          1           0       -0.154367   -2.983887   -1.543798
     21          6           0       -0.470893   -3.607959    0.478576
     22          1           0       -0.608418   -3.168301    1.460331
     23          1           0       -1.341269   -4.198449    0.227567
     24          1           0        0.389284   -4.269577    0.518406
     25          6           0       -1.596331   -1.764633   -0.709507
     26          8           0       -2.436361   -2.352187   -1.347895
     27          7           0       -1.849401   -0.631101   -0.050041
     28          1           0       -1.099218   -0.061468    0.282591
     29          6           0       -3.164620   -0.029084   -0.128402
     30          1           0       -3.535151   -0.137132   -1.140272
     31          6           0       -4.153586   -0.697505    0.835014
     32          1           0       -3.805895   -0.592826    1.856403
     33          1           0       -5.137642   -0.246733    0.755545
     34          1           0       -4.237492   -1.748790    0.593975
     35          6           0       -3.032825    1.448204    0.223819
     36          8           0       -2.203306    1.842561    0.998333
     37          7           0       -3.946999    2.259363   -0.344879
     38          1           0       -4.523921    1.900867   -1.069516
     39          6           0       -3.956466    3.684523   -0.091019
     40          1           0       -3.117243    4.181754   -0.564381
     41          1           0       -4.877236    4.099888   -0.478371
     42          1           0       -3.906839    3.868983    0.972349
 ---------------------------------------------------------------------

 The electronic state is 1-A.
 Alpha  occ. eigenvalues --  -20.54591 -20.52654 -20.52124 -20.51712 -15.61104
 Alpha  occ. eigenvalues --  -15.59023 -15.58152 -15.57384 -11.37042 -11.35250
 Alpha  occ. eigenvalues --  -11.34688 -11.34569 -11.29738 -11.28646 -11.27614
 Alpha  occ. eigenvalues --  -11.26073 -11.23606 -11.22926 -11.22795 -11.21897
 Alpha  occ. eigenvalues --   -1.41682  -1.39848  -1.39079  -1.38618  -1.26206
 Alpha  occ. eigenvalues --   -1.23857  -1.23764  -1.23195  -1.07794  -1.04737
 Alpha  occ. eigenvalues --   -1.03365  -0.98925  -0.96017  -0.91640  -0.89772
 Alpha  occ. eigenvalues --   -0.87181  -0.82703  -0.79584  -0.79121  -0.78083
 Alpha  occ. eigenvalues --   -0.73813  -0.72705  -0.69469  -0.67570  -0.66299
 Alpha  occ. eigenvalues --   -0.65893  -0.65550  -0.63685  -0.63161  -0.62815
 Alpha  occ. eigenvalues --   -0.62089  -0.61445  -0.59821  -0.59440  -0.58818
 Alpha  occ. eigenvalues --   -0.57360  -0.57016  -0.56843  -0.56395  -0.55723
 Alpha  occ. eigenvalues --   -0.55100  -0.54828  -0.54294  -0.53124  -0.53056
 Alpha  occ. eigenvalues --   -0.52442  -0.51900  -0.49924  -0.49531  -0.43852
 Alpha  occ. eigenvalues --   -0.42365  -0.42055  -0.41509  -0.40816  -0.39515
 Alpha  occ. eigenvalues --   -0.38583  -0.37989
 Alpha virt. eigenvalues --    0.18113   0.18560   0.19424   0.20677   0.21133
 Alpha virt. eigenvalues --    0.21721   0.23918   0.26256   0.26564   0.27362
 Alpha virt. eigenvalues --    0.28260   0.28940   0.29154   0.29900   0.30351

 Mulliken atomic charges:
              1
     1  H    0.208564
     2  C   -0.576539
     3  H    0.175319
     4  H    0.203126
     5  C    0.756094
     6  O   -0.622698
     7  N   -0.822463
     8  H    0.422093
     9  C   -0.040001
    10  H    0.218117
    11  C   -0.488342
    12  H    0.184643
    13  H    0.156470
    14  H    0.212836
    15  C    0.811924
    16  O   -0.652152
    17  N   -0.852180
    18  H    0.392419
    19  C    0.010680
    20  H    0.224085
    21  C   -0.500948
    22  H    0.184870
    23  H    0.212424
    24  H    0.162515
    25  C    0.760518
    26  O   -0.640611
    27  N   -0.851546
    28  H    0.490560
    29  C   -0.021329
    30  H    0.205640
    31  C   -0.488049
    32  H    0.182773
    33  H    0.160777
    34  H    0.204951
    35  C    0.763461
    36  O   -0.616707
    37  N   -0.800181
    38  H    0.387610
    39  C   -0.271985
    40  H    0.181953
    41  H    0.169058
    42  H    0.202254
 Sum of Mulliken atomic charges =   0.00000

 Dipole moment (field-independent basis, Debye):
    X=             -2.3912    Y=              0.6750    Z=             -0.2324  Tot=              2.4955
 Quadrupole moment (field-independent basis, Debye-Ang):
   XX=           -128.9205   YY=           -106.8016   ZZ=           -122.5690
   XY=            -10.4318   XZ=              2.6979   YZ=            -10.5672

 Normal termination of Gaussian 09 at Mon Dec 26 14:12:11 2016.
