 Gaussian 09, Revision A.02,
 Gaussian 09:  EM64L-G09RevA.02 11-Jun-2009

 -------------------------------------------
 # HF/6-31G* Opt=(ModRedundant) geom=nocrowd
 -------------------------------------------

 ------------------
 Phi Psi fixed scan
 ------------------
 Symbolic Z-matrix:
 Charge =  0 Multiplicity = 1

 SCF Done:  E(RHF) =  -492.809197666     A.U. after   15 cycles
 SCF Done:  E(RHF) =  -492.830456166     A.U. after   15 cycles
 SCF Done:  E(RHF) =  -492.835361849     A.U. after   14 cycles
 SCF Done:  E(RHF) =  -492.837418142     A.U. after   13 cycles
 SCF Done:  E(RHF) =  -492.838332771     A.U. after   13 cycles
 SCF Done:  E(RHF) =  -492.839417231     A.U. after   14 cycles
 SCF Done:  E(RHF) =  -492.840216911     A.U. after   13 cycles
 SCF Done:  E(RHF) =  -492.840657468     A.U. after   13 cycles
 SCF Done:  E(RHF) =  -492.841004033     A.U. after   13 cycles
 SCF Done:  E(RHF) =  -492.841246519     A.U. after   12 cycles
 SCF Done:  E(RHF) =  -492.842198733     A.U. after   12 cycles
 SCF Done:  E(RHF) =  -492.842307181     A.U. after   12 cycles
 SCF Done:  E(RHF) =  -492.842325652     A.U. after   11 cycles
 SCF Done:  E(RHF) =  -492.842330985     A.U. after   11 cycles
 SCF Done:  E(RHF) =  -492.842333209     A.U. after    9 cycles
 SCF Done:  E(RHF) =  -492.842334169     A.U. after    9 cycles
 SCF Done:  E(RHF) =  -492.842335210     A.U. after   10 cycles
 SCF Done:  E(RHF) =  -492.842335826     A.U. after    9 cycles
 SCF Done:  E(RHF) =  -492.842335952     A.U. after    8 cycles
 SCF Done:  E(RHF) =  -492.842335998     A.U. after    8 cycles
 Optimization completed.
    -- Stationary point found.

                         Standard orientation:
 ---------------------------------------------------------------------
 Center     Atomic      Atomic             Coordinates (Angstroms)
 Number     Number       Type             X           Y           Z
 ---------------------------------------------------------------------
      1          1           0        3.875364   -1.468588   -0.492098
      2          6           0        3.004517   -1.493273    0.145617
      3          1           0        3.328352   -1.462802    1.182047
      4          1           0        2.464926   -2.421075   -0.011881
      5          6           0        2.143442   -0.281245   -0.158785
      6          8           0        2.557716    0.634786   -0.802933
      7          7           0        0.871686   -0.374397    0.349467
      8          1           0        0.778397   -1.120119    1.004640
      9          6           0       -0.090124    0.706942    0.601089
     10          1           0       -0.206045    0.782555    1.680027
     11          6           0        0.311425    2.085879    0.083413
     12          1           0        0.416211    2.097195   -0.990954
     13          1           0       -0.466506    2.780931    0.364135
     14          1           0        1.248368    2.401637    0.518412
     15          6           0       -1.494516    0.332781    0.099786
     16          8           0       -2.305042    1.180626   -0.146177
     17          7           0       -1.812229   -0.989423    0.117781
     18          1           0       -1.062641   -1.622640   -0.039748
     19          6           0       -3.116742   -1.412441   -0.354337
     20          1           0       -3.884072   -0.871124    0.178001
     21          1           0       -3.248439   -1.234220   -1.416544
     22          1           0       -3.229522   -2.470171   -0.154595
 ---------------------------------------------------------------------

 The electronic state is 1-A.
 Alpha  occ. eigenvalues --  -20.53424 -20.52914 -15.59892 -15.58561 -11.36069
 Alpha  occ. eigenvalues --  -11.34593 -11.28831 -11.25752 -11.24192 -11.20743
 Alpha  occ. eigenvalues --   -1.40319  -1.39691  -1.25403  -1.22665  -1.05743
 Alpha  occ. eigenvalues --   -0.99540  -0.96023  -0.88048  -0.80002  -0.76516
 Alpha  occ. eigenvalues --   -0.72801  -0.70387  -0.66871  -0.63975  -0.62965
 Alpha  occ. eigenvalues --   -0.62054  -0.60771  -0.59391  -0.57317  -0.55458
 Alpha  occ. eigenvalues --   -0.53875  -0.53660  -0.52449  -0.51989  -0.50524
 Alpha  occ. eigenvalues --   -0.44665  -0.42220  -0.39686  -0.38835
 Alpha virt. eigenvalues --    0.18146   0.19132   0.20265   0.24863   0.26164
 Alpha virt. eigenvalues --    0.27637   0.28823   0.30514   0.31069   0.31509
 Alpha virt. eigenvalues --    0.33032   0.33502   0.33977   0.35378   0.36120

 Mulliken atomic charges:
              1
     1  H    0.221667
     2  C   -0.596117
     3  H    0.192632
     4  H    0.179083
     5  C    0.750649
     6  O   -0.575532
     7  N   -0.840928
     8  H    0.376038
     9  C   -0.039695
    10  H    0.203866
    11  C   -0.474191
    12  H    0.197845
    13  H    0.195354
    14  H    0.182772
    15  C    0.770450
    16  O   -0.600590
    17  N   -0.794503
    18  H    0.384203
    19  C   -0.280765
    20  H    0.204208
    21  H    0.177159
    22  H    0.166396
 Sum of Mulliken atomic charges =   0.00000

 Dipole moment (field-independent basis, Debye):
    X=              0.6787    Y=             -5.0628    Z=              2.5422  Tot=              5.7057
 Quadrupole moment (field-independent basis, Debye-Ang):
   XX=            -68.0207   YY=            -58.4624   ZZ=            -60.0480
   XY=              0.9278   XZ=              5.2048   YZ=              2.3153

 Normal termination of Gaussian 09 at Fri Feb 10 00:54:34 2017.
