 Gaussian 09, Revision A.02,
 Gaussian 09:  EM64L-G09RevA.02 11-Jun-2009

 -------------------------------------------
 # HF/6-31G* Opt=(ModRedundant) geom=nocrowd
 -------------------------------------------

 ------------------
 Phi Psi fixed scan
 ------------------
 Symbolic Z-matrix:
 Charge =  0 Multiplicity = 1

 SCF Done:  E(RHF) =  -492.809921879     A.U. after   15 cycles
 SCF Done:  E(RHF) =  -492.832604611     A.U. after   15 cycles
 SCF Done:  E(RHF) =  -492.838042820     A.U. after   14 cycles
 SCF Done:  E(RHF) =  -492.840961561     A.U. after   13 cycles
 SCF Done:  E(RHF) =  -492.842993659     A.U. after   13 cycles
 SCF Done:  E(RHF) =  -492.843495181     A.U. after   13 cycles
 SCF Done:  E(RHF) =  -492.844123811     A.U. after   13 cycles
 SCF Done:  E(RHF) =  -492.844192317     A.U. after   17 cycles
 SCF Done:  E(RHF) =  -492.844329003     A.U. after   12 cycles
 SCF Done:  E(RHF) =  -492.844438133     A.U. after   11 cycles
 SCF Done:  E(RHF) =  -492.845102197     A.U. after   12 cycles
 SCF Done:  E(RHF) =  -492.845121947     A.U. after   11 cycles
 SCF Done:  E(RHF) =  -492.845143895     A.U. after   11 cycles
 SCF Done:  E(RHF) =  -492.845148207     A.U. after   11 cycles
 SCF Done:  E(RHF) =  -492.845149968     A.U. after   10 cycles
 SCF Done:  E(RHF) =  -492.845151795     A.U. after   11 cycles
 SCF Done:  E(RHF) =  -492.845152621     A.U. after    9 cycles
 SCF Done:  E(RHF) =  -492.845153072     A.U. after    9 cycles
 SCF Done:  E(RHF) =  -492.845153211     A.U. after    9 cycles
 SCF Done:  E(RHF) =  -492.845153255     A.U. after    8 cycles
 Optimization completed.
    -- Stationary point found.

                         Standard orientation:
 ---------------------------------------------------------------------
 Center     Atomic      Atomic             Coordinates (Angstroms)
 Number     Number       Type             X           Y           Z
 ---------------------------------------------------------------------
      1          1           0       -3.854769   -1.480552    0.433465
      2          6           0       -3.010310   -1.447312   -0.238518
      3          1           0       -3.375878   -1.320942   -1.253499
      4          1           0       -2.469628   -2.386505   -0.189883
      5          6           0       -2.133775   -0.267178    0.138402
      6          8           0       -2.527609    0.598602    0.861060
      7          7           0       -0.877871   -0.323401   -0.408610
      8          1           0       -0.784854   -1.031699   -1.104002
      9          6           0        0.097782    0.757692   -0.579221
     10          1           0        0.188518    0.943381   -1.646519
     11          6           0       -0.260103    2.085508    0.088236
     12          1           0       -0.348442    1.984940    1.160063
     13          1           0        0.532215    2.785017   -0.135405
     14          1           0       -1.195794    2.468823   -0.291222
     15          6           0        1.510437    0.323722   -0.158892
     16          8           0        2.394329    1.132975   -0.098567
     17          7           0        1.727467   -1.005146   -0.007885
     18          1           0        0.939645   -1.556775    0.242132
     19          6           0        3.028670   -1.477093    0.422084
     20          1           0        3.791219   -1.064405   -0.220981
     21          1           0        3.252336   -1.189667    1.444169
     22          1           0        3.048294   -2.556433    0.344664
 ---------------------------------------------------------------------

 The electronic state is 1-A.
 Alpha  occ. eigenvalues --  -20.53397 -20.52566 -15.59881 -15.58605 -11.36104
 Alpha  occ. eigenvalues --  -11.34522 -11.28786 -11.25792 -11.24208 -11.20926
 Alpha  occ. eigenvalues --   -1.40290  -1.39463  -1.25463  -1.22681  -1.05781
 Alpha  occ. eigenvalues --   -0.99573  -0.96085  -0.88194  -0.79949  -0.76767
 Alpha  occ. eigenvalues --   -0.72947  -0.70287  -0.66947  -0.63623  -0.62906
 Alpha  occ. eigenvalues --   -0.62151  -0.60702  -0.59487  -0.57319  -0.55494
 Alpha  occ. eigenvalues --   -0.54481  -0.53666  -0.52534  -0.52047  -0.50189
 Alpha  occ. eigenvalues --   -0.44400  -0.42248  -0.39556  -0.38791
 Alpha virt. eigenvalues --    0.18438   0.19236   0.20372   0.24708   0.26215
 Alpha virt. eigenvalues --    0.28181   0.28611   0.30387   0.31006   0.31447
 Alpha virt. eigenvalues --    0.33048   0.33514   0.34069   0.35416   0.35936

 Mulliken atomic charges:
              1
     1  H    0.221025
     2  C   -0.594534
     3  H    0.194714
     4  H    0.177129
     5  C    0.749833
     6  O   -0.578003
     7  N   -0.848991
     8  H    0.379709
     9  C   -0.027148
    10  H    0.206798
    11  C   -0.482718
    12  H    0.193863
    13  H    0.200864
    14  H    0.186877
    15  C    0.765935
    16  O   -0.608973
    17  N   -0.797812
    18  H    0.391142
    19  C   -0.279025
    20  H    0.204786
    21  H    0.177832
    22  H    0.166698
 Sum of Mulliken atomic charges =   0.00000

 Dipole moment (field-independent basis, Debye):
    X=             -0.9571    Y=             -4.8231    Z=             -2.1949  Tot=              5.3848
 Quadrupole moment (field-independent basis, Debye-Ang):
   XX=            -69.0395   YY=            -58.3448   ZZ=            -59.7739
   XY=             -1.4482   XZ=              6.8886   YZ=             -1.8324

 Normal termination of Gaussian 09 at Fri Feb 10 00:51:55 2017.
