 Gaussian 09, Revision A.02,
 Gaussian 09:  EM64L-G09RevA.02 11-Jun-2009

 -------------------------------------------
 # HF/6-31G* Opt=(ModRedundant) geom=nocrowd
 -------------------------------------------

 ------------------
 Phi Psi fixed scan
 ------------------
 Symbolic Z-matrix:
 Charge =  0 Multiplicity = 1

 SCF Done:  E(RHF) =  -492.817607938     A.U. after   15 cycles
 SCF Done:  E(RHF) =  -492.840966608     A.U. after   15 cycles
 SCF Done:  E(RHF) =  -492.845997695     A.U. after   14 cycles
 SCF Done:  E(RHF) =  -492.848007788     A.U. after   13 cycles
 SCF Done:  E(RHF) =  -492.848238341     A.U. after   12 cycles
 SCF Done:  E(RHF) =  -492.848264710     A.U. after   12 cycles
 SCF Done:  E(RHF) =  -492.848399637     A.U. after   11 cycles
 SCF Done:  E(RHF) =  -492.848398375     A.U. after   10 cycles
 SCF Done:  E(RHF) =  -492.848416611     A.U. after   11 cycles
 SCF Done:  E(RHF) =  -492.848420751     A.U. after    9 cycles
 SCF Done:  E(RHF) =  -492.848951083     A.U. after   11 cycles
 SCF Done:  E(RHF) =  -492.848946396     A.U. after   11 cycles
 SCF Done:  E(RHF) =  -492.848954104     A.U. after   10 cycles
 SCF Done:  E(RHF) =  -492.848954639     A.U. after    8 cycles
 SCF Done:  E(RHF) =  -492.848955091     A.U. after    8 cycles
 SCF Done:  E(RHF) =  -492.848955465     A.U. after    9 cycles
 SCF Done:  E(RHF) =  -492.848956255     A.U. after   10 cycles
 SCF Done:  E(RHF) =  -492.848957445     A.U. after   10 cycles
 SCF Done:  E(RHF) =  -492.848957777     A.U. after    9 cycles
 SCF Done:  E(RHF) =  -492.848957795     A.U. after    7 cycles
 Optimization completed.
    -- Stationary point found.

                         Standard orientation:
 ---------------------------------------------------------------------
 Center     Atomic      Atomic             Coordinates (Angstroms)
 Number     Number       Type             X           Y           Z
 ---------------------------------------------------------------------
      1          1           0        4.126088   -0.972352   -0.547208
      2          6           0        3.109505   -1.290283   -0.368600
      3          1           0        3.083419   -1.979557    0.467916
      4          1           0        2.746426   -1.814041   -1.247716
      5          6           0        2.251641   -0.063259   -0.121723
      6          8           0        2.630212    1.034613   -0.427951
      7          7           0        1.058858   -0.347257    0.454515
      8          1           0        0.842690   -1.309861    0.592577
      9          6           0       -0.088578    0.510953    0.702650
     10          1           0       -0.203630    0.619032    1.779742
     11          6           0        0.004849    1.916530    0.109373
     12          1           0        0.042356    1.901752   -0.972812
     13          1           0       -0.853912    2.497239    0.431873
     14          1           0        0.892013    2.416949    0.458759
     15          6           0       -1.320766   -0.303708    0.268058
     16          8           0       -1.319774   -1.501561    0.402779
     17          7           0       -2.392354    0.359942   -0.195269
     18          1           0       -2.319804    1.325044   -0.408235
     19          6           0       -3.590095   -0.348008   -0.600645
     20          1           0       -3.924716   -0.998293    0.194816
     21          1           0       -4.363340    0.377791   -0.813233
     22          1           0       -3.415964   -0.950258   -1.484500
 ---------------------------------------------------------------------

 The electronic state is 1-A.
 Alpha  occ. eigenvalues --  -20.53231 -20.51461 -15.59708 -15.57812 -11.35417
 Alpha  occ. eigenvalues --  -11.34485 -11.28897 -11.26536 -11.22635 -11.22506
 Alpha  occ. eigenvalues --   -1.40366  -1.38222  -1.24400  -1.23332  -1.05930
 Alpha  occ. eigenvalues --   -0.98831  -0.96061  -0.89740  -0.80842  -0.76133
 Alpha  occ. eigenvalues --   -0.73144  -0.69003  -0.66009  -0.65145  -0.62741
 Alpha  occ. eigenvalues --   -0.61814  -0.59569  -0.58671  -0.56674  -0.56209
 Alpha  occ. eigenvalues --   -0.55732  -0.54784  -0.53045  -0.52134  -0.50329
 Alpha  occ. eigenvalues --   -0.43274  -0.40675  -0.40178  -0.37992
 Alpha virt. eigenvalues --    0.18878   0.21260   0.21642   0.24694   0.25709
 Alpha virt. eigenvalues --    0.27716   0.29038   0.30106   0.31957   0.32172
 Alpha virt. eigenvalues --    0.32396   0.33379   0.34305   0.35465   0.36424

 Mulliken atomic charges:
              1
     1  H    0.211008
     2  C   -0.587001
     3  H    0.180904
     4  H    0.195728
     5  C    0.752408
     6  O   -0.614453
     7  N   -0.829322
     8  H    0.417418
     9  C    0.001868
    10  H    0.205934
    11  C   -0.518061
    12  H    0.185443
    13  H    0.145878
    14  H    0.236629
    15  C    0.774573
    16  O   -0.638166
    17  N   -0.808766
    18  H    0.402440
    19  C   -0.271573
    20  H    0.201273
    21  H    0.170174
    22  H    0.185666
 Sum of Mulliken atomic charges =   0.00000

 Dipole moment (field-independent basis, Debye):
    X=             -2.9369    Y=              0.5231    Z=             -0.0455  Tot=              2.9835
 Quadrupole moment (field-independent basis, Debye-Ang):
   XX=            -58.2056   YY=            -63.3466   ZZ=            -59.7155
   XY=            -13.6427   XZ=              4.4894   YZ=              2.2775

 Normal termination of Gaussian 09 at Fri Feb 10 01:40:27 2017.
