 Gaussian 09, Revision A.02,
 Gaussian 09:  EM64L-G09RevA.02 11-Jun-2009

 -------------------------------------------
 # HF/6-31G* Opt=(ModRedundant) geom=nocrowd
 -------------------------------------------

 ------------------
 Phi Psi fixed scan
 ------------------
 Symbolic Z-matrix:
 Charge =  0 Multiplicity = 1

 SCF Done:  E(RHF) =  -492.813178758     A.U. after   15 cycles
 SCF Done:  E(RHF) =  -492.834840219     A.U. after   15 cycles
 SCF Done:  E(RHF) =  -492.839893845     A.U. after   14 cycles
 SCF Done:  E(RHF) =  -492.840876355     A.U. after   13 cycles
 SCF Done:  E(RHF) =  -492.841156718     A.U. after   16 cycles
 SCF Done:  E(RHF) =  -492.841287264     A.U. after   13 cycles
 SCF Done:  E(RHF) =  -492.841719077     A.U. after   12 cycles
 SCF Done:  E(RHF) =  -492.841959984     A.U. after   13 cycles
 SCF Done:  E(RHF) =  -492.842060533     A.U. after   11 cycles
 SCF Done:  E(RHF) =  -492.842150695     A.U. after   11 cycles
 SCF Done:  E(RHF) =  -492.842517353     A.U. after   13 cycles
 SCF Done:  E(RHF) =  -492.842713967     A.U. after   12 cycles
 SCF Done:  E(RHF) =  -492.842770025     A.U. after   11 cycles
 SCF Done:  E(RHF) =  -492.842781536     A.U. after   12 cycles
 SCF Done:  E(RHF) =  -492.842789357     A.U. after   12 cycles
 SCF Done:  E(RHF) =  -492.842792765     A.U. after   11 cycles
 SCF Done:  E(RHF) =  -492.842793398     A.U. after    9 cycles
 Optimization completed.
    -- Stationary point found.

                         Standard orientation:
 ---------------------------------------------------------------------
 Center     Atomic      Atomic             Coordinates (Angstroms)
 Number     Number       Type             X           Y           Z
 ---------------------------------------------------------------------
      1          1           0       -3.749387   -1.711329    0.403502
      2          6           0       -2.669949   -1.740975    0.408216
      3          1           0       -2.325288   -2.529702   -0.251924
      4          1           0       -2.330777   -1.969429    1.414165
      5          6           0       -2.143766   -0.378884   -0.005080
      6          8           0       -2.841599    0.593441    0.013525
      7          7           0       -0.838072   -0.394354   -0.394464
      8          1           0       -0.380367   -1.272200   -0.298154
      9          6           0        0.067572    0.740984   -0.601455
     10          1           0        0.254755    0.833984   -1.670308
     11          6           0       -0.426402    2.087515   -0.085448
     12          1           0       -0.646834    2.045383    0.971264
     13          1           0        0.362047    2.814638   -0.236005
     14          1           0       -1.311849    2.402185   -0.613066
     15          6           0        1.401665    0.374518    0.068056
     16          8           0        1.862078    0.982916    0.988183
     17          7           0        1.994810   -0.747489   -0.433871
     18          1           0        1.754583   -1.008678   -1.364555
     19          6           0        3.304962   -1.153636    0.038511
     20          1           0        3.297762   -1.200803    1.116809
     21          1           0        3.526845   -2.136611   -0.355586
     22          1           0        4.083008   -0.462537   -0.268266
 ---------------------------------------------------------------------

 The electronic state is 1-A.
 Alpha  occ. eigenvalues --  -20.54023 -20.52224 -15.59754 -15.58998 -11.35477
 Alpha  occ. eigenvalues --  -11.35101 -11.28753 -11.26643 -11.23315 -11.20573
 Alpha  occ. eigenvalues --   -1.40816  -1.39059  -1.25301  -1.23062  -1.05575
 Alpha  occ. eigenvalues --   -0.98920  -0.96819  -0.87991  -0.79857  -0.77386
 Alpha  occ. eigenvalues --   -0.73349  -0.68731  -0.66699  -0.65293  -0.63189
 Alpha  occ. eigenvalues --   -0.62111  -0.60447  -0.59005  -0.56740  -0.56277
 Alpha  occ. eigenvalues --   -0.53929  -0.53513  -0.52781  -0.51726  -0.50665
 Alpha  occ. eigenvalues --   -0.44425  -0.41487  -0.40212  -0.38580
 Alpha virt. eigenvalues --    0.17938   0.20136   0.21518   0.23478   0.26328
 Alpha virt. eigenvalues --    0.26842   0.28700   0.30463   0.30713   0.31121
 Alpha virt. eigenvalues --    0.32923   0.33668   0.34303   0.35466   0.36508

 Mulliken atomic charges:
              1
     1  H    0.216462
     2  C   -0.592154
     3  H    0.174408
     4  H    0.197313
     5  C    0.755813
     6  O   -0.593483
     7  N   -0.835172
     8  H    0.391797
     9  C   -0.004773
    10  H    0.180299
    11  C   -0.470691
    12  H    0.192202
    13  H    0.169519
    14  H    0.207169
    15  C    0.734045
    16  O   -0.582441
    17  N   -0.797800
    18  H    0.379850
    19  C   -0.279296
    20  H    0.207745
    21  H    0.170716
    22  H    0.178473
 Sum of Mulliken atomic charges =   0.00000

 Dipole moment (field-independent basis, Debye):
    X=              2.4657    Y=             -4.4664    Z=             -2.6704  Tot=              5.7584
 Quadrupole moment (field-independent basis, Debye-Ang):
   XX=            -67.0698   YY=            -58.1808   ZZ=            -60.0436
   XY=              0.9745   XZ=             -6.2468   YZ=             -2.2731

 Normal termination of Gaussian 09 at Fri Feb 10 00:59:32 2017.
