 Gaussian 09, Revision A.02,
 Gaussian 09:  EM64L-G09RevA.02 11-Jun-2009

 -------------------------------------------
 # HF/6-31G* Opt=(ModRedundant) geom=nocrowd
 -------------------------------------------

 ------------------
 Phi Psi fixed scan
 ------------------
 Symbolic Z-matrix:
 Charge =  0 Multiplicity = 1

 SCF Done:  E(RHF) =  -492.819157254     A.U. after   15 cycles
 SCF Done:  E(RHF) =  -492.840388057     A.U. after   14 cycles
 SCF Done:  E(RHF) =  -492.845318103     A.U. after   13 cycles
 SCF Done:  E(RHF) =  -492.847148646     A.U. after   13 cycles
 SCF Done:  E(RHF) =  -492.847789491     A.U. after   13 cycles
 SCF Done:  E(RHF) =  -492.847751991     A.U. after   13 cycles
 SCF Done:  E(RHF) =  -492.848113438     A.U. after   11 cycles
 SCF Done:  E(RHF) =  -492.848152715     A.U. after   11 cycles
 SCF Done:  E(RHF) =  -492.848201593     A.U. after   12 cycles
 SCF Done:  E(RHF) =  -492.848240957     A.U. after   11 cycles
 SCF Done:  E(RHF) =  -492.848564936     A.U. after   12 cycles
 SCF Done:  E(RHF) =  -492.848608691     A.U. after   12 cycles
 SCF Done:  E(RHF) =  -492.848607622     A.U. after   11 cycles
 SCF Done:  E(RHF) =  -492.848643198     A.U. after   12 cycles
 SCF Done:  E(RHF) =  -492.848652180     A.U. after   10 cycles
 SCF Done:  E(RHF) =  -492.848665978     A.U. after   12 cycles
 SCF Done:  E(RHF) =  -492.848670079     A.U. after    9 cycles
 SCF Done:  E(RHF) =  -492.848673715     A.U. after   11 cycles
 SCF Done:  E(RHF) =  -492.848674197     A.U. after    8 cycles
 SCF Done:  E(RHF) =  -492.848674585     A.U. after    8 cycles
 Optimization completed.
    -- Stationary point found.

                         Standard orientation:
 ---------------------------------------------------------------------
 Center     Atomic      Atomic             Coordinates (Angstroms)
 Number     Number       Type             X           Y           Z
 ---------------------------------------------------------------------
      1          1           0       -3.818691   -1.494575    0.327042
      2          6           0       -3.026239   -1.352157   -0.392525
      3          1           0       -3.466730   -1.074274   -1.345500
      4          1           0       -2.487019   -2.283342   -0.529700
      5          6           0       -2.123354   -0.232828    0.092178
      6          8           0       -2.478023    0.533257    0.939337
      7          7           0       -0.902364   -0.210366   -0.521706
      8          1           0       -0.808283   -0.855943   -1.274872
      9          6           0        0.110724    0.843338   -0.539977
     10          1           0        0.151159    1.253343   -1.543389
     11          6           0       -0.124732    2.008154    0.426721
     12          1           0       -0.154913    1.676110    1.455265
     13          1           0        0.696034    2.701462    0.300226
     14          1           0       -1.054788    2.511761    0.211573
     15          6           0        1.518318    0.286227   -0.297602
     16          8           0        2.474740    0.961866   -0.567658
     17          7           0        1.614874   -0.964540    0.194011
     18          1           0        0.788446   -1.383915    0.551212
     19          6           0        2.897580   -1.517600    0.573750
     20          1           0        3.610897   -1.353243   -0.219965
     21          1           0        3.283785   -1.062811    1.479859
     22          1           0        2.785005   -2.582018    0.733420
 ---------------------------------------------------------------------

 The electronic state is 1-A.
 Alpha  occ. eigenvalues --  -20.53257 -20.52135 -15.59861 -15.58715 -11.36101
 Alpha  occ. eigenvalues --  -11.34373 -11.28601 -11.25918 -11.24167 -11.21501
 Alpha  occ. eigenvalues --   -1.40177  -1.39121  -1.25461  -1.22769  -1.05935
 Alpha  occ. eigenvalues --   -0.99664  -0.96155  -0.88553  -0.79785  -0.77425
 Alpha  occ. eigenvalues --   -0.73131  -0.69999  -0.66996  -0.63093  -0.62914
 Alpha  occ. eigenvalues --   -0.62374  -0.60418  -0.59621  -0.57276  -0.55620
 Alpha  occ. eigenvalues --   -0.55497  -0.53682  -0.52864  -0.52294  -0.49975
 Alpha  occ. eigenvalues --   -0.43868  -0.42136  -0.39448  -0.38609
 Alpha virt. eigenvalues --    0.19150   0.19689   0.20170   0.24261   0.26281
 Alpha virt. eigenvalues --    0.27684   0.28834   0.29947   0.30579   0.31820
 Alpha virt. eigenvalues --    0.32993   0.33320   0.34297   0.35220   0.36482

 Mulliken atomic charges:
              1
     1  H    0.219544
     2  C   -0.592151
     3  H    0.197905
     4  H    0.175526
     5  C    0.747543
     6  O   -0.585174
     7  N   -0.853011
     8  H    0.383519
     9  C   -0.009509
    10  H    0.210777
    11  C   -0.489212
    12  H    0.186852
    13  H    0.198031
    14  H    0.198721
    15  C    0.748133
    16  O   -0.620664
    17  N   -0.790811
    18  H    0.396821
    19  C   -0.274755
    20  H    0.205739
    21  H    0.178827
    22  H    0.167348
 Sum of Mulliken atomic charges =   0.00000

 Dipole moment (field-independent basis, Debye):
    X=             -1.2647    Y=             -4.2535    Z=             -1.4471  Tot=              4.6675
 Quadrupole moment (field-independent basis, Debye-Ang):
   XX=            -70.0936   YY=            -57.6235   ZZ=            -60.1797
   XY=             -1.6993   XZ=             10.2135   YZ=             -0.7349

 Normal termination of Gaussian 09 at Fri Feb 10 02:22:13 2017.
