 Gaussian 09, Revision A.02,
 Gaussian 09:  EM64L-G09RevA.02 11-Jun-2009

 -------------------------------------------
 # HF/6-31G* Opt=(ModRedundant) geom=nocrowd
 -------------------------------------------

 ------------------
 Phi Psi fixed scan
 ------------------
 Symbolic Z-matrix:
 Charge =  0 Multiplicity = 1

 SCF Done:  E(RHF) =  -492.819640433     A.U. after   15 cycles
 SCF Done:  E(RHF) =  -492.839932616     A.U. after   15 cycles
 SCF Done:  E(RHF) =  -492.843843817     A.U. after   13 cycles
 SCF Done:  E(RHF) =  -492.844452733     A.U. after   13 cycles
 SCF Done:  E(RHF) =  -492.844490328     A.U. after   13 cycles
 SCF Done:  E(RHF) =  -492.844715839     A.U. after   13 cycles
 SCF Done:  E(RHF) =  -492.844881503     A.U. after   12 cycles
 SCF Done:  E(RHF) =  -492.844992536     A.U. after   14 cycles
 SCF Done:  E(RHF) =  -492.845202315     A.U. after   13 cycles
 SCF Done:  E(RHF) =  -492.845231749     A.U. after   12 cycles
 SCF Done:  E(RHF) =  -492.845435043     A.U. after   12 cycles
 SCF Done:  E(RHF) =  -492.845461638     A.U. after   11 cycles
 SCF Done:  E(RHF) =  -492.845474883     A.U. after   10 cycles
 SCF Done:  E(RHF) =  -492.845460656     A.U. after   12 cycles
 SCF Done:  E(RHF) =  -492.845505557     A.U. after   12 cycles
 SCF Done:  E(RHF) =  -492.845517327     A.U. after   11 cycles
 SCF Done:  E(RHF) =  -492.845521248     A.U. after   10 cycles
 SCF Done:  E(RHF) =  -492.845521406     A.U. after   10 cycles
 SCF Done:  E(RHF) =  -492.845521500     A.U. after    7 cycles
 SCF Done:  E(RHF) =  -492.845521496     A.U. after    6 cycles
 Optimization completed.
    -- Stationary point found.

                         Standard orientation:
 ---------------------------------------------------------------------
 Center     Atomic      Atomic             Coordinates (Angstroms)
 Number     Number       Type             X           Y           Z
 ---------------------------------------------------------------------
      1          1           0       -4.059679   -1.307787    0.080787
      2          6           0       -2.997782   -1.503000    0.063618
      3          1           0       -2.773031   -2.225586   -0.713606
      4          1           0       -2.700709   -1.929272    1.017055
      5          6           0       -2.263197   -0.195311   -0.156357
      6          8           0       -2.811467    0.863542   -0.045063
      7          7           0       -0.955711   -0.351953   -0.512499
      8          1           0       -0.626523   -1.288798   -0.444050
      9          6           0        0.103032    0.649826   -0.445405
     10          1           0        0.334242    0.972664   -1.456739
     11          6           0       -0.198346    1.891568    0.400180
     12          1           0       -0.451683    1.609319    1.412762
     13          1           0        0.695275    2.509055    0.428906
     14          1           0       -1.009120    2.465967   -0.015911
     15          6           0        1.330277   -0.036169    0.163758
     16          8           0        1.284490   -0.554559    1.246139
     17          7           0        2.434016   -0.056211   -0.609570
     18          1           0        2.431578    0.449949   -1.463937
     19          6           0        3.690622   -0.587390   -0.123189
     20          1           0        3.531138   -1.562595    0.313241
     21          1           0        4.373818   -0.680419   -0.956660
     22          1           0        4.134748    0.055637    0.628398
 ---------------------------------------------------------------------

 The electronic state is 1-A.
 Alpha  occ. eigenvalues --  -20.53092 -20.52022 -15.59846 -15.58398 -11.35170
 Alpha  occ. eigenvalues --  -11.34649 -11.28554 -11.26633 -11.22791 -11.21475
 Alpha  occ. eigenvalues --   -1.40194  -1.38743  -1.24480  -1.23462  -1.05622
 Alpha  occ. eigenvalues --   -0.98911  -0.96595  -0.88265  -0.80244  -0.76908
 Alpha  occ. eigenvalues --   -0.73260  -0.68460  -0.66526  -0.64080  -0.63214
 Alpha  occ. eigenvalues --   -0.62043  -0.60283  -0.58524  -0.56573  -0.56275
 Alpha  occ. eigenvalues --   -0.55056  -0.54220  -0.52618  -0.51543  -0.50394
 Alpha  occ. eigenvalues --   -0.43153  -0.40625  -0.40058  -0.38913
 Alpha virt. eigenvalues --    0.19092   0.20107   0.21365   0.23050   0.25854
 Alpha virt. eigenvalues --    0.28143   0.28944   0.30736   0.31146   0.31318
 Alpha virt. eigenvalues --    0.32272   0.33323   0.34025   0.36000   0.37270

 Mulliken atomic charges:
              1
     1  H    0.213931
     2  C   -0.595802
     3  H    0.179507
     4  H    0.201122
     5  C    0.754598
     6  O   -0.598539
     7  N   -0.813264
     8  H    0.389155
     9  C    0.021186
    10  H    0.175580
    11  C   -0.499159
    12  H    0.200410
    13  H    0.153428
    14  H    0.223797
    15  C    0.721985
    16  O   -0.610998
    17  N   -0.789347
    18  H    0.389212
    19  C   -0.275413
    20  H    0.204182
    21  H    0.171191
    22  H    0.183238
 Sum of Mulliken atomic charges =   0.00000

 Dipole moment (field-independent basis, Debye):
    X=              3.4936    Y=             -1.4243    Z=             -3.0613  Tot=              4.8585
 Quadrupole moment (field-independent basis, Debye-Ang):
   XX=            -58.7647   YY=            -58.5886   ZZ=            -62.5669
   XY=              9.5313   XZ=             -6.1191   YZ=              0.7935

 Normal termination of Gaussian 09 at Fri Feb 10 01:12:46 2017.
