 Gaussian 09, Revision A.02,
 Gaussian 09:  EM64L-G09RevA.02 11-Jun-2009

 -------------------------------------------
 # HF/6-31G* Opt=(ModRedundant) geom=nocrowd
 -------------------------------------------

 ------------------
 Phi Psi fixed scan
 ------------------
 Symbolic Z-matrix:
 Charge =  0 Multiplicity = 1

 SCF Done:  E(RHF) =  -492.814624493     A.U. after   15 cycles
 SCF Done:  E(RHF) =  -492.838223539     A.U. after   16 cycles
 SCF Done:  E(RHF) =  -492.844448186     A.U. after   13 cycles
 SCF Done:  E(RHF) =  -492.845516879     A.U. after   13 cycles
 SCF Done:  E(RHF) =  -492.845716485     A.U. after   13 cycles
 SCF Done:  E(RHF) =  -492.845852123     A.U. after   13 cycles
 SCF Done:  E(RHF) =  -492.845903707     A.U. after   12 cycles
 SCF Done:  E(RHF) =  -492.845951065     A.U. after   11 cycles
 SCF Done:  E(RHF) =  -492.845971086     A.U. after   10 cycles
 SCF Done:  E(RHF) =  -492.845988008     A.U. after   11 cycles
 SCF Done:  E(RHF) =  -492.846422955     A.U. after   11 cycles
 SCF Done:  E(RHF) =  -492.846417810     A.U. after   12 cycles
 SCF Done:  E(RHF) =  -492.846449151     A.U. after   11 cycles
 SCF Done:  E(RHF) =  -492.846455151     A.U. after   11 cycles
 SCF Done:  E(RHF) =  -492.846458711     A.U. after   11 cycles
 SCF Done:  E(RHF) =  -492.846462078     A.U. after   11 cycles
 SCF Done:  E(RHF) =  -492.846464581     A.U. after   11 cycles
 SCF Done:  E(RHF) =  -492.846465554     A.U. after   10 cycles
 SCF Done:  E(RHF) =  -492.846466317     A.U. after   10 cycles
 SCF Done:  E(RHF) =  -492.846466362     A.U. after    7 cycles
 Optimization completed.
    -- Stationary point found.

                         Standard orientation:
 ---------------------------------------------------------------------
 Center     Atomic      Atomic             Coordinates (Angstroms)
 Number     Number       Type             X           Y           Z
 ---------------------------------------------------------------------
      1          1           0        3.720773   -1.367102   -0.960684
      2          6           0        3.016928   -1.414104   -0.142854
      3          1           0        3.569295   -1.398038    0.791885
      4          1           0        2.461684   -2.344152   -0.191730
      5          6           0        2.111018   -0.199272   -0.210596
      6          8           0        2.422591    0.780300   -0.828400
      7          7           0        0.954177   -0.339412    0.487541
      8          1           0        0.850296   -1.187074    1.000502
      9          6           0       -0.079683    0.647547    0.799408
     10          1           0       -0.078445    0.795368    1.872434
     11          6           0        0.076870    2.014072    0.136343
     12          1           0        0.133589    1.964970   -0.941188
     13          1           0       -0.775639    2.623489    0.418213
     14          1           0        0.978262    2.500766    0.477276
     15          6           0       -1.415701   -0.051630    0.519336
     16          8           0       -1.944096   -0.700231    1.383989
     17          7           0       -1.922117    0.057242   -0.723200
     18          1           0       -1.373435    0.490668   -1.427929
     19          6           0       -3.097379   -0.685931   -1.125254
     20          1           0       -3.878487   -0.560357   -0.389951
     21          1           0       -3.442665   -0.302040   -2.075909
     22          1           0       -2.889921   -1.745954   -1.226319
 ---------------------------------------------------------------------

 The electronic state is 1-A.
 Alpha  occ. eigenvalues --  -20.52681 -20.52496 -15.59325 -15.58864 -11.35507
 Alpha  occ. eigenvalues --  -11.34562 -11.28548 -11.26029 -11.23502 -11.22465
 Alpha  occ. eigenvalues --   -1.39738  -1.39159  -1.24593  -1.23275  -1.06065
 Alpha  occ. eigenvalues --   -0.99447  -0.95809  -0.89631  -0.79851  -0.77379
 Alpha  occ. eigenvalues --   -0.72613  -0.69753  -0.66410  -0.64405  -0.62510
 Alpha  occ. eigenvalues --   -0.62133  -0.59585  -0.59054  -0.56997  -0.56059
 Alpha  occ. eigenvalues --   -0.55611  -0.54348  -0.53236  -0.52027  -0.51453
 Alpha  occ. eigenvalues --   -0.43420  -0.41562  -0.39237  -0.38489
 Alpha virt. eigenvalues --    0.18844   0.20642   0.21819   0.22943   0.25891
 Alpha virt. eigenvalues --    0.27074   0.29016   0.30203   0.30458   0.31735
 Alpha virt. eigenvalues --    0.32783   0.33105   0.34296   0.35666   0.37059

 Mulliken atomic charges:
              1
     1  H    0.215198
     2  C   -0.589325
     3  H    0.198285
     4  H    0.179447
     5  C    0.750051
     6  O   -0.604594
     7  N   -0.830943
     8  H    0.396501
     9  C   -0.011574
    10  H    0.211727
    11  C   -0.488153
    12  H    0.180786
    13  H    0.169924
    14  H    0.205437
    15  C    0.750618
    16  O   -0.618498
    17  N   -0.789158
    18  H    0.396267
    19  C   -0.272589
    20  H    0.204204
    21  H    0.170318
    22  H    0.176074
 Sum of Mulliken atomic charges =   0.00000

 Dipole moment (field-independent basis, Debye):
    X=             -0.1327    Y=             -1.0323    Z=             -1.0809  Tot=              1.5005
 Quadrupole moment (field-independent basis, Debye-Ang):
   XX=            -64.1001   YY=            -59.2141   ZZ=            -61.8090
   XY=             -9.1852   XZ=             12.5290   YZ=              3.8078

 Normal termination of Gaussian 09 at Fri Feb 10 02:08:32 2017.
