 Gaussian 09, Revision A.02,
 Gaussian 09:  EM64L-G09RevA.02 11-Jun-2009

 -------------------------------------------
 # HF/6-31G* Opt=(ModRedundant) geom=nocrowd
 -------------------------------------------

 ------------------
 Phi Psi fixed scan
 ------------------
 Symbolic Z-matrix:
 Charge =  0 Multiplicity = 1

 SCF Done:  E(RHF) =  -492.814919555     A.U. after   15 cycles
 SCF Done:  E(RHF) =  -492.840288215     A.U. after   15 cycles
 SCF Done:  E(RHF) =  -492.845716554     A.U. after   16 cycles
 SCF Done:  E(RHF) =  -492.847198816     A.U. after   16 cycles
 SCF Done:  E(RHF) =  -492.847291743     A.U. after   12 cycles
 SCF Done:  E(RHF) =  -492.847308738     A.U. after   12 cycles
 SCF Done:  E(RHF) =  -492.847389638     A.U. after   11 cycles
 SCF Done:  E(RHF) =  -492.847389017     A.U. after   11 cycles
 SCF Done:  E(RHF) =  -492.847402079     A.U. after    9 cycles
 SCF Done:  E(RHF) =  -492.847404227     A.U. after    9 cycles
 SCF Done:  E(RHF) =  -492.847789877     A.U. after   12 cycles
 SCF Done:  E(RHF) =  -492.847808320     A.U. after   11 cycles
 SCF Done:  E(RHF) =  -492.847811265     A.U. after   10 cycles
 SCF Done:  E(RHF) =  -492.847817567     A.U. after   10 cycles
 SCF Done:  E(RHF) =  -492.847826253     A.U. after   11 cycles
 SCF Done:  E(RHF) =  -492.847830400     A.U. after   16 cycles
 SCF Done:  E(RHF) =  -492.847832359     A.U. after   10 cycles
 SCF Done:  E(RHF) =  -492.847832716     A.U. after    8 cycles
 SCF Done:  E(RHF) =  -492.847832746     A.U. after    8 cycles
 SCF Done:  E(RHF) =  -492.847832756     A.U. after    7 cycles
 Optimization completed.
    -- Stationary point found.

                         Standard orientation:
 ---------------------------------------------------------------------
 Center     Atomic      Atomic             Coordinates (Angstroms)
 Number     Number       Type             X           Y           Z
 ---------------------------------------------------------------------
      1          1           0        3.764769   -1.085690   -1.233183
      2          6           0        3.071998   -1.304719   -0.433863
      3          1           0        3.638332   -1.485589    0.474657
      4          1           0        2.513780   -2.203641   -0.669571
      5          6           0        2.172091   -0.100529   -0.228312
      6          8           0        2.503128    0.994323   -0.593422
      7          7           0        1.014923   -0.389469    0.413951
      8          1           0        0.858614   -1.340403    0.664934
      9          6           0       -0.075562    0.486348    0.829576
     10          1           0       -0.105619    0.486838    1.914882
     11          6           0        0.032836    1.936339    0.366399
     12          1           0        0.094640    2.028121   -0.709718
     13          1           0       -0.835601    2.479130    0.727443
     14          1           0        0.917204    2.400444    0.773280
     15          6           0       -1.354129   -0.257862    0.415826
     16          8           0       -1.551732   -1.359192    0.864605
     17          7           0       -2.193790    0.328953   -0.450547
     18          1           0       -1.949357    1.199132   -0.858232
     19          6           0       -3.379591   -0.354102   -0.925674
     20          1           0       -3.963073   -0.713489   -0.089957
     21          1           0       -3.974342    0.344638   -1.498282
     22          1           0       -3.124314   -1.199779   -1.553252
 ---------------------------------------------------------------------

 The electronic state is 1-A.
 Alpha  occ. eigenvalues --  -20.52678 -20.51766 -15.59513 -15.58528 -11.34971
 Alpha  occ. eigenvalues --  -11.34881 -11.28705 -11.26373 -11.22904 -11.22569
 Alpha  occ. eigenvalues --   -1.39855  -1.38556  -1.24215  -1.23619  -1.05982
 Alpha  occ. eigenvalues --   -0.99067  -0.96006  -0.89798  -0.80478  -0.76763
 Alpha  occ. eigenvalues --   -0.72820  -0.69452  -0.66009  -0.64909  -0.62561
 Alpha  occ. eigenvalues --   -0.61901  -0.59418  -0.58830  -0.56579  -0.56348
 Alpha  occ. eigenvalues --   -0.55686  -0.54551  -0.53254  -0.52004  -0.50840
 Alpha  occ. eigenvalues --   -0.43205  -0.41073  -0.39639  -0.38077
 Alpha virt. eigenvalues --    0.18958   0.21146   0.21995   0.23777   0.25607
 Alpha virt. eigenvalues --    0.27368   0.29524   0.30183   0.30679   0.31660
 Alpha virt. eigenvalues --    0.33121   0.33240   0.34015   0.35505   0.36944

 Mulliken atomic charges:
              1
     1  H    0.212113
     2  C   -0.586050
     3  H    0.198037
     4  H    0.178905
     5  C    0.751633
     6  O   -0.612513
     7  N   -0.828562
     8  H    0.407463
     9  C    0.011392
    10  H    0.205143
    11  C   -0.513388
    12  H    0.185489
    13  H    0.160165
    14  H    0.220459
    15  C    0.760620
    16  O   -0.635421
    17  N   -0.803492
    18  H    0.403177
    19  C   -0.271090
    20  H    0.200803
    21  H    0.170004
    22  H    0.185114
 Sum of Mulliken atomic charges =   0.00000

 Dipole moment (field-independent basis, Debye):
    X=             -1.7671    Y=              0.2766    Z=             -0.6333  Tot=              1.8974
 Quadrupole moment (field-independent basis, Debye-Ang):
   XX=            -59.7493   YY=            -62.6459   ZZ=            -59.9415
   XY=            -13.2921   XZ=              7.9018   YZ=              3.7103

 Normal termination of Gaussian 09 at Fri Feb 10 01:51:10 2017.
