 Gaussian 09, Revision A.02,
 Gaussian 09:  EM64L-G09RevA.02 11-Jun-2009

 -------------------------------------------
 # HF/6-31G* Opt=(ModRedundant) geom=nocrowd
 -------------------------------------------

 ------------------
 Phi Psi fixed scan
 ------------------
 Symbolic Z-matrix:
 Charge =  0 Multiplicity = 1

 SCF Done:  E(RHF) =  -492.821397007     A.U. after   15 cycles
 SCF Done:  E(RHF) =  -492.842267708     A.U. after   17 cycles
 SCF Done:  E(RHF) =  -492.846730679     A.U. after   13 cycles
 SCF Done:  E(RHF) =  -492.847612643     A.U. after   13 cycles
 SCF Done:  E(RHF) =  -492.847776775     A.U. after   13 cycles
 SCF Done:  E(RHF) =  -492.848024929     A.U. after   12 cycles
 SCF Done:  E(RHF) =  -492.848141895     A.U. after   13 cycles
 SCF Done:  E(RHF) =  -492.848215958     A.U. after   12 cycles
 SCF Done:  E(RHF) =  -492.848242802     A.U. after   11 cycles
 SCF Done:  E(RHF) =  -492.848258014     A.U. after   11 cycles
 SCF Done:  E(RHF) =  -492.848273339     A.U. after   11 cycles
 SCF Done:  E(RHF) =  -492.848287706     A.U. after   11 cycles
 SCF Done:  E(RHF) =  -492.848293556     A.U. after   11 cycles
 SCF Done:  E(RHF) =  -492.848297968     A.U. after   11 cycles
 SCF Done:  E(RHF) =  -492.848299335     A.U. after   10 cycles
 SCF Done:  E(RHF) =  -492.848299754     A.U. after    9 cycles
 SCF Done:  E(RHF) =  -492.848299895     A.U. after    9 cycles
 Optimization completed.
    -- Stationary point found.

                         Standard orientation:
 ---------------------------------------------------------------------
 Center     Atomic      Atomic             Coordinates (Angstroms)
 Number     Number       Type             X           Y           Z
 ---------------------------------------------------------------------
      1          1           0       -3.806768   -1.510152    0.211905
      2          6           0       -3.048893   -1.271572   -0.519414
      3          1           0       -3.532869   -0.865590   -1.402707
      4          1           0       -2.523440   -2.175368   -0.808298
      5          6           0       -2.116050   -0.229091    0.068035
      6          8           0       -2.426728    0.420974    1.024307
      7          7           0       -0.926015   -0.124680   -0.589581
      8          1           0       -0.848596   -0.683948   -1.410273
      9          6           0        0.111063    0.899783   -0.487410
     10          1           0        0.123760    1.460451   -1.413947
     11          6           0       -0.040782    1.896631    0.665256
     12          1           0       -0.043222    1.408448    1.629277
     13          1           0        0.800687    2.578476    0.615881
     14          1           0       -0.955918    2.461624    0.574696
     15          6           0        1.500569    0.257969   -0.409419
     16          8           0        2.415627    0.727745   -1.031230
     17          7           0        1.617243   -0.790889    0.427446
     18          1           0        0.796255   -1.113153    0.885469
     19          6           0        2.870063   -1.462307    0.690909
     20          1           0        3.634495   -1.004934    0.083939
     21          1           0        3.146627   -1.369356    1.735534
     22          1           0        2.803374   -2.515743    0.441116
 ---------------------------------------------------------------------

 The electronic state is 1-A.
 Alpha  occ. eigenvalues --  -20.53111 -20.52217 -15.59803 -15.58653 -11.36007
 Alpha  occ. eigenvalues --  -11.34427 -11.28459 -11.25818 -11.24046 -11.21995
 Alpha  occ. eigenvalues --   -1.40046  -1.39048  -1.25291  -1.22825  -1.06074
 Alpha  occ. eigenvalues --   -0.99733  -0.96046  -0.88902  -0.79582  -0.77720
 Alpha  occ. eigenvalues --   -0.72966  -0.69774  -0.66920  -0.63286  -0.62825
 Alpha  occ. eigenvalues --   -0.62378  -0.59959  -0.59544  -0.57296  -0.56220
 Alpha  occ. eigenvalues --   -0.55144  -0.54038  -0.53273  -0.52256  -0.50699
 Alpha  occ. eigenvalues --   -0.43657  -0.41835  -0.39375  -0.38349
 Alpha virt. eigenvalues --    0.19100   0.20033   0.20784   0.24184   0.26474
 Alpha virt. eigenvalues --    0.27121   0.29277   0.29846   0.30759   0.32005
 Alpha virt. eigenvalues --    0.32275   0.33132   0.33554   0.35038   0.36369

 Mulliken atomic charges:
              1
     1  H    0.218257
     2  C   -0.591619
     3  H    0.198678
     4  H    0.177258
     5  C    0.745795
     6  O   -0.592285
     7  N   -0.840972
     8  H    0.385865
     9  C   -0.024624
    10  H    0.215376
    11  C   -0.485325
    12  H    0.186305
    13  H    0.184539
    14  H    0.203579
    15  C    0.744035
    16  O   -0.618707
    17  N   -0.782244
    18  H    0.395624
    19  C   -0.286899
    20  H    0.227832
    21  H    0.172540
    22  H    0.166990
 Sum of Mulliken atomic charges =   0.00000

 Dipole moment (field-independent basis, Debye):
    X=             -1.1766    Y=             -3.3951    Z=             -0.7923  Tot=              3.6796
 Quadrupole moment (field-independent basis, Debye-Ang):
   XX=            -68.6853   YY=            -57.0421   ZZ=            -61.9189
   XY=             -1.0646   XZ=             13.1855   YZ=              0.1371

 Normal termination of Gaussian 09 at Fri Feb 10 02:16:37 2017.
