 Gaussian 09, Revision A.02,
 Gaussian 09:  EM64L-G09RevA.02 11-Jun-2009

 -------------------------------------------
 # HF/6-31G* Opt=(ModRedundant) geom=nocrowd
 -------------------------------------------

 ------------------
 Phi Psi fixed scan
 ------------------
 Symbolic Z-matrix:
 Charge =  0 Multiplicity = 1

 SCF Done:  E(RHF) =  -492.823348948     A.U. after   15 cycles
 SCF Done:  E(RHF) =  -492.841972384     A.U. after   15 cycles
 SCF Done:  E(RHF) =  -492.846780802     A.U. after   13 cycles
 SCF Done:  E(RHF) =  -492.848162149     A.U. after   13 cycles
 SCF Done:  E(RHF) =  -492.848515872     A.U. after   13 cycles
 SCF Done:  E(RHF) =  -492.849197699     A.U. after   13 cycles
 SCF Done:  E(RHF) =  -492.849409938     A.U. after   12 cycles
 SCF Done:  E(RHF) =  -492.849421448     A.U. after   13 cycles
 SCF Done:  E(RHF) =  -492.849507341     A.U. after   12 cycles
 SCF Done:  E(RHF) =  -492.849514580     A.U. after   10 cycles
 SCF Done:  E(RHF) =  -492.849747041     A.U. after   12 cycles
 SCF Done:  E(RHF) =  -492.849780683     A.U. after   12 cycles
 SCF Done:  E(RHF) =  -492.849805052     A.U. after   11 cycles
 SCF Done:  E(RHF) =  -492.849811415     A.U. after   11 cycles
 SCF Done:  E(RHF) =  -492.849816796     A.U. after   11 cycles
 SCF Done:  E(RHF) =  -492.849820155     A.U. after   11 cycles
 SCF Done:  E(RHF) =  -492.849820718     A.U. after    8 cycles
 SCF Done:  E(RHF) =  -492.849821553     A.U. after   11 cycles
 SCF Done:  E(RHF) =  -492.849821647     A.U. after   10 cycles
 SCF Done:  E(RHF) =  -492.849821672     A.U. after    8 cycles
 Optimization completed.
    -- Stationary point found.

                         Standard orientation:
 ---------------------------------------------------------------------
 Center     Atomic      Atomic             Coordinates (Angstroms)
 Number     Number       Type             X           Y           Z
 ---------------------------------------------------------------------
      1          1           0       -4.150840   -1.038116    0.293538
      2          6           0       -3.120595   -1.316728    0.129078
      3          1           0       -3.053149   -1.975743   -0.729650
      4          1           0       -2.755051   -1.858106    0.996438
      5          6           0       -2.298319   -0.059018   -0.072363
      6          8           0       -2.748435    1.030247    0.147766
      7          7           0       -1.044942   -0.299189   -0.550435
      8          1           0       -0.771832   -1.257376   -0.514488
      9          6           0        0.105928    0.585112   -0.501840
     10          1           0        0.314818    0.955630   -1.502344
     11          6           0       -0.031232    1.791331    0.441434
     12          1           0       -0.230196    1.465371    1.455318
     13          1           0        0.893478    2.357756    0.441729
     14          1           0       -0.836242    2.435684    0.131199
     15          6           0        1.305956   -0.264126   -0.056321
     16          8           0        1.172948   -1.360314    0.421582
     17          7           0        2.514991    0.292341   -0.250951
     18          1           0        2.579617    1.186533   -0.677396
     19          6           0        3.733529   -0.388462    0.136505
     20          1           0        3.840085   -1.324411   -0.396721
     21          1           0        4.573695    0.250035   -0.099905
     22          1           0        3.737563   -0.597444    1.198242
 ---------------------------------------------------------------------

 The electronic state is 1-A.
 Alpha  occ. eigenvalues --  -20.53751 -20.51752 -15.59722 -15.57514 -11.35584
 Alpha  occ. eigenvalues --  -11.34331 -11.28700 -11.26718 -11.22401 -11.22267
 Alpha  occ. eigenvalues --   -1.40712  -1.38418  -1.24523  -1.23209  -1.05750
 Alpha  occ. eigenvalues --   -0.98804  -0.96227  -0.88925  -0.80701  -0.76100
 Alpha  occ. eigenvalues --   -0.73323  -0.68401  -0.66333  -0.64424  -0.63329
 Alpha  occ. eigenvalues --   -0.61945  -0.59961  -0.58541  -0.56607  -0.56442
 Alpha  occ. eigenvalues --   -0.55417  -0.54692  -0.52600  -0.52231  -0.50123
 Alpha  occ. eigenvalues --   -0.43104  -0.40926  -0.40211  -0.38556
 Alpha virt. eigenvalues --    0.18856   0.20339   0.21373   0.24583   0.25747
 Alpha virt. eigenvalues --    0.28317   0.28930   0.29875   0.31472   0.32331
 Alpha virt. eigenvalues --    0.32754   0.32998   0.34724   0.34840   0.37307

 Mulliken atomic charges:
              1
     1  H    0.211240
     2  C   -0.593913
     3  H    0.185043
     4  H    0.197217
     5  C    0.745484
     6  O   -0.604418
     7  N   -0.818234
     8  H    0.409993
     9  C   -0.001706
    10  H    0.191011
    11  C   -0.497414
    12  H    0.185655
    13  H    0.148011
    14  H    0.235027
    15  C    0.750175
    16  O   -0.624194
    17  N   -0.797001
    18  H    0.390751
    19  C   -0.267761
    20  H    0.191285
    21  H    0.170230
    22  H    0.193520
 Sum of Mulliken atomic charges =   0.00000

 Dipole moment (field-independent basis, Debye):
    X=              3.7081    Y=              0.2241    Z=             -1.4312  Tot=              3.9810
 Quadrupole moment (field-independent basis, Debye-Ang):
   XX=            -56.8045   YY=            -62.4554   ZZ=            -60.5255
   XY=             13.1230   XZ=             -1.6611   YZ=             -0.0003

 Normal termination of Gaussian 09 at Fri Feb 10 01:25:05 2017.
