 Gaussian 09, Revision A.02,
 Gaussian 09:  EM64L-G09RevA.02 11-Jun-2009

 -------------------------------------------
 # HF/6-31G* Opt=(ModRedundant) geom=nocrowd
 -------------------------------------------

 ------------------
 Phi Psi fixed scan
 ------------------
 Symbolic Z-matrix:
 Charge =  0 Multiplicity = 1

 SCF Done:  E(RHF) =  -492.819861222     A.U. after   15 cycles
 SCF Done:  E(RHF) =  -492.840906441     A.U. after   14 cycles
 SCF Done:  E(RHF) =  -492.845795732     A.U. after   13 cycles
 SCF Done:  E(RHF) =  -492.846588082     A.U. after   13 cycles
 SCF Done:  E(RHF) =  -492.846733646     A.U. after   13 cycles
 SCF Done:  E(RHF) =  -492.846971577     A.U. after   12 cycles
 SCF Done:  E(RHF) =  -492.847101632     A.U. after   13 cycles
 SCF Done:  E(RHF) =  -492.847174416     A.U. after   12 cycles
 SCF Done:  E(RHF) =  -492.847206101     A.U. after   10 cycles
 SCF Done:  E(RHF) =  -492.847227035     A.U. after   11 cycles
 SCF Done:  E(RHF) =  -492.847443281     A.U. after   12 cycles
 SCF Done:  E(RHF) =  -492.847483791     A.U. after   12 cycles
 SCF Done:  E(RHF) =  -492.847515852     A.U. after   11 cycles
 SCF Done:  E(RHF) =  -492.847551764     A.U. after   11 cycles
 SCF Done:  E(RHF) =  -492.847574552     A.U. after   12 cycles
 SCF Done:  E(RHF) =  -492.847581170     A.U. after   10 cycles
 SCF Done:  E(RHF) =  -492.847584019     A.U. after   10 cycles
 SCF Done:  E(RHF) =  -492.847585733     A.U. after   10 cycles
 SCF Done:  E(RHF) =  -492.847585964     A.U. after    9 cycles
 SCF Done:  E(RHF) =  -492.847586005     A.U. after    8 cycles
 Optimization completed.
    -- Stationary point found.

                         Standard orientation:
 ---------------------------------------------------------------------
 Center     Atomic      Atomic             Coordinates (Angstroms)
 Number     Number       Type             X           Y           Z
 ---------------------------------------------------------------------
      1          1           0        3.796059   -1.532993   -0.253518
      2          6           0        3.049901   -1.293869    0.489604
      3          1           0        3.548324   -0.893052    1.367200
      4          1           0        2.524568   -2.196306    0.782663
      5          6           0        2.113117   -0.245560   -0.080323
      6          8           0        2.412998    0.408769   -1.037810
      7          7           0        0.932274   -0.140377    0.591288
      8          1           0        0.859697   -0.703242    1.410089
      9          6           0       -0.100562    0.892197    0.507913
     10          1           0       -0.108580    1.430653    1.447389
     11          6           0        0.054647    1.912579   -0.621451
     12          1           0        0.061326    1.452776   -1.598415
     13          1           0       -0.786165    2.595627   -0.560781
     14          1           0        0.969002    2.476098   -0.512455
     15          6           0       -1.477878    0.223120    0.442138
     16          8           0       -2.323733    0.471213    1.258485
     17          7           0       -1.682739   -0.602695   -0.603601
     18          1           0       -0.898971   -0.865838   -1.155051
     19          6           0       -2.922002   -1.331377   -0.764940
     20          1           0       -3.758559   -0.663060   -0.623276
     21          1           0       -2.960008   -1.735908   -1.767682
     22          1           0       -3.010896   -2.145639   -0.053012
 ---------------------------------------------------------------------

 The electronic state is 1-A.
 Alpha  occ. eigenvalues --  -20.53034 -20.52582 -15.59758 -15.58506 -11.35940
 Alpha  occ. eigenvalues --  -11.34306 -11.28458 -11.25898 -11.23966 -11.22130
 Alpha  occ. eigenvalues --   -1.39988  -1.39241  -1.25108  -1.22841  -1.06098
 Alpha  occ. eigenvalues --   -0.99720  -0.95810  -0.89129  -0.79563  -0.77674
 Alpha  occ. eigenvalues --   -0.72775  -0.69730  -0.66808  -0.63682  -0.62834
 Alpha  occ. eigenvalues --   -0.62267  -0.59838  -0.59187  -0.57281  -0.56064
 Alpha  occ. eigenvalues --   -0.55397  -0.54185  -0.53313  -0.52153  -0.51021
 Alpha  occ. eigenvalues --   -0.43698  -0.41838  -0.39232  -0.38537
 Alpha virt. eigenvalues --    0.18794   0.20189   0.20815   0.23637   0.26466
 Alpha virt. eigenvalues --    0.26865   0.28765   0.29795   0.30640   0.31893
 Alpha virt. eigenvalues --    0.32675   0.33347   0.33540   0.35095   0.36690

 Mulliken atomic charges:
              1
     1  H    0.217676
     2  C   -0.591464
     3  H    0.198486
     4  H    0.178406
     5  C    0.745873
     6  O   -0.595595
     7  N   -0.834944
     8  H    0.387851
     9  C   -0.033950
    10  H    0.216307
    11  C   -0.479831
    12  H    0.187219
    13  H    0.176510
    14  H    0.201451
    15  C    0.744330
    16  O   -0.610487
    17  N   -0.778239
    18  H    0.395116
    19  C   -0.272546
    20  H    0.204780
    21  H    0.170428
    22  H    0.172623
 Sum of Mulliken atomic charges =   0.00000

 Dipole moment (field-independent basis, Debye):
    X=              1.0483    Y=             -2.8896    Z=              0.2957  Tot=              3.0881
 Quadrupole moment (field-independent basis, Debye-Ang):
   XX=            -67.8825   YY=            -56.4880   ZZ=            -62.8493
   XY=             -0.4815   XZ=             14.3549   YZ=              0.4830

 Normal termination of Gaussian 09 at Fri Feb 10 02:14:31 2017.
