 Gaussian 09, Revision A.02,
 Gaussian 09:  EM64L-G09RevA.02 11-Jun-2009

 -------------------------------------------
 # HF/6-31G* Opt=(ModRedundant) geom=nocrowd
 -------------------------------------------

 ------------------
 Phi Psi fixed scan
 ------------------
 Symbolic Z-matrix:
 Charge =  0 Multiplicity = 1

 SCF Done:  E(RHF) =  -492.822609990     A.U. after   15 cycles
 SCF Done:  E(RHF) =  -492.841897127     A.U. after   16 cycles
 SCF Done:  E(RHF) =  -492.846226040     A.U. after   13 cycles
 SCF Done:  E(RHF) =  -492.847338700     A.U. after   13 cycles
 SCF Done:  E(RHF) =  -492.847617201     A.U. after   13 cycles
 SCF Done:  E(RHF) =  -492.848417669     A.U. after   13 cycles
 SCF Done:  E(RHF) =  -492.848722786     A.U. after   13 cycles
 SCF Done:  E(RHF) =  -492.848731240     A.U. after   13 cycles
 SCF Done:  E(RHF) =  -492.848864923     A.U. after   13 cycles
 SCF Done:  E(RHF) =  -492.848879397     A.U. after   11 cycles
 SCF Done:  E(RHF) =  -492.849058309     A.U. after   10 cycles
 SCF Done:  E(RHF) =  -492.849087132     A.U. after   11 cycles
 SCF Done:  E(RHF) =  -492.849125481     A.U. after   11 cycles
 SCF Done:  E(RHF) =  -492.849142197     A.U. after   11 cycles
 SCF Done:  E(RHF) =  -492.849143705     A.U. after   10 cycles
 SCF Done:  E(RHF) =  -492.849145751     A.U. after   11 cycles
 SCF Done:  E(RHF) =  -492.849148768     A.U. after   10 cycles
 SCF Done:  E(RHF) =  -492.849148939     A.U. after    8 cycles
 SCF Done:  E(RHF) =  -492.849148955     A.U. after    7 cycles
 SCF Done:  E(RHF) =  -492.849148968     A.U. after    7 cycles
 Optimization completed.
    -- Stationary point found.

                         Standard orientation:
 ---------------------------------------------------------------------
 Center     Atomic      Atomic             Coordinates (Angstroms)
 Number     Number       Type             X           Y           Z
 ---------------------------------------------------------------------
      1          1           0       -4.148253   -1.072655    0.194010
      2          6           0       -3.110899   -1.340459    0.059025
      3          1           0       -3.012211   -1.998071   -0.797838
      4          1           0       -2.764573   -1.878169    0.936507
      5          6           0       -2.296074   -0.074757   -0.117816
      6          8           0       -2.759706    1.010150    0.092164
      7          7           0       -1.026734   -0.298377   -0.566093
      8          1           0       -0.748311   -1.253858   -0.514224
      9          6           0        0.108052    0.603865   -0.455603
     10          1           0        0.329006    1.017420   -1.435543
     11          6           0       -0.057771    1.766801    0.536246
     12          1           0       -0.290689    1.394068    1.526105
     13          1           0        0.874329    2.320662    0.589813
     14          1           0       -0.845934    2.433579    0.229330
     15          6           0        1.307572   -0.230365    0.006864
     16          8           0        1.174454   -1.214671    0.684638
     17          7           0        2.509542    0.206792   -0.414298
     18          1           0        2.559922    1.054277   -0.930258
     19          6           0        3.742992   -0.402064    0.039453
     20          1           0        3.682788   -1.475211   -0.068154
     21          1           0        4.556327   -0.031271   -0.569579
     22          1           0        3.946728   -0.171623    1.079137
 ---------------------------------------------------------------------

 The electronic state is 1-A.
 Alpha  occ. eigenvalues --  -20.53589 -20.51916 -15.59780 -15.57735 -11.35497
 Alpha  occ. eigenvalues --  -11.34409 -11.28597 -11.26675 -11.22507 -11.22150
 Alpha  occ. eigenvalues --   -1.40578  -1.38575  -1.24530  -1.23285  -1.05749
 Alpha  occ. eigenvalues --   -0.98869  -0.96367  -0.88667  -0.80488  -0.76337
 Alpha  occ. eigenvalues --   -0.73343  -0.68366  -0.66425  -0.63963  -0.63417
 Alpha  occ. eigenvalues --   -0.62107  -0.60186  -0.58489  -0.56666  -0.56337
 Alpha  occ. eigenvalues --   -0.55378  -0.54633  -0.52557  -0.52206  -0.50163
 Alpha  occ. eigenvalues --   -0.43060  -0.40854  -0.40179  -0.38862
 Alpha virt. eigenvalues --    0.19049   0.20194   0.21347   0.24136   0.25838
 Alpha virt. eigenvalues --    0.28375   0.29249   0.29554   0.31251   0.31879
 Alpha virt. eigenvalues --    0.32382   0.33015   0.34521   0.35307   0.37088

 Mulliken atomic charges:
              1
     1  H    0.211968
     2  C   -0.595465
     3  H    0.184601
     4  H    0.198828
     5  C    0.745751
     6  O   -0.601637
     7  N   -0.811998
     8  H    0.401781
     9  C    0.006737
    10  H    0.186749
    11  C   -0.500074
    12  H    0.189887
    13  H    0.151073
    14  H    0.233182
    15  C    0.735697
    16  O   -0.619527
    17  N   -0.791543
    18  H    0.388639
    19  C   -0.273693
    20  H    0.205063
    21  H    0.171675
    22  H    0.182305
 Sum of Mulliken atomic charges =   0.00000

 Dipole moment (field-independent basis, Debye):
    X=              3.6512    Y=             -0.0325    Z=             -1.8325  Tot=              4.0854
 Quadrupole moment (field-independent basis, Debye-Ang):
   XX=            -56.8370   YY=            -61.4716   ZZ=            -61.2642
   XY=             12.5802   XZ=             -2.7284   YZ=              0.7398

 Normal termination of Gaussian 09 at Fri Feb 10 01:20:45 2017.
