 Gaussian 09, Revision A.02,
 Gaussian 09:  EM64L-G09RevA.02 11-Jun-2009

 -------------------------------------------
 # HF/6-31G* Opt=(ModRedundant) geom=nocrowd
 -------------------------------------------

 ------------------
 Phi Psi fixed scan
 ------------------
 Symbolic Z-matrix:
 Charge =  0 Multiplicity = 1

 SCF Done:  E(RHF) =  -492.811198496     A.U. after   15 cycles
 SCF Done:  E(RHF) =  -492.832022240     A.U. after   14 cycles
 SCF Done:  E(RHF) =  -492.837043930     A.U. after   13 cycles
 SCF Done:  E(RHF) =  -492.838137343     A.U. after   13 cycles
 SCF Done:  E(RHF) =  -492.838308875     A.U. after   13 cycles
 SCF Done:  E(RHF) =  -492.838573383     A.U. after   13 cycles
 SCF Done:  E(RHF) =  -492.838866496     A.U. after   13 cycles
 SCF Done:  E(RHF) =  -492.838623660     A.U. after   15 cycles
 SCF Done:  E(RHF) =  -492.839686383     A.U. after   13 cycles
 SCF Done:  E(RHF) =  -492.840242766     A.U. after   13 cycles
 SCF Done:  E(RHF) =  -492.840929741     A.U. after   17 cycles
 SCF Done:  E(RHF) =  -492.841142273     A.U. after   13 cycles
 SCF Done:  E(RHF) =  -492.841164875     A.U. after   11 cycles
 SCF Done:  E(RHF) =  -492.841194814     A.U. after   11 cycles
 SCF Done:  E(RHF) =  -492.841207825     A.U. after   12 cycles
 SCF Done:  E(RHF) =  -492.841211996     A.U. after   11 cycles
 SCF Done:  E(RHF) =  -492.841212703     A.U. after    9 cycles
 SCF Done:  E(RHF) =  -492.841213479     A.U. after    9 cycles
 SCF Done:  E(RHF) =  -492.841214617     A.U. after   10 cycles
 SCF Done:  E(RHF) =  -492.841214733     A.U. after    8 cycles
 Optimization completed.
    -- Stationary point found.

                         Standard orientation:
 ---------------------------------------------------------------------
 Center     Atomic      Atomic             Coordinates (Angstroms)
 Number     Number       Type             X           Y           Z
 ---------------------------------------------------------------------
      1          1           0       -3.725737   -1.704558    0.471450
      2          6           0       -2.647263   -1.732082    0.425933
      3          1           0       -2.332006   -2.517137   -0.253014
      4          1           0       -2.260485   -1.964158    1.413916
      5          6           0       -2.142526   -0.369466   -0.011458
      6          8           0       -2.849950    0.595030    0.004873
      7          7           0       -0.843873   -0.379731   -0.436597
      8          1           0       -0.375467   -1.239328   -0.261256
      9          6           0        0.060044    0.769827   -0.582180
     10          1           0        0.226233    0.932010   -1.646432
     11          6           0       -0.428508    2.082477    0.022462
     12          1           0       -0.629696    1.977170    1.079967
     13          1           0        0.352711    2.820585   -0.098970
     14          1           0       -1.326648    2.420434   -0.467392
     15          6           0        1.426310    0.394135    0.016603
     16          8           0        2.026866    1.111895    0.759529
     17          7           0        1.895478   -0.843387   -0.330512
     18          1           0        1.577180   -1.211471   -1.200617
     19          6           0        3.233063   -1.238653    0.073096
     20          1           0        3.331742   -1.125388    1.141839
     21          1           0        3.378553   -2.279186   -0.185445
     22          1           0        4.000340   -0.639984   -0.406242
 ---------------------------------------------------------------------

 The electronic state is 1-A.
 Alpha  occ. eigenvalues --  -20.54278 -20.52493 -15.59840 -15.58954 -11.35718
 Alpha  occ. eigenvalues --  -11.35200 -11.28785 -11.26656 -11.23437 -11.20536
 Alpha  occ. eigenvalues --   -1.41080  -1.39283  -1.25498  -1.22967  -1.05545
 Alpha  occ. eigenvalues --   -0.98982  -0.96819  -0.87956  -0.79974  -0.77242
 Alpha  occ. eigenvalues --   -0.73648  -0.68213  -0.66867  -0.65480  -0.63395
 Alpha  occ. eigenvalues --   -0.62155  -0.60395  -0.59141  -0.56880  -0.56315
 Alpha  occ. eigenvalues --   -0.54330  -0.53711  -0.52639  -0.51738  -0.50484
 Alpha  occ. eigenvalues --   -0.44487  -0.41655  -0.40538  -0.38823
 Alpha virt. eigenvalues --    0.17923   0.19911   0.21499   0.23705   0.26343
 Alpha virt. eigenvalues --    0.26736   0.28873   0.30117   0.30728   0.31006
 Alpha virt. eigenvalues --    0.32839   0.33756   0.34115   0.35385   0.36362

 Mulliken atomic charges:
              1
     1  H    0.217497
     2  C   -0.595181
     3  H    0.177895
     4  H    0.194488
     5  C    0.753957
     6  O   -0.589094
     7  N   -0.840005
     8  H    0.392999
     9  C   -0.013811
    10  H    0.191689
    11  C   -0.475591
    12  H    0.180844
    13  H    0.180991
    14  H    0.210605
    15  C    0.739469
    16  O   -0.581224
    17  N   -0.801519
    18  H    0.378658
    19  C   -0.279815
    20  H    0.207829
    21  H    0.171049
    22  H    0.178270
 Sum of Mulliken atomic charges =   0.00000

 Dipole moment (field-independent basis, Debye):
    X=              2.1341    Y=             -4.6861    Z=             -2.0747  Tot=              5.5515
 Quadrupole moment (field-independent basis, Debye-Ang):
   XX=            -68.8119   YY=            -58.4351   ZZ=            -59.5196
   XY=             -0.1032   XZ=             -5.5814   YZ=             -1.9271

 Normal termination of Gaussian 09 at Fri Feb 10 00:57:16 2017.
