 Gaussian 09, Revision A.02,
 Gaussian 09:  EM64L-G09RevA.02 11-Jun-2009

 -------------------------------------------
 # HF/6-31G* Opt=(ModRedundant) geom=nocrowd
 -------------------------------------------

 ------------------
 Phi Psi fixed scan
 ------------------
 Symbolic Z-matrix:
 Charge =  0 Multiplicity = 1

 SCF Done:  E(RHF) =  -492.821442089     A.U. after   15 cycles
 SCF Done:  E(RHF) =  -492.842319537     A.U. after   16 cycles
 SCF Done:  E(RHF) =  -492.846824021     A.U. after   13 cycles
 SCF Done:  E(RHF) =  -492.847949691     A.U. after   13 cycles
 SCF Done:  E(RHF) =  -492.848159496     A.U. after   13 cycles
 SCF Done:  E(RHF) =  -492.848469214     A.U. after   13 cycles
 SCF Done:  E(RHF) =  -492.848563935     A.U. after   13 cycles
 SCF Done:  E(RHF) =  -492.848656867     A.U. after   11 cycles
 SCF Done:  E(RHF) =  -492.848689401     A.U. after   11 cycles
 SCF Done:  E(RHF) =  -492.848719781     A.U. after   11 cycles
 SCF Done:  E(RHF) =  -492.848918464     A.U. after   13 cycles
 SCF Done:  E(RHF) =  -492.848941816     A.U. after   12 cycles
 SCF Done:  E(RHF) =  -492.848952421     A.U. after   11 cycles
 SCF Done:  E(RHF) =  -492.848979083     A.U. after   11 cycles
 SCF Done:  E(RHF) =  -492.849010185     A.U. after   12 cycles
 SCF Done:  E(RHF) =  -492.849023339     A.U. after   11 cycles
 SCF Done:  E(RHF) =  -492.849030897     A.U. after   11 cycles
 SCF Done:  E(RHF) =  -492.849040188     A.U. after   10 cycles
 SCF Done:  E(RHF) =  -492.849042467     A.U. after   10 cycles
 SCF Done:  E(RHF) =  -492.849042647     A.U. after    8 cycles
 Optimization completed.
    -- Stationary point found.

                         Standard orientation:
 ---------------------------------------------------------------------
 Center     Atomic      Atomic             Coordinates (Angstroms)
 Number     Number       Type             X           Y           Z
 ---------------------------------------------------------------------
      1          1           0       -3.810883   -1.499679    0.273687
      2          6           0       -3.038163   -1.309668   -0.456308
      3          1           0       -3.504425   -0.970198   -1.376457
      4          1           0       -2.503390   -2.229088   -0.668978
      5          6           0       -2.122426   -0.222722    0.075332
      6          8           0       -2.457338    0.492119    0.974791
      7          7           0       -0.917774   -0.160873   -0.563289
      8          1           0       -0.826656   -0.773259   -1.343698
      9          6           0        0.112339    0.873857   -0.516452
     10          1           0        0.136813    1.373360   -1.477938
     11          6           0       -0.067483    1.945837    0.563541
     12          1           0       -0.077991    1.519388    1.557101
     13          1           0        0.767071    2.630904    0.479366
     14          1           0       -0.988796    2.490278    0.424619
     15          6           0        1.509144    0.264881   -0.361148
     16          8           0        2.465594    0.845119   -0.800537
     17          7           0        1.595328   -0.902744    0.302953
     18          1           0        0.772032   -1.263941    0.724713
     19          6           0        2.875951   -1.485864    0.639999
     20          1           0        3.518137   -1.481831   -0.228463
     21          1           0        3.372278   -0.938716    1.434290
     22          1           0        2.720709   -2.507726    0.960287
 ---------------------------------------------------------------------

 The electronic state is 1-A.
 Alpha  occ. eigenvalues --  -20.53169 -20.52163 -15.59828 -15.58691 -11.36056
 Alpha  occ. eigenvalues --  -11.34315 -11.28522 -11.25958 -11.24107 -11.21803
 Alpha  occ. eigenvalues --   -1.40102  -1.39084  -1.25386  -1.22789  -1.06030
 Alpha  occ. eigenvalues --   -0.99704  -0.96106  -0.88750  -0.79698  -0.77658
 Alpha  occ. eigenvalues --   -0.73104  -0.69854  -0.66972  -0.63059  -0.62915
 Alpha  occ. eigenvalues --   -0.62408  -0.60206  -0.59623  -0.57263  -0.55977
 Alpha  occ. eigenvalues --   -0.55474  -0.53804  -0.53141  -0.52280  -0.50153
 Alpha  occ. eigenvalues --   -0.43735  -0.41959  -0.39537  -0.38436
 Alpha virt. eigenvalues --    0.19228   0.19754   0.20402   0.24030   0.26379
 Alpha virt. eigenvalues --    0.27197   0.28807   0.29776   0.30431   0.32068
 Alpha virt. eigenvalues --    0.33020   0.33185   0.33995   0.35241   0.36799

 Mulliken atomic charges:
              1
     1  H    0.218743
     2  C   -0.591660
     3  H    0.198684
     4  H    0.176086
     5  C    0.746456
     6  O   -0.589185
     7  N   -0.847791
     8  H    0.384803
     9  C   -0.012820
    10  H    0.213052
    11  C   -0.488892
    12  H    0.185076
    13  H    0.192070
    14  H    0.203462
    15  C    0.741922
    16  O   -0.620140
    17  N   -0.785854
    18  H    0.397343
    19  C   -0.272272
    20  H    0.203759
    21  H    0.179700
    22  H    0.167459
 Sum of Mulliken atomic charges =   0.00000

 Dipole moment (field-independent basis, Debye):
    X=             -1.2774    Y=             -3.8727    Z=             -1.0456  Tot=              4.2099
 Quadrupole moment (field-independent basis, Debye-Ang):
   XX=            -69.9428   YY=            -57.2217   ZZ=            -60.7972
   XY=             -1.4257   XZ=             11.8240   YZ=             -0.3134

 Normal termination of Gaussian 09 at Fri Feb 10 02:19:33 2017.
