 Gaussian 09, Revision A.02,
 Gaussian 09:  EM64L-G09RevA.02 11-Jun-2009

 -------------------------------------------
 # HF/6-31G* Opt=(ModRedundant) geom=nocrowd
 -------------------------------------------

 ------------------
 Phi Psi fixed scan
 ------------------
 Symbolic Z-matrix:
 Charge =  0 Multiplicity = 1

 SCF Done:  E(RHF) =  -492.814634500     A.U. after   15 cycles
 SCF Done:  E(RHF) =  -492.836571146     A.U. after   15 cycles
 SCF Done:  E(RHF) =  -492.841612219     A.U. after   14 cycles
 SCF Done:  E(RHF) =  -492.842302717     A.U. after   13 cycles
 SCF Done:  E(RHF) =  -492.842408067     A.U. after   13 cycles
 SCF Done:  E(RHF) =  -492.842530073     A.U. after   13 cycles
 SCF Done:  E(RHF) =  -492.842674541     A.U. after   11 cycles
 SCF Done:  E(RHF) =  -492.842773105     A.U. after   13 cycles
 SCF Done:  E(RHF) =  -492.842828106     A.U. after   11 cycles
 SCF Done:  E(RHF) =  -492.842899984     A.U. after   11 cycles
 SCF Done:  E(RHF) =  -492.843357291     A.U. after   12 cycles
 SCF Done:  E(RHF) =  -492.843399352     A.U. after   11 cycles
 SCF Done:  E(RHF) =  -492.843401075     A.U. after    9 cycles
 SCF Done:  E(RHF) =  -492.843403569     A.U. after   10 cycles
 SCF Done:  E(RHF) =  -492.843406051     A.U. after   10 cycles
 SCF Done:  E(RHF) =  -492.843406511     A.U. after    9 cycles
 SCF Done:  E(RHF) =  -492.843406989     A.U. after    9 cycles
 SCF Done:  E(RHF) =  -492.843407249     A.U. after    9 cycles
 SCF Done:  E(RHF) =  -492.843407315     A.U. after    9 cycles
 SCF Done:  E(RHF) =  -492.843407331     A.U. after    8 cycles
 Optimization completed.
    -- Stationary point found.

                         Standard orientation:
 ---------------------------------------------------------------------
 Center     Atomic      Atomic             Coordinates (Angstroms)
 Number     Number       Type             X           Y           Z
 ---------------------------------------------------------------------
      1          1           0       -3.803569   -1.674987    0.324047
      2          6           0       -2.725464   -1.728489    0.355346
      3          1           0       -2.381307   -2.511951   -0.311365
      4          1           0       -2.417009   -1.983391    1.364661
      5          6           0       -2.160171   -0.369879   -0.015234
      6          8           0       -2.834550    0.618814    0.017531
      7          7           0       -0.847445   -0.405072   -0.372942
      8          1           0       -0.418355   -1.302471   -0.349785
      9          6           0        0.077557    0.706471   -0.603550
     10          1           0        0.282125    0.762580   -1.671225
     11          6           0       -0.400452    2.075419   -0.133549
     12          1           0       -0.630428    2.066112    0.921106
     13          1           0        0.401981    2.785817   -0.299068
     14          1           0       -1.274341    2.391054   -0.679758
     15          6           0        1.379137    0.326236    0.118103
     16          8           0        1.688533    0.772513    1.184136
     17          7           0        2.115401   -0.623553   -0.518679
     18          1           0        1.953760   -0.759816   -1.490800
     19          6           0        3.397919   -1.045563    0.008970
     20          1           0        3.294556   -1.283097    1.056939
     21          1           0        3.719794   -1.930834   -0.523515
     22          1           0        4.154090   -0.274429   -0.093751
 ---------------------------------------------------------------------

 The electronic state is 1-A.
 Alpha  occ. eigenvalues --  -20.53571 -20.52085 -15.59728 -15.59028 -11.35223
 Alpha  occ. eigenvalues --  -11.35039 -11.28716 -11.26598 -11.23219 -11.20677
 Alpha  occ. eigenvalues --   -1.40458  -1.38931  -1.25043  -1.23225  -1.05591
 Alpha  occ. eigenvalues --   -0.98904  -0.96772  -0.88063  -0.79846  -0.77410
 Alpha  occ. eigenvalues --   -0.73101  -0.69084  -0.66597  -0.64977  -0.63027
 Alpha  occ. eigenvalues --   -0.62079  -0.60414  -0.58898  -0.56641  -0.56226
 Alpha  occ. eigenvalues --   -0.53851  -0.53446  -0.52818  -0.51582  -0.50809
 Alpha  occ. eigenvalues --   -0.44170  -0.41295  -0.39987  -0.38431
 Alpha virt. eigenvalues --    0.18122   0.20285   0.21393   0.23231   0.26136
 Alpha virt. eigenvalues --    0.27463   0.28519   0.30614   0.30809   0.31314
 Alpha virt. eigenvalues --    0.32921   0.33681   0.34288   0.35596   0.36808

 Mulliken atomic charges:
              1
     1  H    0.215775
     2  C   -0.590378
     3  H    0.172320
     4  H    0.199786
     5  C    0.756834
     6  O   -0.595467
     7  N   -0.828903
     8  H    0.388130
     9  C    0.003468
    10  H    0.172333
    11  C   -0.472926
    12  H    0.202353
    13  H    0.160710
    14  H    0.206396
    15  C    0.732427
    16  O   -0.588020
    17  N   -0.795655
    18  H    0.381739
    19  C   -0.278171
    20  H    0.207567
    21  H    0.170208
    22  H    0.179474
 Sum of Mulliken atomic charges =   0.00000

 Dipole moment (field-independent basis, Debye):
    X=              2.7505    Y=             -4.1232    Z=             -3.2052  Tot=              5.9025
 Quadrupole moment (field-independent basis, Debye-Ang):
   XX=            -64.9836   YY=            -57.7601   ZZ=            -60.8800
   XY=              2.4541   XZ=             -6.6096   YZ=             -2.2355

 Normal termination of Gaussian 09 at Fri Feb 10 01:02:14 2017.
