 Gaussian 09, Revision A.02,
 Gaussian 09:  EM64L-G09RevA.02 11-Jun-2009

 -------------------------------------------
 # HF/6-31G* Opt=(ModRedundant) geom=nocrowd
 -------------------------------------------

 ------------------
 Phi Psi fixed scan
 ------------------
 Symbolic Z-matrix:
 Charge =  0 Multiplicity = 1

 SCF Done:  E(RHF) =  -492.822931708     A.U. after   15 cycles
 SCF Done:  E(RHF) =  -492.841025257     A.U. after   15 cycles
 SCF Done:  E(RHF) =  -492.846383572     A.U. after   13 cycles
 SCF Done:  E(RHF) =  -492.848225927     A.U. after   13 cycles
 SCF Done:  E(RHF) =  -492.848642347     A.U. after   13 cycles
 SCF Done:  E(RHF) =  -492.848488645     A.U. after   13 cycles
 SCF Done:  E(RHF) =  -492.849082119     A.U. after   13 cycles
 SCF Done:  E(RHF) =  -492.849126009     A.U. after   12 cycles
 SCF Done:  E(RHF) =  -492.849128235     A.U. after   12 cycles
 SCF Done:  E(RHF) =  -492.849157079     A.U. after   12 cycles
 SCF Done:  E(RHF) =  -492.849587943     A.U. after   11 cycles
 SCF Done:  E(RHF) =  -492.849584937     A.U. after   11 cycles
 SCF Done:  E(RHF) =  -492.849591939     A.U. after   11 cycles
 SCF Done:  E(RHF) =  -492.849594467     A.U. after    9 cycles
 SCF Done:  E(RHF) =  -492.849602988     A.U. after   11 cycles
 SCF Done:  E(RHF) =  -492.849611852     A.U. after   11 cycles
 SCF Done:  E(RHF) =  -492.849616635     A.U. after   11 cycles
 SCF Done:  E(RHF) =  -492.849616894     A.U. after    8 cycles
 SCF Done:  E(RHF) =  -492.849616893     A.U. after    8 cycles
 SCF Done:  E(RHF) =  -492.849616909     A.U. after    8 cycles
 Optimization completed.
    -- Stationary point found.

                         Standard orientation:
 ---------------------------------------------------------------------
 Center     Atomic      Atomic             Coordinates (Angstroms)
 Number     Number       Type             X           Y           Z
 ---------------------------------------------------------------------
      1          1           0        4.147267   -1.019034   -0.384640
      2          6           0        3.121531   -1.306159   -0.207002
      3          1           0        3.071556   -1.973666    0.646243
      4          1           0        2.747315   -1.842159   -1.073999
      5          6           0        2.294261   -0.054730    0.016435
      6          8           0        2.732736    1.037309   -0.217051
      7          7           0        1.056450   -0.308774    0.519629
      8          1           0        0.791382   -1.269894    0.521041
      9          6           0       -0.103494    0.563224    0.557487
     10          1           0       -0.294558    0.855788    1.588177
     11          6           0        0.018392    1.839665   -0.286914
     12          1           0        0.164191    1.601892   -1.333553
     13          1           0       -0.884002    2.433142   -0.195189
     14          1           0        0.853427    2.435239    0.040056
     15          6           0       -1.307995   -0.286272    0.111816
     16          8           0       -1.193447   -1.452736   -0.162948
     17          7           0       -2.498265    0.339292    0.076264
     18          1           0       -2.568291    1.279911    0.383638
     19          6           0       -3.715607   -0.377217   -0.246031
     20          1           0       -3.609836   -0.888434   -1.192408
     21          1           0       -3.957644   -1.110449    0.514186
     22          1           0       -4.524949    0.336380   -0.319545
 ---------------------------------------------------------------------

 The electronic state is 1-A.
 Alpha  occ. eigenvalues --  -20.53790 -20.51586 -15.59705 -15.57438 -11.35660
 Alpha  occ. eigenvalues --  -11.34314 -11.28849 -11.26673 -11.22387 -11.22348
 Alpha  occ. eigenvalues --   -1.40773  -1.38276  -1.24512  -1.23183  -1.05774
 Alpha  occ. eigenvalues --   -0.98748  -0.96113  -0.89235  -0.80836  -0.75962
 Alpha  occ. eigenvalues --   -0.73312  -0.68484  -0.66261  -0.64839  -0.63200
 Alpha  occ. eigenvalues --   -0.61845  -0.59746  -0.58615  -0.56698  -0.56217
 Alpha  occ. eigenvalues --   -0.55524  -0.54764  -0.52709  -0.52192  -0.50159
 Alpha  occ. eigenvalues --   -0.43249  -0.40873  -0.40193  -0.38323
 Alpha virt. eigenvalues --    0.18751   0.20546   0.21443   0.24871   0.25779
 Alpha virt. eigenvalues --    0.28056   0.29098   0.30166   0.31548   0.32456
 Alpha virt. eigenvalues --    0.32861   0.33271   0.34172   0.35212   0.37518

 Mulliken atomic charges:
              1
     1  H    0.210827
     2  C   -0.591867
     3  H    0.184449
     4  H    0.195883
     5  C    0.747824
     6  O   -0.608036
     7  N   -0.824419
     8  H    0.416776
     9  C   -0.009548
    10  H    0.196785
    11  C   -0.495166
    12  H    0.184876
    13  H    0.140141
    14  H    0.236656
    15  C    0.764753
    16  O   -0.629961
    17  N   -0.799439
    18  H    0.392807
    19  C   -0.269106
    20  H    0.200653
    21  H    0.184671
    22  H    0.170440
 Sum of Mulliken atomic charges =   0.00000

 Dipole moment (field-independent basis, Debye):
    X=             -3.6658    Y=              0.3784    Z=              1.0622  Tot=              3.8353
 Quadrupole moment (field-independent basis, Debye-Ang):
   XX=            -57.0365   YY=            -63.0064   ZZ=            -60.1245
   XY=            -13.4532   XZ=             -0.3232   YZ=              0.8970

 Normal termination of Gaussian 09 at Fri Feb 10 01:29:19 2017.
