 Gaussian 09, Revision A.02,
 Gaussian 09:  EM64L-G09RevA.02 11-Jun-2009

 -------------------------------------------
 # HF/6-31G* Opt=(ModRedundant) geom=nocrowd
 -------------------------------------------

 ------------------
 Phi Psi fixed scan
 ------------------
 Symbolic Z-matrix:
 Charge =  0 Multiplicity = 1

 SCF Done:  E(RHF) =  -492.817827805     A.U. after   15 cycles
 SCF Done:  E(RHF) =  -492.838714788     A.U. after   15 cycles
 SCF Done:  E(RHF) =  -492.842881671     A.U. after   13 cycles
 SCF Done:  E(RHF) =  -492.843339176     A.U. after   13 cycles
 SCF Done:  E(RHF) =  -492.843341305     A.U. after   13 cycles
 SCF Done:  E(RHF) =  -492.843518513     A.U. after   12 cycles
 SCF Done:  E(RHF) =  -492.843564029     A.U. after   12 cycles
 SCF Done:  E(RHF) =  -492.843633612     A.U. after   12 cycles
 SCF Done:  E(RHF) =  -492.843684023     A.U. after   12 cycles
 SCF Done:  E(RHF) =  -492.843712093     A.U. after   12 cycles
 SCF Done:  E(RHF) =  -492.843978301     A.U. after   12 cycles
 SCF Done:  E(RHF) =  -492.843986512     A.U. after   11 cycles
 SCF Done:  E(RHF) =  -492.843994034     A.U. after   10 cycles
 SCF Done:  E(RHF) =  -492.844008431     A.U. after   12 cycles
 SCF Done:  E(RHF) =  -492.844048760     A.U. after   12 cycles
 SCF Done:  E(RHF) =  -492.844056121     A.U. after   10 cycles
 SCF Done:  E(RHF) =  -492.844062245     A.U. after   11 cycles
 SCF Done:  E(RHF) =  -492.844065966     A.U. after   10 cycles
 SCF Done:  E(RHF) =  -492.844066611     A.U. after    9 cycles
 SCF Done:  E(RHF) =  -492.844066887     A.U. after    9 cycles
 Optimization completed.
    -- Stationary point found.

                         Standard orientation:
 ---------------------------------------------------------------------
 Center     Atomic      Atomic             Coordinates (Angstroms)
 Number     Number       Type             X           Y           Z
 ---------------------------------------------------------------------
      1          1           0       -3.986677   -1.455135    0.136112
      2          6           0       -2.917435   -1.602064    0.171217
      3          1           0       -2.631799   -2.363545   -0.546741
      4          1           0       -2.642424   -1.951008    1.161837
      5          6           0       -2.233876   -0.276050   -0.102579
      6          8           0       -2.827086    0.762221   -0.036353
      7          7           0       -0.917675   -0.395957   -0.427959
      8          1           0       -0.560574   -1.324607   -0.417410
      9          6           0        0.097840    0.648207   -0.519963
     10          1           0        0.325472    0.810780   -1.570822
     11          6           0       -0.271958    1.993030    0.105261
     12          1           0       -0.515929    1.873433    1.150649
     13          1           0        0.589639    2.649755    0.026585
     14          1           0       -1.107858    2.446735   -0.400930
     15          6           0        1.346818    0.107912    0.189780
     16          8           0        1.397568   -0.003386    1.382741
     17          7           0        2.350986   -0.286129   -0.623653
     18          1           0        2.302345   -0.056721   -1.588822
     19          6           0        3.614843   -0.752217   -0.091298
     20          1           0        3.435990   -1.490391    0.676494
     21          1           0        4.184077   -1.205314   -0.891999
     22          1           0        4.193313    0.057036    0.340716
 ---------------------------------------------------------------------

 The electronic state is 1-A.
 Alpha  occ. eigenvalues --  -20.52970 -20.51933 -15.59791 -15.58766 -11.35014
 Alpha  occ. eigenvalues --  -11.34810 -11.28630 -11.26581 -11.22955 -11.21110
 Alpha  occ. eigenvalues --   -1.40064  -1.38733  -1.24551  -1.23491  -1.05603
 Alpha  occ. eigenvalues --   -0.98898  -0.96643  -0.88190  -0.80076  -0.77199
 Alpha  occ. eigenvalues --   -0.73109  -0.68907  -0.66515  -0.64327  -0.63029
 Alpha  occ. eigenvalues --   -0.62001  -0.60267  -0.58640  -0.56531  -0.56223
 Alpha  occ. eigenvalues --   -0.54665  -0.53706  -0.52772  -0.51252  -0.50671
 Alpha  occ. eigenvalues --   -0.43417  -0.40800  -0.39873  -0.38547
 Alpha virt. eigenvalues --    0.18714   0.20406   0.21056   0.23020   0.25915
 Alpha virt. eigenvalues --    0.27995   0.28900   0.30771   0.31198   0.31350
 Alpha virt. eigenvalues --    0.32534   0.33545   0.34101   0.35999   0.37232

 Mulliken atomic charges:
              1
     1  H    0.214673
     2  C   -0.592442
     3  H    0.174080
     4  H    0.201922
     5  C    0.759929
     6  O   -0.598835
     7  N   -0.821391
     8  H    0.386270
     9  C    0.017507
    10  H    0.170784
    11  C   -0.490077
    12  H    0.206805
    13  H    0.153221
    14  H    0.215682
    15  C    0.727701
    16  O   -0.603106
    17  N   -0.792009
    18  H    0.387191
    19  C   -0.275951
    20  H    0.205317
    21  H    0.170354
    22  H    0.182373
 Sum of Mulliken atomic charges =   0.00000

 Dipole moment (field-independent basis, Debye):
    X=              3.2731    Y=             -2.6517    Z=             -3.5581  Tot=              5.5141
 Quadrupole moment (field-independent basis, Debye-Ang):
   XX=            -60.7184   YY=            -57.4801   ZZ=            -62.5880
   XY=              6.8101   XZ=             -6.8700   YZ=             -0.4375

 Normal termination of Gaussian 09 at Fri Feb 10 01:08:01 2017.
