 Gaussian 09, Revision A.02,
 Gaussian 09:  EM64L-G09RevA.02 11-Jun-2009

 -------------------------------------------
 # HF/6-31G* Opt=(ModRedundant) geom=nocrowd
 -------------------------------------------

 ------------------
 Phi Psi fixed scan
 ------------------
 Symbolic Z-matrix:
 Charge =  0 Multiplicity = 1

 SCF Done:  E(RHF) =  -492.820711272     A.U. after   15 cycles
 SCF Done:  E(RHF) =  -492.840295640     A.U. after   15 cycles
 SCF Done:  E(RHF) =  -492.845796384     A.U. after   13 cycles
 SCF Done:  E(RHF) =  -492.847996679     A.U. after   13 cycles
 SCF Done:  E(RHF) =  -492.848359812     A.U. after   12 cycles
 SCF Done:  E(RHF) =  -492.848389098     A.U. after   13 cycles
 SCF Done:  E(RHF) =  -492.848592418     A.U. after   12 cycles
 SCF Done:  E(RHF) =  -492.848606057     A.U. after   11 cycles
 SCF Done:  E(RHF) =  -492.848629093     A.U. after   11 cycles
 SCF Done:  E(RHF) =  -492.848632044     A.U. after    9 cycles
 SCF Done:  E(RHF) =  -492.849061941     A.U. after   12 cycles
 SCF Done:  E(RHF) =  -492.849070431     A.U. after   11 cycles
 SCF Done:  E(RHF) =  -492.848925901     A.U. after   13 cycles
 SCF Done:  E(RHF) =  -492.849104346     A.U. after   12 cycles
 SCF Done:  E(RHF) =  -492.849114379     A.U. after   11 cycles
 SCF Done:  E(RHF) =  -492.849132376     A.U. after   11 cycles
 SCF Done:  E(RHF) =  -492.849150884     A.U. after   11 cycles
 SCF Done:  E(RHF) =  -492.849162656     A.U. after   11 cycles
 SCF Done:  E(RHF) =  -492.849168681     A.U. after   10 cycles
 SCF Done:  E(RHF) =  -492.849169189     A.U. after    9 cycles
 Optimization completed.
    -- Stationary point found.

                         Standard orientation:
 ---------------------------------------------------------------------
 Center     Atomic      Atomic             Coordinates (Angstroms)
 Number     Number       Type             X           Y           Z
 ---------------------------------------------------------------------
      1          1           0        4.140222   -0.996331   -0.475355
      2          6           0        3.119580   -1.297754   -0.291802
      3          1           0        3.084324   -1.971429    0.557137
      4          1           0        2.747857   -1.832767   -1.160466
      5          6           0        2.277936   -0.056764   -0.060352
      6          8           0        2.689363    1.037219   -0.335015
      7          7           0        1.063057   -0.324926    0.480973
      8          1           0        0.818431   -1.288290    0.553720
      9          6           0       -0.096664    0.536676    0.630987
     10          1           0       -0.251928    0.725333    1.692043
     11          6           0        0.006363    1.893684   -0.071425
     12          1           0        0.059607    1.786001   -1.147818
     13          1           0       -0.855287    2.503594    0.179608
     14          1           0        0.887337    2.420746    0.252026
     15          6           0       -1.313021   -0.301089    0.191094
     16          8           0       -1.244205   -1.502892    0.139097
     17          7           0       -2.460341    0.352857   -0.056835
     18          1           0       -2.470094    1.342971   -0.089254
     19          6           0       -3.663102   -0.363849   -0.430706
     20          1           0       -3.899965   -1.114507    0.310368
     21          1           0       -4.479191    0.343352   -0.490772
     22          1           0       -3.548134   -0.854230   -1.389624
 ---------------------------------------------------------------------

 The electronic state is 1-A.
 Alpha  occ. eigenvalues --  -20.53528 -20.51475 -15.59684 -15.57558 -11.35561
 Alpha  occ. eigenvalues --  -11.34380 -11.28931 -11.26594 -11.22634 -11.22384
 Alpha  occ. eigenvalues --   -1.40597  -1.38197  -1.24436  -1.23229  -1.05874
 Alpha  occ. eigenvalues --   -0.98757  -0.96086  -0.89593  -0.80922  -0.75954
 Alpha  occ. eigenvalues --   -0.73272  -0.68746  -0.66133  -0.65043  -0.62839
 Alpha  occ. eigenvalues --   -0.61910  -0.59683  -0.58644  -0.56753  -0.56201
 Alpha  occ. eigenvalues --   -0.55623  -0.54838  -0.52855  -0.52190  -0.50230
 Alpha  occ. eigenvalues --   -0.43258  -0.40652  -0.40291  -0.38103
 Alpha virt. eigenvalues --    0.18894   0.20850   0.21482   0.24944   0.25692
 Alpha virt. eigenvalues --    0.27951   0.29015   0.30207   0.31916   0.32337
 Alpha virt. eigenvalues --    0.32588   0.33222   0.34225   0.35711   0.37000

 Mulliken atomic charges:
              1
     1  H    0.210723
     2  C   -0.589271
     3  H    0.182886
     4  H    0.195374
     5  C    0.751190
     6  O   -0.612641
     7  N   -0.828571
     8  H    0.419711
     9  C   -0.004939
    10  H    0.204866
    11  C   -0.510124
    12  H    0.185400
    13  H    0.138188
    14  H    0.241156
    15  C    0.774006
    16  O   -0.636424
    17  N   -0.807391
    18  H    0.399890
    19  C   -0.269497
    20  H    0.197989
    21  H    0.169623
    22  H    0.187855
 Sum of Mulliken atomic charges =   0.00000

 Dipole moment (field-independent basis, Debye):
    X=             -3.3575    Y=              0.5485    Z=              0.3975  Tot=              3.4252
 Quadrupole moment (field-independent basis, Debye-Ang):
   XX=            -57.6236   YY=            -63.1634   ZZ=            -59.9698
   XY=            -13.6934   XZ=              2.5105   YZ=              1.4554

 Normal termination of Gaussian 09 at Fri Feb 10 01:36:52 2017.
