 Gaussian 09, Revision A.02,
 Gaussian 09:  EM64L-G09RevA.02 11-Jun-2009

 -------------------------------------------
 # HF/6-31G* Opt=(ModRedundant) geom=nocrowd
 -------------------------------------------

 ------------------
 Phi Psi fixed scan
 ------------------
 Symbolic Z-matrix:
 Charge =  0 Multiplicity = 1

 SCF Done:  E(RHF) =  -492.817230042     A.U. after   15 cycles
 SCF Done:  E(RHF) =  -492.839095042     A.U. after   14 cycles
 SCF Done:  E(RHF) =  -492.844814286     A.U. after   13 cycles
 SCF Done:  E(RHF) =  -492.845669341     A.U. after   13 cycles
 SCF Done:  E(RHF) =  -492.845825360     A.U. after   13 cycles
 SCF Done:  E(RHF) =  -492.846023756     A.U. after   12 cycles
 SCF Done:  E(RHF) =  -492.846112738     A.U. after   13 cycles
 SCF Done:  E(RHF) =  -492.846193433     A.U. after   11 cycles
 SCF Done:  E(RHF) =  -492.846233477     A.U. after   11 cycles
 SCF Done:  E(RHF) =  -492.846262966     A.U. after   11 cycles
 SCF Done:  E(RHF) =  -492.846619639     A.U. after   12 cycles
 SCF Done:  E(RHF) =  -492.846683639     A.U. after   12 cycles
 SCF Done:  E(RHF) =  -492.846696583     A.U. after   11 cycles
 SCF Done:  E(RHF) =  -492.846712252     A.U. after   11 cycles
 SCF Done:  E(RHF) =  -492.846721666     A.U. after   11 cycles
 SCF Done:  E(RHF) =  -492.846726384     A.U. after   11 cycles
 SCF Done:  E(RHF) =  -492.846730149     A.U. after   11 cycles
 SCF Done:  E(RHF) =  -492.846732541     A.U. after   11 cycles
 SCF Done:  E(RHF) =  -492.846732727     A.U. after    9 cycles
 SCF Done:  E(RHF) =  -492.846732764     A.U. after    8 cycles
 Optimization completed.
    -- Stationary point found.

                         Standard orientation:
 ---------------------------------------------------------------------
 Center     Atomic      Atomic             Coordinates (Angstroms)
 Number     Number       Type             X           Y           Z
 ---------------------------------------------------------------------
      1          1           0        3.760755   -1.526742   -0.510233
      2          6           0        3.034745   -1.374795    0.274690
      3          1           0        3.558876   -1.098796    1.184807
      4          1           0        2.499151   -2.299258    0.460430
      5          6           0        2.106130   -0.246696   -0.132595
      6          8           0        2.403510    0.529233   -0.996377
      7          7           0        0.938364   -0.217289    0.565141
      8          1           0        0.859176   -0.886821    1.298641
      9          6           0       -0.089925    0.822531    0.623034
     10          1           0       -0.090952    1.226671    1.627628
     11          6           0        0.070677    1.987092   -0.353472
     12          1           0        0.091593    1.675888   -1.387018
     13          1           0       -0.769933    2.657640   -0.207405
     14          1           0        0.984129    2.528596   -0.158176
     15          6           0       -1.450779    0.127304    0.497256
     16          8           0       -2.161413   -0.010012    1.456542
     17          7           0       -1.787577   -0.307277   -0.734485
     18          1           0       -1.087918   -0.307733   -1.440349
     19          6           0       -2.987171   -1.084933   -0.958636
     20          1           0       -3.824780   -0.607324   -0.472435
     21          1           0       -3.177640   -1.132339   -2.022616
     22          1           0       -2.896808   -2.094612   -0.570853
 ---------------------------------------------------------------------

 The electronic state is 1-A.
 Alpha  occ. eigenvalues --  -20.52832 -20.52749 -15.59605 -15.58590 -11.35777
 Alpha  occ. eigenvalues --  -11.34420 -11.28492 -11.25903 -11.23783 -11.22307
 Alpha  occ. eigenvalues --   -1.39863  -1.39314  -1.24888  -1.22999  -1.06096
 Alpha  occ. eigenvalues --   -0.99626  -0.95736  -0.89390  -0.79605  -0.77560
 Alpha  occ. eigenvalues --   -0.72646  -0.69756  -0.66641  -0.64076  -0.62678
 Alpha  occ. eigenvalues --   -0.62189  -0.59731  -0.59082  -0.57184  -0.56003
 Alpha  occ. eigenvalues --   -0.55510  -0.54261  -0.53284  -0.52024  -0.51457
 Alpha  occ. eigenvalues --   -0.43619  -0.41757  -0.39188  -0.38583
 Alpha virt. eigenvalues --    0.18741   0.20432   0.21204   0.23269   0.26227
 Alpha virt. eigenvalues --    0.26934   0.28829   0.29979   0.30618   0.31845
 Alpha virt. eigenvalues --    0.32715   0.33187   0.33674   0.35549   0.36718

 Mulliken atomic charges:
              1
     1  H    0.216658
     2  C   -0.590717
     3  H    0.198273
     4  H    0.179358
     5  C    0.747764
     6  O   -0.600218
     7  N   -0.831334
     8  H    0.391561
     9  C   -0.031862
    10  H    0.215441
    11  C   -0.478193
    12  H    0.182980
    13  H    0.171860
    14  H    0.201479
    15  C    0.748452
    16  O   -0.609962
    17  N   -0.780284
    18  H    0.394042
    19  C   -0.273915
    20  H    0.205427
    21  H    0.170855
    22  H    0.172334
 Sum of Mulliken atomic charges =   0.00000

 Dipole moment (field-independent basis, Debye):
    X=              0.6138    Y=             -2.1109    Z=             -0.4645  Tot=              2.2469
 Quadrupole moment (field-independent basis, Debye-Ang):
   XX=            -66.1854   YY=            -56.9823   ZZ=            -63.2324
   XY=             -4.0060   XZ=             14.5335   YZ=              2.0477

 Normal termination of Gaussian 09 at Fri Feb 10 02:11:40 2017.
