 Gaussian 09, Revision A.02,
 Gaussian 09:  EM64L-G09RevA.02 11-Jun-2009

 -------------------------------------------
 # HF/6-31G* Opt=(ModRedundant) geom=nocrowd
 -------------------------------------------

 ------------------
 Phi Psi fixed scan
 ------------------
 Symbolic Z-matrix:
 Charge =  0 Multiplicity = 1

 SCF Done:  E(RHF) =  -492.821298149     A.U. after   15 cycles
 SCF Done:  E(RHF) =  -492.841089183     A.U. after   15 cycles
 SCF Done:  E(RHF) =  -492.845095028     A.U. after   13 cycles
 SCF Done:  E(RHF) =  -492.845943730     A.U. after   13 cycles
 SCF Done:  E(RHF) =  -492.846092209     A.U. after   13 cycles
 SCF Done:  E(RHF) =  -492.846511237     A.U. after   13 cycles
 SCF Done:  E(RHF) =  -492.846892244     A.U. after   13 cycles
 SCF Done:  E(RHF) =  -492.847114384     A.U. after   13 cycles
 SCF Done:  E(RHF) =  -492.847138557     A.U. after   13 cycles
 SCF Done:  E(RHF) =  -492.847256167     A.U. after   12 cycles
 SCF Done:  E(RHF) =  -492.847363724     A.U. after   14 cycles
 SCF Done:  E(RHF) =  -492.840929979     A.U. after   15 cycles
 SCF Done:  E(RHF) =  -492.847475835     A.U. after   13 cycles
 SCF Done:  E(RHF) =  -492.847487828     A.U. after   12 cycles
 SCF Done:  E(RHF) =  -492.847483861     A.U. after   12 cycles
 SCF Done:  E(RHF) =  -492.847516516     A.U. after   11 cycles
 SCF Done:  E(RHF) =  -492.847523551     A.U. after   11 cycles
 SCF Done:  E(RHF) =  -492.847526649     A.U. after   11 cycles
 SCF Done:  E(RHF) =  -492.847526780     A.U. after    8 cycles
 SCF Done:  E(RHF) =  -492.847526773     A.U. after    7 cycles
 Optimization completed.
    -- Stationary point found.

                         Standard orientation:
 ---------------------------------------------------------------------
 Center     Atomic      Atomic             Coordinates (Angstroms)
 Number     Number       Type             X           Y           Z
 ---------------------------------------------------------------------
      1          1           0       -4.117626   -1.168036    0.103589
      2          6           0       -3.067759   -1.406912    0.021486
      3          1           0       -2.911986   -2.084631   -0.810971
      4          1           0       -2.745206   -1.908577    0.928876
      5          6           0       -2.284340   -0.121466   -0.154014
      6          8           0       -2.783927    0.953027    0.020970
      7          7           0       -0.994242   -0.313989   -0.557659
      8          1           0       -0.695993   -1.262021   -0.492428
      9          6           0        0.106897    0.630640   -0.425896
     10          1           0        0.335865    1.037251   -1.406696
     11          6           0       -0.120344    1.800249    0.542588
     12          1           0       -0.372767    1.433679    1.529092
     13          1           0        0.799971    2.373063    0.614091
     14          1           0       -0.911364    2.446883    0.201297
     15          6           0        1.316376   -0.152879    0.091133
     16          8           0        1.211328   -0.958534    0.976934
     17          7           0        2.483933    0.103346   -0.529419
     18          1           0        2.515609    0.819736   -1.216726
     19          6           0        3.731920   -0.468440   -0.067395
     20          1           0        3.613595   -1.531859    0.080396
     21          1           0        4.490487   -0.298404   -0.819499
     22          1           0        4.055869   -0.025667    0.867877
 ---------------------------------------------------------------------

 The electronic state is 1-A.
 Alpha  occ. eigenvalues --  -20.53321 -20.52019 -15.59840 -15.58034 -11.35339
 Alpha  occ. eigenvalues --  -11.34513 -11.28540 -11.26656 -11.22637 -11.21853
 Alpha  occ. eigenvalues --   -1.40376  -1.38691  -1.24502  -1.23371  -1.05688
 Alpha  occ. eigenvalues --   -0.98903  -0.96498  -0.88427  -0.80368  -0.76604
 Alpha  occ. eigenvalues --   -0.73318  -0.68330  -0.66489  -0.63827  -0.63447
 Alpha  occ. eigenvalues --   -0.62094  -0.60270  -0.58473  -0.56636  -0.56283
 Alpha  occ. eigenvalues --   -0.55278  -0.54489  -0.52548  -0.51931  -0.50236
 Alpha  occ. eigenvalues --   -0.43048  -0.40737  -0.40079  -0.39046
 Alpha virt. eigenvalues --    0.19189   0.20094   0.21406   0.23544   0.25858
 Alpha virt. eigenvalues --    0.28227   0.29170   0.30030   0.31211   0.31527
 Alpha virt. eigenvalues --    0.32197   0.33137   0.34185   0.35723   0.37157

 Mulliken atomic charges:
              1
     1  H    0.212906
     2  C   -0.596368
     3  H    0.182881
     4  H    0.200206
     5  C    0.748869
     6  O   -0.599344
     7  N   -0.809350
     8  H    0.394222
     9  C    0.015696
    10  H    0.180837
    11  C   -0.501326
    12  H    0.194893
    13  H    0.153314
    14  H    0.229132
    15  C    0.725845
    16  O   -0.616309
    17  N   -0.789239
    18  H    0.388993
    19  C   -0.275359
    20  H    0.205408
    21  H    0.171731
    22  H    0.182364
 Sum of Mulliken atomic charges =   0.00000

 Dipole moment (field-independent basis, Debye):
    X=              3.5989    Y=             -0.5475    Z=             -2.4483  Tot=              4.3870
 Quadrupole moment (field-independent basis, Debye-Ang):
   XX=            -57.4128   YY=            -60.1658   ZZ=            -61.9175
   XY=             11.4672   XZ=             -4.4113   YZ=              1.1064

 Normal termination of Gaussian 09 at Fri Feb 10 01:16:30 2017.
