 Gaussian 09, Revision A.02,
 Gaussian 09:  EM64L-G09RevA.02 11-Jun-2009

 -------------------------------------------
 # HF/6-31G* Opt=(ModRedundant) geom=nocrowd
 -------------------------------------------

 ------------------
 Phi Psi fixed scan
 ------------------
 Symbolic Z-matrix:
 Charge =  0 Multiplicity = 1

 SCF Done:  E(RHF) =  -492.814398263     A.U. after   15 cycles
 SCF Done:  E(RHF) =  -492.836675881     A.U. after   14 cycles
 SCF Done:  E(RHF) =  -492.842091211     A.U. after   14 cycles
 SCF Done:  E(RHF) =  -492.844792122     A.U. after   13 cycles
 SCF Done:  E(RHF) =  -492.846132941     A.U. after   16 cycles
 SCF Done:  E(RHF) =  -492.846243323     A.U. after   13 cycles
 SCF Done:  E(RHF) =  -492.846581979     A.U. after   13 cycles
 SCF Done:  E(RHF) =  -492.846684095     A.U. after   11 cycles
 SCF Done:  E(RHF) =  -492.846732233     A.U. after   12 cycles
 SCF Done:  E(RHF) =  -492.846821348     A.U. after   12 cycles
 SCF Done:  E(RHF) =  -492.847177778     A.U. after   12 cycles
 SCF Done:  E(RHF) =  -492.847315436     A.U. after   13 cycles
 SCF Done:  E(RHF) =  -492.847324529     A.U. after   10 cycles
 SCF Done:  E(RHF) =  -492.847333323     A.U. after   11 cycles
 SCF Done:  E(RHF) =  -492.847337459     A.U. after   10 cycles
 SCF Done:  E(RHF) =  -492.847341576     A.U. after   11 cycles
 SCF Done:  E(RHF) =  -492.847343682     A.U. after   11 cycles
 SCF Done:  E(RHF) =  -492.847343953     A.U. after    9 cycles
 SCF Done:  E(RHF) =  -492.847343991     A.U. after    7 cycles
 SCF Done:  E(RHF) =  -492.847344001     A.U. after    6 cycles
 Optimization completed.
    -- Stationary point found.

                         Standard orientation:
 ---------------------------------------------------------------------
 Center     Atomic      Atomic             Coordinates (Angstroms)
 Number     Number       Type             X           Y           Z
 ---------------------------------------------------------------------
      1          1           0       -3.833756   -1.490175    0.380353
      2          6           0       -3.016832   -1.399964   -0.319932
      3          1           0       -3.423314   -1.191908   -1.305370
      4          1           0       -2.475420   -2.338611   -0.370564
      5          6           0       -2.127135   -0.249892    0.114699
      6          8           0       -2.501659    0.566236    0.903476
      7          7           0       -0.888638   -0.266872   -0.468236
      8          1           0       -0.794311   -0.943353   -1.194113
      9          6           0        0.105039    0.803916   -0.560175
     10          1           0        0.168533    1.105098   -1.601581
     11          6           0       -0.194083    2.059014    0.263149
     12          1           0       -0.254623    1.840449    1.319848
     13          1           0        0.613009    2.756990    0.090705
     14          1           0       -1.128183    2.508268   -0.039026
     15          6           0        1.518785    0.307000   -0.227513
     16          8           0        2.449984    1.057872   -0.335444
     17          7           0        1.661527   -0.996807    0.093658
     18          1           0        0.848116   -1.477910    0.399986
     19          6           0        2.952563   -1.513431    0.498819
     20          1           0        3.699773   -1.221701   -0.223693
     21          1           0        3.254552   -1.140380    1.471873
     22          1           0        2.898782   -2.593735    0.535094
 ---------------------------------------------------------------------

 The electronic state is 1-A.
 Alpha  occ. eigenvalues --  -20.53333 -20.52276 -15.59872 -15.58679 -11.36114
 Alpha  occ. eigenvalues --  -11.34446 -11.28698 -11.25859 -11.24199 -11.21191
 Alpha  occ. eigenvalues --   -1.40239  -1.39254  -1.25481  -1.22730  -1.05843
 Alpha  occ. eigenvalues --   -0.99614  -0.96143  -0.88365  -0.79875  -0.77105
 Alpha  occ. eigenvalues --   -0.73069  -0.70149  -0.66985  -0.63322  -0.62876
 Alpha  occ. eigenvalues --   -0.62275  -0.60580  -0.59573  -0.57299  -0.55529
 Alpha  occ. eigenvalues --   -0.55084  -0.53643  -0.52635  -0.52208  -0.49988
 Alpha  occ. eigenvalues --   -0.44102  -0.42237  -0.39437  -0.38734
 Alpha virt. eigenvalues --    0.18816   0.19481   0.20259   0.24465   0.26244
 Alpha virt. eigenvalues --    0.28083   0.28741   0.30178   0.30806   0.31564
 Alpha virt. eigenvalues --    0.33009   0.33444   0.34329   0.35310   0.36094

 Mulliken atomic charges:
              1
     1  H    0.220301
     2  C   -0.593146
     3  H    0.196547
     4  H    0.175856
     5  C    0.748712
     6  O   -0.581389
     7  N   -0.853342
     8  H    0.381954
     9  C   -0.015403
    10  H    0.208834
    11  C   -0.487548
    12  H    0.190094
    13  H    0.201387
    14  H    0.192569
    15  C    0.757758
    16  O   -0.616451
    17  N   -0.795953
    18  H    0.395017
    19  C   -0.276910
    20  H    0.205668
    21  H    0.178367
    22  H    0.167080
 Sum of Mulliken atomic charges =   0.00000

 Dipole moment (field-independent basis, Debye):
    X=             -1.1515    Y=             -4.5636    Z=             -1.8303  Tot=              5.0501
 Quadrupole moment (field-independent basis, Debye-Ang):
   XX=            -69.7660   YY=            -58.0235   ZZ=            -59.8251
   XY=             -1.7112   XZ=              8.5640   YZ=             -1.2652

 Normal termination of Gaussian 09 at Fri Feb 10 00:49:24 2017.
