 Gaussian 09, Revision A.02,
 Gaussian 09:  EM64L-G09RevA.02 11-Jun-2009

 -------------------------------------------
 # HF/6-31G* Opt=(ModRedundant) geom=nocrowd
 -------------------------------------------

 ------------------
 Phi Psi fixed scan
 ------------------
 Symbolic Z-matrix:
 Charge =  0 Multiplicity = 1

 SCF Done:  E(RHF) =  -492.816110050     A.U. after   15 cycles
 SCF Done:  E(RHF) =  -492.837635074     A.U. after   15 cycles
 SCF Done:  E(RHF) =  -492.842301430     A.U. after   13 cycles
 SCF Done:  E(RHF) =  -492.842787128     A.U. after   13 cycles
 SCF Done:  E(RHF) =  -492.842812979     A.U. after   13 cycles
 SCF Done:  E(RHF) =  -492.842964832     A.U. after   12 cycles
 SCF Done:  E(RHF) =  -492.843006435     A.U. after   12 cycles
 SCF Done:  E(RHF) =  -492.843063710     A.U. after   12 cycles
 SCF Done:  E(RHF) =  -492.843104011     A.U. after   11 cycles
 SCF Done:  E(RHF) =  -492.843134153     A.U. after   11 cycles
 SCF Done:  E(RHF) =  -492.843496973     A.U. after   11 cycles
 SCF Done:  E(RHF) =  -492.843512091     A.U. after   11 cycles
 SCF Done:  E(RHF) =  -492.843533786     A.U. after   12 cycles
 SCF Done:  E(RHF) =  -492.843543694     A.U. after   10 cycles
 SCF Done:  E(RHF) =  -492.843557111     A.U. after   11 cycles
 SCF Done:  E(RHF) =  -492.843559789     A.U. after    9 cycles
 SCF Done:  E(RHF) =  -492.843563192     A.U. after   10 cycles
 SCF Done:  E(RHF) =  -492.843564528     A.U. after   10 cycles
 SCF Done:  E(RHF) =  -492.843565404     A.U. after   10 cycles
 SCF Done:  E(RHF) =  -492.843565482     A.U. after    8 cycles
 Optimization completed.
    -- Stationary point found.

                         Standard orientation:
 ---------------------------------------------------------------------
 Center     Atomic      Atomic             Coordinates (Angstroms)
 Number     Number       Type             X           Y           Z
 ---------------------------------------------------------------------
      1          1           0       -3.892138   -1.583653    0.233927
      2          6           0       -2.817454   -1.680503    0.276568
      3          1           0       -2.495558   -2.457197   -0.409013
      4          1           0       -2.531595   -1.976342    1.281269
      5          6           0       -2.194576   -0.335473   -0.047334
      6          8           0       -2.831485    0.677427   -0.001437
      7          7           0       -0.877095   -0.410330   -0.379097
      8          1           0       -0.486342   -1.325474   -0.389073
      9          6           0        0.088688    0.668515   -0.578333
     10          1           0        0.307125    0.737271   -1.641994
     11          6           0       -0.345029    2.046113   -0.086520
     12          1           0       -0.579945    2.022468    0.966793
     13          1           0        0.482725    2.732052   -0.236572
     14          1           0       -1.203924    2.403958   -0.630237
     15          6           0        1.361785    0.236689    0.164155
     16          8           0        1.531457    0.455532    1.329435
     17          7           0        2.240647   -0.476347   -0.581192
     18          1           0        2.141194   -0.462585   -1.569956
     19          6           0        3.509485   -0.910977   -0.033204
     20          1           0        3.347443   -1.376075    0.927627
     21          1           0        3.950914   -1.634153   -0.706184
     22          1           0        4.198071   -0.083386    0.099458
 ---------------------------------------------------------------------

 The electronic state is 1-A.
 Alpha  occ. eigenvalues --  -20.53147 -20.51993 -15.59752 -15.58966 -11.35041
 Alpha  occ. eigenvalues --  -11.34951 -11.28678 -11.26568 -11.23106 -11.20847
 Alpha  occ. eigenvalues --   -1.40162  -1.38825  -1.24769  -1.23391  -1.05594
 Alpha  occ. eigenvalues --   -0.98901  -0.96705  -0.88130  -0.79935  -0.77337
 Alpha  occ. eigenvalues --   -0.73013  -0.69152  -0.66540  -0.64626  -0.62965
 Alpha  occ. eigenvalues --   -0.62035  -0.60332  -0.58783  -0.56569  -0.56201
 Alpha  occ. eigenvalues --   -0.54212  -0.53404  -0.52860  -0.51280  -0.50862
 Alpha  occ. eigenvalues --   -0.43800  -0.41067  -0.39855  -0.38398
 Alpha virt. eigenvalues --    0.18402   0.20500   0.21057   0.23078   0.26006
 Alpha virt. eigenvalues --    0.27935   0.28553   0.30623   0.31046   0.31443
 Alpha virt. eigenvalues --    0.32769   0.33690   0.34185   0.35825   0.37064

 Mulliken atomic charges:
              1
     1  H    0.215258
     2  C   -0.590377
     3  H    0.171939
     4  H    0.201407
     5  C    0.758982
     6  O   -0.596946
     7  N   -0.824995
     8  H    0.385698
     9  C    0.010162
    10  H    0.169350
    11  C   -0.480474
    12  H    0.207831
    13  H    0.155396
    14  H    0.209239
    15  C    0.732475
    16  O   -0.595891
    17  N   -0.794342
    18  H    0.384372
    19  C   -0.276909
    20  H    0.206936
    21  H    0.169991
    22  H    0.180900
 Sum of Mulliken atomic charges =   0.00000

 Dipole moment (field-independent basis, Debye):
    X=              3.0117    Y=             -3.5728    Z=             -3.5477  Tot=              5.8669
 Quadrupole moment (field-independent basis, Debye-Ang):
   XX=            -62.7987   YY=            -57.3990   ZZ=            -61.8446
   XY=              4.3672   XZ=             -6.8401   YZ=             -1.6309

 Normal termination of Gaussian 09 at Fri Feb 10 01:05:02 2017.
