 Gaussian 09, Revision A.02,
 Gaussian 09:  EM64L-G09RevA.02 11-Jun-2009

 -------------------------------------------
 # HF/6-31G* Opt=(ModRedundant) geom=nocrowd
 -------------------------------------------

 ------------------
 Phi Psi fixed scan
 ------------------
 Symbolic Z-matrix:
 Charge =  0 Multiplicity = 1

 SCF Done:  E(RHF) =  -492.815830176     A.U. after   15 cycles
 SCF Done:  E(RHF) =  -492.841242775     A.U. after   15 cycles
 SCF Done:  E(RHF) =  -492.846025898     A.U. after   16 cycles
 SCF Done:  E(RHF) =  -492.847801879     A.U. after   16 cycles
 SCF Done:  E(RHF) =  -492.847904302     A.U. after   11 cycles
 SCF Done:  E(RHF) =  -492.847963010     A.U. after   12 cycles
 SCF Done:  E(RHF) =  -492.848041575     A.U. after   11 cycles
 SCF Done:  E(RHF) =  -492.848042852     A.U. after   10 cycles
 SCF Done:  E(RHF) =  -492.848053205     A.U. after   10 cycles
 SCF Done:  E(RHF) =  -492.848056919     A.U. after    9 cycles
 SCF Done:  E(RHF) =  -492.845352328     A.U. after   13 cycles
 SCF Done:  E(RHF) =  -492.848518387     A.U. after   13 cycles
 SCF Done:  E(RHF) =  -492.848518802     A.U. after   10 cycles
 SCF Done:  E(RHF) =  -492.848516097     A.U. after   10 cycles
 SCF Done:  E(RHF) =  -492.848517910     A.U. after   10 cycles
 SCF Done:  E(RHF) =  -492.848520163     A.U. after   11 cycles
 SCF Done:  E(RHF) =  -492.848520707     A.U. after   10 cycles
 SCF Done:  E(RHF) =  -492.848521028     A.U. after   10 cycles
 SCF Done:  E(RHF) =  -492.848521086     A.U. after    9 cycles
 SCF Done:  E(RHF) =  -492.848521098     A.U. after    7 cycles
 Optimization completed.
    -- Stationary point found.

                         Standard orientation:
 ---------------------------------------------------------------------
 Center     Atomic      Atomic             Coordinates (Angstroms)
 Number     Number       Type             X           Y           Z
 ---------------------------------------------------------------------
      1          1           0        3.845776   -1.032114   -1.159076
      2          6           0        3.113100   -1.277127   -0.404172
      3          1           0        3.631628   -1.501376    0.522987
      4          1           0        2.559900   -2.160020   -0.703953
      5          6           0        2.211315   -0.074800   -0.194773
      6          8           0        2.555580    1.027144   -0.525950
      7          7           0        1.041228   -0.375486    0.416653
      8          1           0        0.859193   -1.335838    0.606972
      9          6           0       -0.081111    0.481873    0.772599
     10          1           0       -0.147140    0.513074    1.857556
     11          6           0        0.011317    1.922787    0.276471
     12          1           0        0.054550    1.986385   -0.803198
     13          1           0       -0.852710    2.472310    0.638035
     14          1           0        0.897371    2.400868    0.660730
     15          6           0       -1.335572   -0.296224    0.340756
     16          8           0       -1.419863   -1.465846    0.621146
     17          7           0       -2.307084    0.355594   -0.316393
     18          1           0       -2.154737    1.286222   -0.622078
     19          6           0       -3.500375   -0.334200   -0.763320
     20          1           0       -3.953272   -0.865669    0.061346
     21          1           0       -4.201274    0.398340   -1.140140
     22          1           0       -3.276078   -1.047177   -1.547919
 ---------------------------------------------------------------------

 The electronic state is 1-A.
 Alpha  occ. eigenvalues --  -20.52898 -20.51547 -15.59661 -15.58147 -11.35196
 Alpha  occ. eigenvalues --  -11.34648 -11.28809 -11.26465 -11.22676 -11.22594
 Alpha  occ. eigenvalues --   -1.40078  -1.38337  -1.24306  -1.23478  -1.05953
 Alpha  occ. eigenvalues --   -0.98927  -0.96038  -0.89787  -0.80689  -0.76429
 Alpha  occ. eigenvalues --   -0.72979  -0.69240  -0.65930  -0.65076  -0.62641
 Alpha  occ. eigenvalues --   -0.61829  -0.59479  -0.58718  -0.56586  -0.56235
 Alpha  occ. eigenvalues --   -0.55767  -0.54661  -0.53178  -0.52002  -0.50586
 Alpha  occ. eigenvalues --   -0.43224  -0.40856  -0.39897  -0.37975
 Alpha virt. eigenvalues --    0.18949   0.21175   0.21936   0.24302   0.25653
 Alpha virt. eigenvalues --    0.27571   0.29332   0.30230   0.30958   0.31822
 Alpha virt. eigenvalues --    0.32861   0.33338   0.34081   0.35676   0.36604

 Mulliken atomic charges:
              1
     1  H    0.211316
     2  C   -0.585610
     3  H    0.197081
     4  H    0.179752
     5  C    0.751518
     6  O   -0.614323
     7  N   -0.828273
     8  H    0.412444
     9  C    0.007301
    10  H    0.204843
    11  C   -0.517362
    12  H    0.186364
    13  H    0.153297
    14  H    0.228103
    15  C    0.770017
    16  O   -0.638135
    17  N   -0.807652
    18  H    0.403632
    19  C   -0.271746
    20  H    0.201594
    21  H    0.170230
    22  H    0.185608
 Sum of Mulliken atomic charges =   0.00000

 Dipole moment (field-independent basis, Debye):
    X=             -2.3684    Y=              0.4609    Z=             -0.2415  Tot=              2.4249
 Quadrupole moment (field-independent basis, Debye-Ang):
   XX=            -58.4880   YY=            -63.3274   ZZ=            -59.7042
   XY=            -13.6240   XZ=              6.2769   YZ=              3.0207

 Normal termination of Gaussian 09 at Fri Feb 10 01:47:02 2017.
