 Gaussian 09, Revision A.02,
 Gaussian 09:  EM64L-G09RevA.02 11-Jun-2009

 -------------------
 #SP MP2/aug-cc-pVDZ
 -------------------

 -------------------------------
 Single Point calculation at MP2
 -------------------------------
 Symbolic Z-matrix:
 Charge =  0 Multiplicity = 1

                         Standard orientation:
 ---------------------------------------------------------------------
 Center     Atomic      Atomic             Coordinates (Angstroms)
 Number     Number       Type             X           Y           Z
 ---------------------------------------------------------------------
      1          1           0       -4.173900   -1.163915   -0.258995
      2          6           0       -3.146199   -1.352711    0.056505
      3          1           0       -2.764995   -2.245809   -0.449395
      4          1           0       -3.149798   -1.548111    1.135905
      5          6           0       -2.309605   -0.111907   -0.232095
      6          8           0       -2.804109    1.005691   -0.292095
      7          7           0       -0.974104   -0.371302   -0.456495
      8          1           0       -0.673400   -1.286900   -0.135895
      9          6           0        0.094992    0.622003   -0.299495
     10          1           0        0.256390    1.127704   -1.261095
     11          6           0       -0.157412    1.686202    0.787705
     12          1           0       -0.278010    1.200201    1.761105
     13          1           0        0.703485    2.362506    0.843505
     14          1           0       -1.055715    2.258998    0.560705
     15          6           0        1.352996   -0.164592    0.109405
     16          8           0        1.296399   -1.056692    0.951105
     17          7           0        2.494294    0.183313   -0.544095
     18          1           0        2.448491    0.927013   -1.226095
     19          6           0        3.791397   -0.390281   -0.225895
     20          1           0        3.624300   -1.201182    0.484005
     21          1           0        4.267998   -0.791079   -1.126995
     22          1           0        4.458493    0.352222    0.228505
 ---------------------------------------------------------------------

 SCF Done:  E(RHF) =  -492.919671602     A.U. after   14 cycles
 E2 =    -0.1602037117D+01 EUMP2 =    -0.49452170871974D+03

 The electronic state is 1-A.
 Alpha  occ. eigenvalues --  -20.54298 -20.53040 -15.61033 -15.59044 -11.37182
 Alpha  occ. eigenvalues --  -11.36027 -11.29760 -11.27810 -11.24240 -11.22910
 Alpha  occ. eigenvalues --   -1.39866  -1.38147  -1.24660  -1.23330  -1.05512
 Alpha  occ. eigenvalues --   -0.98925  -0.96466  -0.88283  -0.80417  -0.76998
 Alpha  occ. eigenvalues --   -0.73180  -0.67716  -0.66515  -0.63844  -0.63510
 Alpha  occ. eigenvalues --   -0.61991  -0.60415  -0.58419  -0.56537  -0.55817
 Alpha  occ. eigenvalues --   -0.55608  -0.54775  -0.52339  -0.51879  -0.49842
 Alpha  occ. eigenvalues --   -0.43751  -0.41940  -0.40542  -0.39644
 Alpha virt. eigenvalues --    0.02654   0.04080   0.04262   0.04424   0.05801
 Alpha virt. eigenvalues --    0.06003   0.06397   0.06764   0.07842   0.07976
 Alpha virt. eigenvalues --    0.08947   0.09275   0.11636   0.12037   0.12357

 Mulliken atomic charges:
              1
     1  H   -0.040815
     2  C    0.303227
     3  H   -0.041404
     4  H    0.060923
     5  C    0.651492
     6  O   -0.828653
     7  N   -0.378685
     8  H    0.022213
     9  C   -0.285016
    10  H   -0.275238
    11  C    0.668597
    12  H    0.007844
    13  H   -0.091801
    14  H    0.029347
    15  C    1.306527
    16  O   -0.888141
    17  N   -0.497051
    18  H   -0.107843
    19  C    0.728831
    20  H   -0.142336
    21  H   -0.115651
    22  H   -0.086370
 Sum of Mulliken atomic charges =   0.00000

 Dipole moment (field-independent basis, Debye):
    X=              3.4312    Y=             -0.4068    Z=             -1.6191  Tot=              3.8158
 Quadrupole moment (field-independent basis, Debye-Ang):
   XX=            -58.2084   YY=            -62.0425   ZZ=            -62.6210
   XY=             12.7563   XZ=             -6.7610   YZ=              1.5530

 Normal termination of Gaussian 09 at Sun Feb 12 20:52:46 2017.
