 Gaussian 09, Revision A.02,
 Gaussian 09:  EM64L-G09RevA.02 11-Jun-2009

 -------------------
 #SP MP2/aug-cc-pVDZ
 -------------------

 -------------------------------
 Single Point calculation at MP2
 -------------------------------
 Symbolic Z-matrix:
 Charge =  0 Multiplicity = 1

                         Standard orientation:
 ---------------------------------------------------------------------
 Center     Atomic      Atomic             Coordinates (Angstroms)
 Number     Number       Type             X           Y           Z
 ---------------------------------------------------------------------
      1          1           0       -3.749592   -1.825505    0.184803
      2          6           0       -2.757493   -1.635703    0.599503
      3          1           0       -2.134491   -2.527502    0.472303
      4          1           0       -2.872993   -1.447203    1.673503
      5          6           0       -2.181195   -0.390902   -0.068697
      6          8           0       -2.893697    0.538697   -0.417397
      7          7           0       -0.817495   -0.432999   -0.257697
      8          1           0       -0.349394   -1.217398    0.177303
      9          6           0        0.060802    0.730403   -0.520697
     10          1           0        0.173202    0.840403   -1.610197
     11          6           0       -0.434700    2.054602    0.061103
     12          1           0       -0.533300    1.982001    1.147403
     13          1           0        0.303998    2.832103   -0.153597
     14          1           0       -1.397201    2.324900   -0.369397
     15          6           0        1.446403    0.385006    0.077303
     16          8           0        1.964502    1.026607    0.977503
     17          7           0        2.020005   -0.736393   -0.469297
     18          1           0        1.610706   -1.112894   -1.314197
     19          6           0        3.349306   -1.190590   -0.090697
     20          1           0        3.593205   -0.731690    0.868003
     21          1           0        3.366009   -2.280490    0.010803
     22          1           0        4.107106   -0.890289   -0.825497
 ---------------------------------------------------------------------

 SCF Done:  E(RHF) =  -492.912994093     A.U. after   14 cycles
 E2 =    -0.1602561732D+01 EUMP2 =    -0.49451555582555D+03

 The electronic state is 1-A.
 Alpha  occ. eigenvalues --  -20.54501 -20.53406 -15.60720 -15.60353 -11.37102
 Alpha  occ. eigenvalues --  -11.36774 -11.29982 -11.27795 -11.25059 -11.21597
 Alpha  occ. eigenvalues --   -1.39909  -1.38692  -1.25324  -1.23102  -1.05494
 Alpha  occ. eigenvalues --   -0.99086  -0.96801  -0.87737  -0.79957  -0.77980
 Alpha  occ. eigenvalues --   -0.73358  -0.67676  -0.67113  -0.65334  -0.62775
 Alpha  occ. eigenvalues --   -0.62292  -0.60649  -0.59100  -0.56936  -0.55772
 Alpha  occ. eigenvalues --   -0.54703  -0.53765  -0.52707  -0.51448  -0.50047
 Alpha  occ. eigenvalues --   -0.44449  -0.42144  -0.40526  -0.39823
 Alpha virt. eigenvalues --    0.02232   0.03627   0.04101   0.04669   0.05525
 Alpha virt. eigenvalues --    0.05952   0.06604   0.06813   0.07239   0.08239
 Alpha virt. eigenvalues --    0.08803   0.09097   0.10837   0.12083   0.13082

 Mulliken atomic charges:
              1
     1  H   -0.011508
     2  C    0.324476
     3  H   -0.109978
     4  H    0.056860
     5  C    0.563747
     6  O   -0.835022
     7  N   -0.364300
     8  H    0.003335
     9  C   -0.087573
    10  H   -0.171518
    11  C    0.673791
    12  H   -0.000717
    13  H   -0.083954
    14  H    0.064644
    15  C    0.953006
    16  O   -0.784013
    17  N   -0.472933
    18  H   -0.107811
    19  C    0.749144
    20  H   -0.134319
    21  H   -0.131292
    22  H   -0.094063
 Sum of Mulliken atomic charges =   0.00000

 Dipole moment (field-independent basis, Debye):
    X=              2.0758    Y=             -4.6560    Z=             -1.4094  Tot=              5.2890
 Quadrupole moment (field-independent basis, Debye-Ang):
   XX=            -69.1573   YY=            -58.9119   ZZ=            -61.4224
   XY=              0.4384   XZ=             -9.4179   YZ=             -2.2313

 Normal termination of Gaussian 09 at Sun Feb 12 22:28:09 2017.
