 Gaussian 09, Revision A.02,
 Gaussian 09:  EM64L-G09RevA.02 11-Jun-2009

 -------------------
 #SP MP2/aug-cc-pVDZ
 -------------------

 -------------------------------
 Single Point calculation at MP2
 -------------------------------
 Symbolic Z-matrix:
 Charge =  0 Multiplicity = 1

                         Standard orientation:
 ---------------------------------------------------------------------
 Center     Atomic      Atomic             Coordinates (Angstroms)
 Number     Number       Type             X           Y           Z
 ---------------------------------------------------------------------
      1          1           0       -3.798389   -1.707192    0.297708
      2          6           0       -2.742289   -1.619591    0.558308
      3          1           0       -2.212789   -2.526291    0.246208
      4          1           0       -2.666289   -1.537891    1.649708
      5          6           0       -2.182890   -0.356791   -0.088792
      6          8           0       -2.893390    0.594309   -0.371692
      7          7           0       -0.824690   -0.416491   -0.360392
      8          1           0       -0.370890   -1.168691    0.146508
      9          6           0        0.048310    0.777209   -0.482292
     10          1           0        0.102610    1.047609   -1.547392
     11          6           0       -0.417790    2.007609    0.304408
     12          1           0       -0.502290    1.773609    1.371108
     13          1           0        0.328410    2.796809    0.194008
     14          1           0       -1.386090    2.348109   -0.058692
     15          6           0        1.483610    0.407909   -0.037192
     16          8           0        2.228810    1.215909    0.493608
     17          7           0        1.856310   -0.901791   -0.246392
     18          1           0        1.355610   -1.412891   -0.963292
     19          6           0        3.229010   -1.316190    0.019108
     20          1           0        3.531810   -0.922090    0.990308
     21          1           0        3.274911   -2.407990    0.039808
     22          1           0        3.930910   -0.937790   -0.735092
 ---------------------------------------------------------------------

 SCF Done:  E(RHF) =  -492.911452741     A.U. after   14 cycles
 E2 =    -0.1603153918D+01 EUMP2 =    -0.49451460665868D+03

 The electronic state is 1-A.
 Alpha  occ. eigenvalues --  -20.54631 -20.54007 -15.60750 -15.60290 -11.37178
 Alpha  occ. eigenvalues --  -11.36988 -11.29972 -11.27790 -11.25322 -11.21794
 Alpha  occ. eigenvalues --   -1.40092  -1.39156  -1.25573  -1.22871  -1.05447
 Alpha  occ. eigenvalues --   -0.99262  -0.96661  -0.87767  -0.80116  -0.77596
 Alpha  occ. eigenvalues --   -0.73644  -0.67490  -0.66555  -0.65395  -0.63232
 Alpha  occ. eigenvalues --   -0.62385  -0.60330  -0.59277  -0.57276  -0.56103
 Alpha  occ. eigenvalues --   -0.55202  -0.53990  -0.52390  -0.51537  -0.49910
 Alpha  occ. eigenvalues --   -0.44421  -0.42508  -0.40962  -0.40421
 Alpha virt. eigenvalues --    0.02251   0.03815   0.04112   0.04597   0.05482
 Alpha virt. eigenvalues --    0.06003   0.06595   0.06828   0.07063   0.08531
 Alpha virt. eigenvalues --    0.08837   0.08954   0.10699   0.12024   0.13279

 Mulliken atomic charges:
              1
     1  H   -0.052131
     2  C    0.304278
     3  H   -0.043951
     4  H    0.056057
     5  C    0.586135
     6  O   -0.826714
     7  N   -0.376594
     8  H    0.076052
     9  C   -0.280048
    10  H   -0.096444
    11  C    0.673732
    12  H   -0.034355
    13  H   -0.063715
    14  H    0.063908
    15  C    0.938549
    16  O   -0.787468
    17  N   -0.501946
    18  H   -0.101807
    19  C    0.798173
    20  H   -0.098281
    21  H   -0.178823
    22  H   -0.054607
 Sum of Mulliken atomic charges =   0.00000

 Dipole moment (field-independent basis, Debye):
    X=              1.3288    Y=             -5.0369    Z=             -0.4323  Tot=              5.2271
 Quadrupole moment (field-independent basis, Debye-Ang):
   XX=            -71.7189   YY=            -59.3636   ZZ=            -60.3318
   XY=             -1.0712   XZ=             -7.0650   YZ=             -1.3572

 Normal termination of Gaussian 09 at Sun Feb 12 22:38:57 2017.
