 Gaussian 09, Revision A.02,
 Gaussian 09:  EM64L-G09RevA.02 11-Jun-2009

 -------------------
 #SP MP2/aug-cc-pVDZ
 -------------------

 -------------------------------
 Single Point calculation at MP2
 -------------------------------
 Symbolic Z-matrix:
 Charge =  0 Multiplicity = 1

                         Standard orientation:
 ---------------------------------------------------------------------
 Center     Atomic      Atomic             Coordinates (Angstroms)
 Number     Number       Type             X           Y           Z
 ---------------------------------------------------------------------
      1          1           0       -3.671425   -1.689411    0.606600
      2          6           0       -2.972824   -1.529813   -0.217500
      3          1           0       -3.563224   -1.402311   -1.132500
      4          1           0       -2.341327   -2.416915   -0.333600
      5          6           0       -2.189720   -0.247216    0.054700
      6          8           0       -2.716817    0.716086    0.584700
      7          7           0       -0.865520   -0.310720   -0.343800
      8          1           0       -0.664323   -1.093021   -0.955800
      9          6           0        0.093483    0.796177   -0.503100
     10          1           0        0.096485    1.118577   -1.554400
     11          6           0       -0.191912    2.026078    0.370800
     12          1           0       -0.244313    1.754478    1.429100
     13          1           0        0.636090    2.723975    0.225300
     14          1           0       -1.133511    2.499781    0.099000
     15          6           0        1.543682    0.331172   -0.228500
     16          8           0        2.475684    1.105769   -0.399700
     17          7           0        1.712877   -0.983929    0.107400
     18          1           0        0.902576   -1.451826    0.492500
     19          6           0        3.028576   -1.492533    0.466100
     20          1           0        3.769577   -0.988636   -0.155900
     21          1           0        3.276376   -1.300334    1.518300
     22          1           0        3.066872   -2.569833    0.281200
 ---------------------------------------------------------------------

 SCF Done:  E(RHF) =  -492.914517106     A.U. after   14 cycles
 E2 =    -0.1602071192D+01 EUMP2 =    -0.49451658829784D+03

 The electronic state is 1-A.
 Alpha  occ. eigenvalues --  -20.54044 -20.53494 -15.60950 -15.60151 -11.37575
 Alpha  occ. eigenvalues --  -11.36345 -11.29986 -11.27300 -11.25676 -11.22314
 Alpha  occ. eigenvalues --   -1.39553  -1.38902  -1.25619  -1.22895  -1.05798
 Alpha  occ. eigenvalues --   -0.99557  -0.96234  -0.88140  -0.80200  -0.76972
 Alpha  occ. eigenvalues --   -0.73277  -0.69614  -0.67425  -0.63694  -0.62740
 Alpha  occ. eigenvalues --   -0.62249  -0.60525  -0.59690  -0.57169  -0.55536
 Alpha  occ. eigenvalues --   -0.55167  -0.53004  -0.52747  -0.52008  -0.50239
 Alpha  occ. eigenvalues --   -0.44336  -0.42923  -0.40144  -0.39816
 Alpha virt. eigenvalues --    0.02227   0.03679   0.04140   0.04649   0.05561
 Alpha virt. eigenvalues --    0.06051   0.06524   0.06548   0.07127   0.08206
 Alpha virt. eigenvalues --    0.08532   0.08903   0.10796   0.12190   0.12575

 Mulliken atomic charges:
              1
     1  H    0.002243
     2  C    0.338961
     3  H    0.057310
     4  H   -0.121401
     5  C    0.663131
     6  O   -0.797467
     7  N   -0.401629
     8  H   -0.057677
     9  C   -0.190517
    10  H   -0.048023
    11  C    0.731974
    12  H   -0.031166
    13  H   -0.073244
    14  H    0.021846
    15  C    0.919532
    16  O   -0.852064
    17  N   -0.528992
    18  H   -0.051953
    19  C    0.763220
    20  H   -0.113719
    21  H   -0.064002
    22  H   -0.166363
 Sum of Mulliken atomic charges =   0.00000

 Dipole moment (field-independent basis, Debye):
    X=             -0.6226    Y=             -5.1786    Z=             -0.9261  Tot=              5.2975
 Quadrupole moment (field-independent basis, Debye-Ang):
   XX=            -72.6758   YY=            -59.1536   ZZ=            -60.1490
   XY=             -0.4320   XZ=              7.5413   YZ=             -0.7453

 Normal termination of Gaussian 09 at Sun Feb 12 20:40:22 2017.
