 Gaussian 09, Revision A.02,
 Gaussian 09:  EM64L-G09RevA.02 11-Jun-2009

 -------------------
 #SP MP2/aug-cc-pVDZ
 -------------------

 -------------------------------
 Single Point calculation at MP2
 -------------------------------
 Symbolic Z-matrix:
 Charge =  0 Multiplicity = 1

                         Standard orientation:
 ---------------------------------------------------------------------
 Center     Atomic      Atomic             Coordinates (Angstroms)
 Number     Number       Type             X           Y           Z
 ---------------------------------------------------------------------
      1          1           0       -3.773805   -1.762804    0.274704
      2          6           0       -2.741305   -1.625505    0.601304
      3          1           0       -2.165905   -2.530905    0.380004
      4          1           0       -2.746405   -1.480005    1.688504
      5          6           0       -2.178204   -0.379205   -0.074696
      6          8           0       -2.893204    0.553495   -0.406896
      7          7           0       -0.816104   -0.428206   -0.300796
      8          1           0       -0.350705   -1.185906    0.184604
      9          6           0        0.054197    0.755394   -0.504196
     10          1           0        0.140297    0.933694   -1.586996
     11          6           0       -0.435203    2.041594    0.164904
     12          1           0       -0.532603    1.900694    1.245804
     13          1           0        0.304498    2.828293   -0.001296
     14          1           0       -1.399902    2.339594   -0.242296
     15          6           0        1.465896    0.403193    0.023704
     16          8           0        2.111697    1.150492    0.740804
     17          7           0        1.924696   -0.835908   -0.357896
     18          1           0        1.456895   -1.288507   -1.133096
     19          6           0        3.280895   -1.265108   -0.045596
     20          1           0        3.551096   -0.859309    0.930004
     21          1           0        3.320895   -2.357408   -0.010696
     22          1           0        4.009896   -0.902709   -0.782196
 ---------------------------------------------------------------------

 SCF Done:  E(RHF) =  -492.912683923     A.U. after   14 cycles
 E2 =    -0.1602764370D+01 EUMP2 =    -0.49451544829322D+03

 The electronic state is 1-A.
 Alpha  occ. eigenvalues --  -20.54612 -20.53716 -15.60688 -15.60318 -11.37132
 Alpha  occ. eigenvalues --  -11.36882 -11.29980 -11.27813 -11.25196 -11.21657
 Alpha  occ. eigenvalues --   -1.40017  -1.38928  -1.25479  -1.22943  -1.05469
 Alpha  occ. eigenvalues --   -0.99164  -0.96760  -0.87717  -0.80014  -0.77824
 Alpha  occ. eigenvalues --   -0.73491  -0.67333  -0.67093  -0.65394  -0.62957
 Alpha  occ. eigenvalues --   -0.62323  -0.60563  -0.59211  -0.57106  -0.55964
 Alpha  occ. eigenvalues --   -0.54974  -0.53719  -0.52617  -0.51504  -0.49976
 Alpha  occ. eigenvalues --   -0.44467  -0.42342  -0.40522  -0.40303
 Alpha virt. eigenvalues --    0.02245   0.03737   0.04090   0.04611   0.05499
 Alpha virt. eigenvalues --    0.05970   0.06610   0.06794   0.07138   0.08400
 Alpha virt. eigenvalues --    0.08836   0.08980   0.10752   0.12057   0.13231

 Mulliken atomic charges:
              1
     1  H   -0.033768
     2  C    0.310324
     3  H   -0.073752
     4  H    0.057455
     5  C    0.566631
     6  O   -0.829913
     7  N   -0.362707
     8  H    0.041990
     9  C   -0.179234
    10  H   -0.131933
    11  C    0.690018
    12  H   -0.023727
    13  H   -0.074248
    14  H    0.061939
    15  C    0.914193
    16  O   -0.774560
    17  N   -0.475097
    18  H   -0.104475
    19  C    0.774136
    20  H   -0.112956
    21  H   -0.164096
    22  H   -0.076218
 Sum of Mulliken atomic charges =   0.00000

 Dipole moment (field-independent basis, Debye):
    X=              1.6735    Y=             -4.8753    Z=             -0.8803  Tot=              5.2292
 Quadrupole moment (field-independent basis, Debye-Ang):
   XX=            -70.6665   YY=            -59.2323   ZZ=            -60.7215
   XY=             -0.5588   XZ=             -8.4670   YZ=             -1.9355

 Normal termination of Gaussian 09 at Sun Feb 12 22:21:52 2017.
