 Gaussian 09, Revision A.02,
 Gaussian 09:  EM64L-G09RevA.02 11-Jun-2009

 -------------------
 #SP MP2/aug-cc-pVDZ
 -------------------

 -------------------------------
 Single Point calculation at MP2
 -------------------------------
 Symbolic Z-matrix:
 Charge =  0 Multiplicity = 1

                         Standard orientation:
 ---------------------------------------------------------------------
 Center     Atomic      Atomic             Coordinates (Angstroms)
 Number     Number       Type             X           Y           Z
 ---------------------------------------------------------------------
      1          1           0        3.541988   -1.789213   -0.565503
      2          6           0        2.991689   -1.474111    0.324397
      3          1           0        3.729390   -1.213614    1.091697
      4          1           0        2.388585   -2.311308    0.690397
      5          6           0        2.181194   -0.228308   -0.025203
      6          8           0        2.658498    0.666990   -0.707103
      7          7           0        0.908494   -0.222902    0.496297
      8          1           0        0.694491   -0.973702    1.139497
      9          6           0       -0.089102    0.858902    0.479497
     10          1           0       -0.043799    1.407201    1.428397
     11          6           0        0.058902    1.860801   -0.674203
     12          1           0        0.048900    1.365801   -1.649503
     13          1           0       -0.786095    2.556504   -0.629103
     14          1           0        0.991805    2.416797   -0.595803
     15          6           0       -1.499004    0.226407    0.466097
     16          8           0       -2.321603    0.482311    1.336797
     17          7           0       -1.753207   -0.577292   -0.606303
     18          1           0       -0.988608   -0.779095   -1.235303
     19          6           0       -3.024810   -1.248786   -0.804703
     20          1           0       -3.704209   -0.895284   -0.027903
     21          1           0       -3.444509   -1.008385   -1.788103
     22          1           0       -2.923315   -2.338187   -0.721603
 ---------------------------------------------------------------------

 SCF Done:  E(RHF) =  -492.915325657     A.U. after   14 cycles
 E2 =    -0.1601585514D+01 EUMP2 =    -0.49451691117162D+03

 The electronic state is 1-A.
 Alpha  occ. eigenvalues --  -20.53770 -20.53619 -15.60879 -15.59937 -11.37334
 Alpha  occ. eigenvalues --  -11.36375 -11.29849 -11.27294 -11.25419 -11.23358
 Alpha  occ. eigenvalues --   -1.39289  -1.38802  -1.25284  -1.23100  -1.06086
 Alpha  occ. eigenvalues --   -0.99633  -0.95977  -0.89080  -0.79815  -0.77978
 Alpha  occ. eigenvalues --   -0.73010  -0.69147  -0.67263  -0.64076  -0.62776
 Alpha  occ. eigenvalues --   -0.62112  -0.59771  -0.59343  -0.57137  -0.56256
 Alpha  occ. eigenvalues --   -0.55200  -0.53999  -0.53636  -0.51991  -0.51024
 Alpha  occ. eigenvalues --   -0.44149  -0.42101  -0.40344  -0.39183
 Alpha virt. eigenvalues --    0.02538   0.03711   0.04386   0.04553   0.05524
 Alpha virt. eigenvalues --    0.06044   0.06097   0.06795   0.07204   0.07925
 Alpha virt. eigenvalues --    0.08534   0.09013   0.11185   0.11825   0.12700

 Mulliken atomic charges:
              1
     1  H    0.015668
     2  C    0.361195
     3  H    0.055634
     4  H   -0.145479
     5  C    0.675398
     6  O   -0.830596
     7  N   -0.375921
     8  H   -0.078899
     9  C    0.254100
    10  H   -0.252628
    11  C    0.768923
    12  H   -0.066440
    13  H   -0.074770
    14  H    0.006791
    15  C    0.758839
    16  O   -0.822489
    17  N   -0.591011
    18  H   -0.044812
    19  C    0.724275
    20  H   -0.149338
    21  H   -0.097950
    22  H   -0.090487
 Sum of Mulliken atomic charges =   0.00000

 Dipole moment (field-independent basis, Debye):
    X=              0.2930    Y=             -3.6549    Z=             -0.8421  Tot=              3.7621
 Quadrupole moment (field-independent basis, Debye-Ang):
   XX=            -70.9280   YY=            -57.6438   ZZ=            -63.4041
   XY=             -2.8942   XZ=             13.3501   YZ=              0.0238

 Normal termination of Gaussian 09 at Sun Feb 12 22:36:22 2017.
