 Gaussian 09, Revision A.02,
 Gaussian 09:  EM64L-G09RevA.02 11-Jun-2009

 -------------------
 #SP MP2/aug-cc-pVDZ
 -------------------

 -------------------------------
 Single Point calculation at MP2
 -------------------------------
 Symbolic Z-matrix:
 Charge =  0 Multiplicity = 1

                         Standard orientation:
 ---------------------------------------------------------------------
 Center     Atomic      Atomic             Coordinates (Angstroms)
 Number     Number       Type             X           Y           Z
 ---------------------------------------------------------------------
      1          1           0       -4.036513   -1.287711   -0.078691
      2          6           0       -3.112213   -1.299110    0.506809
      3          1           0       -2.607812   -2.259210    0.361109
      4          1           0       -3.393713   -1.203410    1.560409
      5          6           0       -2.274114   -0.084709    0.116209
      6          8           0       -2.735615    1.048990    0.195109
      7          7           0       -1.017114   -0.392808   -0.319691
      8          1           0       -0.750613   -1.368008   -0.384191
      9          6           0        0.080186    0.501692   -0.696291
     10          1           0        0.094085    0.609492   -1.792791
     11          6           0       -0.004616    1.902292   -0.080891
     12          1           0        0.040684    1.865492    1.013009
     13          1           0        0.818484    2.521193   -0.458891
     14          1           0       -0.947516    2.375792   -0.347591
     15          6           0        1.361086   -0.299607   -0.346791
     16          8           0        1.422087   -1.491507   -0.645291
     17          7           0        2.355286    0.355994    0.302609
     18          1           0        2.224185    1.327294    0.539509
     19          6           0        3.605986   -0.287105    0.671409
     20          1           0        3.540387   -1.331805    0.366209
     21          1           0        4.456686    0.184396    0.165809
     22          1           0        3.764786   -0.236405    1.754409
 ---------------------------------------------------------------------

 SCF Done:  E(RHF) =  -492.917412043     A.U. after   14 cycles
 E2 =    -0.1602097627D+01 EUMP2 =    -0.49451950966942D+03

 The electronic state is 1-A.
 Alpha  occ. eigenvalues --  -20.53971 -20.52261 -15.60909 -15.59323 -11.37154
 Alpha  occ. eigenvalues --  -11.36113 -11.30232 -11.27706 -11.24156 -11.23707
 Alpha  occ. eigenvalues --   -1.39669  -1.37620  -1.24617  -1.23536  -1.05894
 Alpha  occ. eigenvalues --   -0.98875  -0.96086  -0.89786  -0.80745  -0.76878
 Alpha  occ. eigenvalues --   -0.73065  -0.68465  -0.66363  -0.65577  -0.62660
 Alpha  occ. eigenvalues --   -0.61687  -0.59235  -0.58753  -0.56589  -0.56034
 Alpha  occ. eigenvalues --   -0.55651  -0.54567  -0.53188  -0.52476  -0.50127
 Alpha  occ. eigenvalues --   -0.43923  -0.41399  -0.40395  -0.38796
 Alpha virt. eigenvalues --    0.02792   0.03963   0.04202   0.04611   0.05635
 Alpha virt. eigenvalues --    0.06300   0.06411   0.06557   0.07272   0.07956
 Alpha virt. eigenvalues --    0.09598   0.09767   0.10806   0.11564   0.13125

 Mulliken atomic charges:
              1
     1  H    0.040197
     2  C    0.399584
     3  H   -0.186876
     4  H    0.032982
     5  C    0.571370
     6  O   -0.855692
     7  N   -0.402694
     8  H   -0.044064
     9  C   -0.012064
    10  H   -0.015132
    11  C    0.820245
    12  H    0.035024
    13  H   -0.045602
    14  H   -0.100166
    15  C    0.972350
    16  O   -0.920683
    17  N   -0.560961
    18  H   -0.120236
    19  C    0.739511
    20  H   -0.150396
    21  H   -0.097975
    22  H   -0.098720
 Sum of Mulliken atomic charges =   0.00000

 Dipole moment (field-independent basis, Debye):
    X=              2.9521    Y=              0.4397    Z=              0.9647  Tot=              3.1367
 Quadrupole moment (field-independent basis, Debye-Ang):
   XX=            -60.6059   YY=            -64.1296   ZZ=            -60.5755
   XY=             14.8030   XZ=              3.8234   YZ=             -2.9390

 Normal termination of Gaussian 09 at Sun Feb 12 22:11:22 2017.
