 Gaussian 09, Revision A.02,
 Gaussian 09:  EM64L-G09RevA.02 11-Jun-2009

 -------------------
 #SP MP2/aug-cc-pVDZ
 -------------------

 -------------------------------
 Single Point calculation at MP2
 -------------------------------
 Symbolic Z-matrix:
 Charge =  0 Multiplicity = 1

                         Standard orientation:
 ---------------------------------------------------------------------
 Center     Atomic      Atomic             Coordinates (Angstroms)
 Number     Number       Type             X           Y           Z
 ---------------------------------------------------------------------
      1          1           0        3.914703   -1.404716    0.136512
      2          6           0        3.022903   -1.395910   -0.498488
      3          1           0        2.480596   -2.336606   -0.361988
      4          1           0        3.363403   -1.328412   -1.535888
      5          6           0        2.206412   -0.147304   -0.175688
      6          8           0        2.665020    0.972693   -0.364688
      7          7           0        0.958610   -0.408795    0.323412
      8          1           0        0.733103   -1.372194    0.535812
      9          6           0       -0.069683    0.533912    0.788012
     10          1           0       -0.025483    0.597412    1.884012
     11          6           0        0.054827    1.947311    0.212112
     12          1           0        0.108727    1.945311   -0.881688
     13          1           0       -0.811169    2.538817    0.531512
     14          1           0        0.965330    2.430305    0.562812
     15          6           0       -1.405789   -0.188379    0.490312
     16          8           0       -1.713895   -1.172976    1.157812
     17          7           0       -2.128685    0.255127   -0.570888
     18          1           0       -1.798080    1.061824   -1.078388
     19          6           0       -3.362090   -0.382065   -1.000088
     20          1           0       -3.575596   -1.188263   -0.297388
     21          1           0       -4.194085    0.331141   -0.997188
     22          1           0       -3.259393   -0.802065   -2.007788
 ---------------------------------------------------------------------

 SCF Done:  E(RHF) =  -492.915809388     A.U. after   14 cycles
 E2 =    -0.1601848333D+01 EUMP2 =    -0.49451765772044D+03

 The electronic state is 1-A.
 Alpha  occ. eigenvalues --  -20.53754 -20.52773 -15.60526 -15.60080 -11.36732
 Alpha  occ. eigenvalues --  -11.36605 -11.30047 -11.27484 -11.24639 -11.23752
 Alpha  occ. eigenvalues --   -1.39311  -1.38139  -1.24527  -1.23671  -1.05974
 Alpha  occ. eigenvalues --   -0.99165  -0.95985  -0.89768  -0.80217  -0.77420
 Alpha  occ. eigenvalues --   -0.72819  -0.68988  -0.66549  -0.65189  -0.62467
 Alpha  occ. eigenvalues --   -0.61814  -0.59218  -0.58986  -0.56665  -0.55920
 Alpha  occ. eigenvalues --   -0.55814  -0.54291  -0.53540  -0.52287  -0.50663
 Alpha  occ. eigenvalues --   -0.43839  -0.41920  -0.40014  -0.39065
 Alpha virt. eigenvalues --    0.02903   0.03764   0.04245   0.04795   0.05556
 Alpha virt. eigenvalues --    0.06048   0.06478   0.06782   0.07095   0.07780
 Alpha virt. eigenvalues --    0.09260   0.09998   0.10791   0.11706   0.13098

 Mulliken atomic charges:
              1
     1  H    0.048333
     2  C    0.401340
     3  H   -0.170672
     4  H    0.032401
     5  C    0.585442
     6  O   -0.843104
     7  N   -0.503514
     8  H   -0.068214
     9  C    0.340749
    10  H   -0.095780
    11  C    0.715201
    12  H    0.075592
    13  H   -0.106776
    14  H   -0.065601
    15  C    0.886783
    16  O   -0.925383
    17  N   -0.595720
    18  H   -0.105428
    19  C    0.734927
    20  H   -0.146554
    21  H   -0.101559
    22  H   -0.092464
 Sum of Mulliken atomic charges =   0.00000

 Dipole moment (field-independent basis, Debye):
    X=             -1.7003    Y=             -0.1806    Z=             -1.7599  Tot=              2.4538
 Quadrupole moment (field-independent basis, Debye-Ang):
   XX=            -63.7278   YY=            -61.9174   ZZ=            -61.6618
   XY=            -13.6263   XZ=              7.9815   YZ=              4.0113

 Normal termination of Gaussian 09 at Sun Feb 12 22:10:57 2017.
