 Gaussian 09, Revision A.02,
 Gaussian 09:  EM64L-G09RevA.02 11-Jun-2009

 -------------------
 #SP MP2/aug-cc-pVDZ
 -------------------

 -------------------------------
 Single Point calculation at MP2
 -------------------------------
 Symbolic Z-matrix:
 Charge =  0 Multiplicity = 1

                         Standard orientation:
 ---------------------------------------------------------------------
 Center     Atomic      Atomic             Coordinates (Angstroms)
 Number     Number       Type             X           Y           Z
 ---------------------------------------------------------------------
      1          1           0        4.249210   -0.765363   -0.404397
      2          6           0        3.220513   -1.056070   -0.625597
      3          1           0        3.060820   -2.068771   -0.236497
      4          1           0        3.070113   -1.077371   -1.709897
      5          6           0        2.274106   -0.097776    0.079203
      6          8           0        2.565402    0.469326    1.123003
      7          7           0        1.064404    0.094815   -0.554297
      8          1           0        0.812109   -0.600687   -1.245197
      9          6           0       -0.048300    0.699407    0.174503
     10          1           0        0.295200    0.790310    1.212303
     11          6           0       -0.356910    2.107305   -0.353697
     12          1           0       -0.708309    2.087303   -1.392097
     13          1           0       -1.103013    2.619600    0.267203
     14          1           0        0.557586    2.705412   -0.319897
     15          6           0       -1.214193   -0.313301    0.189803
     16          8           0       -0.998684   -1.501099    0.406803
     17          7           0       -2.455396    0.177491   -0.090497
     18          1           0       -2.566103    1.168090   -0.242797
     19          6           0       -3.646990   -0.653218   -0.052097
     20          1           0       -3.320783   -1.685316    0.080803
     21          1           0       -4.303692   -0.375522    0.781503
     22          1           0       -4.209291   -0.567722   -0.988597
 ---------------------------------------------------------------------

 SCF Done:  E(RHF) =  -492.920325255     A.U. after   14 cycles
 E2 =    -0.1601515731D+01 EUMP2 =    -0.49452184098527D+03

 The electronic state is 1-A.
 Alpha  occ. eigenvalues --  -20.53474 -20.53021 -15.60484 -15.59167 -11.36688
 Alpha  occ. eigenvalues --  -11.35969 -11.29185 -11.27419 -11.24458 -11.24288
 Alpha  occ. eigenvalues --   -1.39219  -1.38152  -1.24141  -1.23397  -1.05611
 Alpha  occ. eigenvalues --   -0.99168  -0.95949  -0.88800  -0.79751  -0.78741
 Alpha  occ. eigenvalues --   -0.73174  -0.67267  -0.65455  -0.65191  -0.62526
 Alpha  occ. eigenvalues --   -0.61742  -0.59261  -0.58955  -0.57063  -0.56326
 Alpha  occ. eigenvalues --   -0.55298  -0.54578  -0.53577  -0.52293  -0.49347
 Alpha  occ. eigenvalues --   -0.43004  -0.42241  -0.40204  -0.39639
 Alpha virt. eigenvalues --    0.02671   0.03759   0.04265   0.04542   0.05813
 Alpha virt. eigenvalues --    0.05891   0.06179   0.06995   0.07353   0.07928
 Alpha virt. eigenvalues --    0.08770   0.09197   0.11336   0.12039   0.12622

 Mulliken atomic charges:
              1
     1  H   -0.027203
     2  C    0.349561
     3  H    0.078159
     4  H   -0.064611
     5  C    0.578050
     6  O   -0.826387
     7  N   -0.501782
     8  H   -0.031402
     9  C   -0.132575
    10  H   -0.024579
    11  C    0.868373
    12  H    0.008653
    13  H    0.028141
    14  H   -0.181521
    15  C    1.039025
    16  O   -0.887504
    17  N   -0.518794
    18  H   -0.148410
    19  C    0.748518
    20  H   -0.149554
    21  H   -0.084760
    22  H   -0.119396
 Sum of Mulliken atomic charges =   0.00000

 Dipole moment (field-independent basis, Debye):
    X=             -3.1771    Y=              1.5484    Z=             -3.4988  Tot=              4.9732
 Quadrupole moment (field-independent basis, Debye-Ang):
   XX=            -55.0392   YY=            -62.9002   ZZ=            -63.5558
   XY=             -8.9730   XZ=             -6.7192   YZ=              1.5921

 Normal termination of Gaussian 09 at Mon Feb 13 08:08:28 2017.
