 Gaussian 09, Revision A.02,
 Gaussian 09:  EM64L-G09RevA.02 11-Jun-2009

 -------------------
 #SP MP2/aug-cc-pVDZ
 -------------------

 -------------------------------
 Single Point calculation at MP2
 -------------------------------
 Symbolic Z-matrix:
 Charge =  0 Multiplicity = 1

                         Standard orientation:
 ---------------------------------------------------------------------
 Center     Atomic      Atomic             Coordinates (Angstroms)
 Number     Number       Type             X           Y           Z
 ---------------------------------------------------------------------
      1          1           0       -3.301917   -1.850876    0.936600
      2          6           0       -3.143308   -0.768877    0.923400
      3          1           0       -2.939806   -0.423279    1.941800
      4          1           0       -4.072405   -0.307170    0.573100
      5          6           0       -2.034406   -0.448086   -0.066700
      6          8           0       -2.051009   -0.869786   -1.218800
      7          7           0       -1.019500    0.331707    0.418200
      8          1           0       -1.053697    0.663207    1.372700
      9          6           0        0.054604    0.841598   -0.432600
     10          1           0       -0.150299    0.429800   -1.423900
     11          6           0        0.065516    2.369398   -0.481800
     12          1           0        0.297619    2.782396    0.504400
     13          1           0        0.835518    2.723192   -1.175600
     14          1           0       -0.906382    2.744506   -0.816700
     15          6           0        1.390100    0.297288    0.112500
     16          8           0        2.025404    0.887483    0.979700
     17          7           0        1.764191   -0.898215   -0.425500
     18          1           0        1.123787   -1.347610   -1.066400
     19          6           0        2.917985   -1.644024    0.045400
     20          1           0        3.489490   -0.983528    0.698900
     21          1           0        2.620078   -2.534621    0.613200
     22          1           0        3.547082   -1.955828   -0.795400
 ---------------------------------------------------------------------

 SCF Done:  E(RHF) =  -492.926741974     A.U. after   14 cycles
 E2 =    -0.1600528850D+01 EUMP2 =    -0.49452727082322D+03

 The electronic state is 1-A.
 Alpha  occ. eigenvalues --  -20.53582 -20.53384 -15.60533 -15.59699 -11.37131
 Alpha  occ. eigenvalues --  -11.36035 -11.29136 -11.26866 -11.25344 -11.23260
 Alpha  occ. eigenvalues --   -1.39197  -1.38465  -1.24776  -1.23122  -1.05724
 Alpha  occ. eigenvalues --   -0.99591  -0.96255  -0.87520  -0.80534  -0.78965
 Alpha  occ. eigenvalues --   -0.73025  -0.67958  -0.66058  -0.64861  -0.62219
 Alpha  occ. eigenvalues --   -0.61841  -0.60322  -0.58974  -0.57733  -0.56232
 Alpha  occ. eigenvalues --   -0.54724  -0.53493  -0.52395  -0.51674  -0.51248
 Alpha  occ. eigenvalues --   -0.43907  -0.43110  -0.39515  -0.39237
 Alpha virt. eigenvalues --    0.02939   0.03769   0.04244   0.04943   0.05713
 Alpha virt. eigenvalues --    0.05750   0.06213   0.06993   0.07453   0.07885
 Alpha virt. eigenvalues --    0.09012   0.09341   0.11276   0.11919   0.12221

 Mulliken atomic charges:
              1
     1  H    0.041008
     2  C    0.376999
     3  H   -0.141899
     4  H    0.053669
     5  C    0.634638
     6  O   -0.873316
     7  N   -0.277012
     8  H   -0.111647
     9  C   -0.404264
    10  H   -0.236835
    11  C    0.749423
    12  H   -0.006930
    13  H   -0.009882
    14  H   -0.007791
    15  C    1.273030
    16  O   -0.840829
    17  N   -0.501567
    18  H   -0.093964
    19  C    0.723115
    20  H   -0.143285
    21  H   -0.090753
    22  H   -0.111906
 Sum of Mulliken atomic charges =   0.00000

 Dipole moment (field-independent basis, Debye):
    X=             -1.0479    Y=             -0.7886    Z=              0.9976  Tot=              1.6478
 Quadrupole moment (field-independent basis, Debye-Ang):
   XX=            -62.1199   YY=            -59.5780   ZZ=            -63.9712
   XY=             -8.6738   XZ=            -12.9655   YZ=             -4.1252

 Normal termination of Gaussian 09 at Mon Feb 13 09:28:25 2017.
