 Gaussian 09, Revision A.02,
 Gaussian 09:  EM64L-G09RevA.02 11-Jun-2009

 -------------------
 #SP MP2/aug-cc-pVDZ
 -------------------

 -------------------------------
 Single Point calculation at MP2
 -------------------------------
 Symbolic Z-matrix:
 Charge =  0 Multiplicity = 1

                         Standard orientation:
 ---------------------------------------------------------------------
 Center     Atomic      Atomic             Coordinates (Angstroms)
 Number     Number       Type             X           Y           Z
 ---------------------------------------------------------------------
      1          1           0       -3.231498   -1.921206    0.940204
      2          6           0       -3.142401   -0.830906    0.919204
      3          1           0       -2.945102   -0.468505    1.932904
      4          1           0       -4.104002   -0.432008    0.581104
      5          6           0       -2.071802   -0.446303   -0.090696
      6          8           0       -2.123201   -0.811803   -1.260396
      7          7           0       -1.059603    0.334399    0.397304
      8          1           0       -1.026304    0.568099    1.380404
      9          6           0        0.045496    0.803501   -0.432896
     10          1           0       -0.140203    0.377401   -1.421896
     11          6           0        0.090192    2.331601   -0.512696
     12          1           0        0.291891    2.756802    0.475104
     13          1           0        0.889592    2.657803   -1.187596
     14          1           0       -0.862609    2.717799   -0.887296
     15          6           0        1.347297    0.254504    0.177304
     16          8           0        1.799796    0.717105    1.220504
     17          7           0        1.910399   -0.783794   -0.500196
     18          1           0        1.424100   -1.145196   -1.308796
     19          6           0        3.090201   -1.485592   -0.024396
     20          1           0        3.466800   -0.939891    0.841804
     21          1           0        2.850403   -2.512592    0.277204
     22          1           0        3.864701   -1.515990   -0.798696
 ---------------------------------------------------------------------

 SCF Done:  E(RHF) =  -492.927063218     A.U. after   14 cycles
 E2 =    -0.1600265186D+01 EUMP2 =    -0.49452732840343D+03

 The electronic state is 1-A.
 Alpha  occ. eigenvalues --  -20.53426 -20.53219 -15.60175 -15.60166 -11.36810
 Alpha  occ. eigenvalues --  -11.36246 -11.29129 -11.27109 -11.25034 -11.23339
 Alpha  occ. eigenvalues --   -1.39084  -1.38389  -1.24495  -1.23469  -1.05661
 Alpha  occ. eigenvalues --   -0.99404  -0.96386  -0.87634  -0.80341  -0.79245
 Alpha  occ. eigenvalues --   -0.73170  -0.67705  -0.65933  -0.64625  -0.62336
 Alpha  occ. eigenvalues --   -0.62000  -0.60285  -0.58729  -0.57638  -0.56545
 Alpha  occ. eigenvalues --   -0.54992  -0.53599  -0.52296  -0.51765  -0.50795
 Alpha  occ. eigenvalues --   -0.43799  -0.42780  -0.39717  -0.39163
 Alpha virt. eigenvalues --    0.03075   0.03676   0.04277   0.05005   0.05619
 Alpha virt. eigenvalues --    0.05818   0.06176   0.07166   0.07388   0.07736
 Alpha virt. eigenvalues --    0.08849   0.09418   0.11492   0.12113   0.12138

 Mulliken atomic charges:
              1
     1  H    0.045596
     2  C    0.397521
     3  H   -0.154288
     4  H    0.047626
     5  C    0.619096
     6  O   -0.864855
     7  N   -0.192921
     8  H   -0.110194
     9  C   -0.433420
    10  H   -0.264239
    11  C    0.806548
    12  H   -0.011999
    13  H   -0.021390
    14  H   -0.030342
    15  C    1.233867
    16  O   -0.853365
    17  N   -0.489396
    18  H   -0.097160
    19  C    0.718716
    20  H   -0.144650
    21  H   -0.092812
    22  H   -0.107937
 Sum of Mulliken atomic charges =   0.00000

 Dipole moment (field-independent basis, Debye):
    X=             -0.0424    Y=             -0.6860    Z=              0.4348  Tot=              0.8133
 Quadrupole moment (field-independent basis, Debye-Ang):
   XX=            -60.1623   YY=            -59.5048   ZZ=            -64.9419
   XY=             -7.4202   XZ=            -14.2198   YZ=             -4.0088

 Normal termination of Gaussian 09 at Mon Feb 13 07:05:57 2017.
