 Gaussian 09, Revision A.02,
 Gaussian 09:  EM64L-G09RevA.02 11-Jun-2009

 -------------------
 #SP MP2/aug-cc-pVDZ
 -------------------

 -------------------------------
 Single Point calculation at MP2
 -------------------------------
 Symbolic Z-matrix:
 Charge =  0 Multiplicity = 1

                         Standard orientation:
 ---------------------------------------------------------------------
 Center     Atomic      Atomic             Coordinates (Angstroms)
 Number     Number       Type             X           Y           Z
 ---------------------------------------------------------------------
      1          1           0        4.259999   -0.604100   -0.199608
      2          6           0        3.280199   -1.087200   -0.251908
      3          1           0        3.318399   -1.974100    0.389792
      4          1           0        3.088699   -1.402300   -1.281908
      5          6           0        2.232099   -0.130200    0.294592
      6          8           0        2.368399    0.435200    1.373292
      7          7           0        1.145699    0.073800   -0.521808
      8          1           0        0.949699   -0.620900   -1.235408
      9          6           0       -0.047901    0.731000   -0.018708
     10          1           0        0.136899    0.948900    1.038992
     11          6           0       -0.328101    2.046600   -0.769208
     12          1           0       -0.490201    1.854700   -1.835408
     13          1           0       -1.215801    2.553300   -0.374508
     14          1           0        0.530299    2.716300   -0.664308
     15          6           0       -1.228501   -0.248600   -0.162908
     16          8           0       -1.166901   -1.217700   -0.915308
     17          7           0       -2.343101    0.082400    0.544592
     18          1           0       -2.283201    0.848800    1.200092
     19          6           0       -3.561101   -0.710600    0.515692
     20          1           0       -3.450101   -1.452100   -0.276108
     21          1           0       -3.725201   -1.229500    1.467892
     22          1           0       -4.429801   -0.078400    0.301792
 ---------------------------------------------------------------------

 SCF Done:  E(RHF) =  -492.927457174     A.U. after   14 cycles
 E2 =    -0.1600014782D+01 EUMP2 =    -0.49452747195597D+03

 The electronic state is 1-A.
 Alpha  occ. eigenvalues --  -20.54210 -20.52774 -15.60544 -15.58760 -11.36874
 Alpha  occ. eigenvalues --  -11.35965 -11.29110 -11.27565 -11.24220 -11.24144
 Alpha  occ. eigenvalues --   -1.39674  -1.37994  -1.24313  -1.23406  -1.05531
 Alpha  occ. eigenvalues --   -0.99065  -0.96260  -0.88054  -0.80326  -0.78349
 Alpha  occ. eigenvalues --   -0.73206  -0.67461  -0.65927  -0.63834  -0.63283
 Alpha  occ. eigenvalues --   -0.61808  -0.60053  -0.58708  -0.57230  -0.56500
 Alpha  occ. eigenvalues --   -0.55502  -0.54070  -0.52934  -0.52104  -0.49507
 Alpha  occ. eigenvalues --   -0.43677  -0.42226  -0.40558  -0.39203
 Alpha virt. eigenvalues --    0.02859   0.03962   0.04309   0.04560   0.05630
 Alpha virt. eigenvalues --    0.06097   0.06299   0.07157   0.07297   0.07782
 Alpha virt. eigenvalues --    0.09136   0.09553   0.10877   0.12086   0.12878

 Mulliken atomic charges:
              1
     1  H    0.028565
     2  C    0.399429
     3  H    0.055112
     4  H   -0.138746
     5  C    0.526770
     6  O   -0.852967
     7  N   -0.412090
     8  H   -0.021021
     9  C   -0.184961
    10  H   -0.078917
    11  C    0.802281
    12  H   -0.035355
    13  H   -0.066440
    14  H   -0.074957
    15  C    1.181817
    16  O   -0.870899
    17  N   -0.499733
    18  H   -0.112843
    19  C    0.697177
    20  H   -0.142137
    21  H   -0.080916
    22  H   -0.119168
 Sum of Mulliken atomic charges =   0.00000

 Dipole moment (field-independent basis, Debye):
    X=             -2.5380    Y=              0.8431    Z=             -0.5399  Tot=              2.7283
 Quadrupole moment (field-independent basis, Debye-Ang):
   XX=            -54.7567   YY=            -61.5496   ZZ=            -65.4980
   XY=             -7.9807   XZ=            -12.2843   YZ=             -2.4896

 Normal termination of Gaussian 09 at Mon Feb 13 07:33:43 2017.
