 Gaussian 09, Revision A.02,
 Gaussian 09:  EM64L-G09RevA.02 11-Jun-2009

 -------------------
 #SP MP2/aug-cc-pVDZ
 -------------------

 -------------------------------
 Single Point calculation at MP2
 -------------------------------
 Symbolic Z-matrix:
 Charge =  0 Multiplicity = 1

                         Standard orientation:
 ---------------------------------------------------------------------
 Center     Atomic      Atomic             Coordinates (Angstroms)
 Number     Number       Type             X           Y           Z
 ---------------------------------------------------------------------
      1          1           0        4.261702   -0.807206   -0.178805
      2          6           0        3.246201   -1.071803   -0.478605
      3          1           0        3.026298   -2.076803   -0.098505
      4          1           0        3.179101   -1.098003   -1.571205
      5          6           0        2.273404   -0.080001    0.138095
      6          8           0        2.519205    0.534498    1.167095
      7          7           0        1.095004    0.085802   -0.561305
      8          1           0        0.855902   -0.675097   -1.186905
      9          6           0       -0.050494    0.698905    0.103095
     10          1           0        0.246806    0.836304    1.151195
     11          6           0       -0.361391    2.080806   -0.492605
     12          1           0       -0.714691    2.007507   -1.527105
     13          1           0       -1.107489    2.627608    0.098195
     14          1           0        0.552911    2.680204   -0.485005
     15          6           0       -1.208897   -0.322992    0.089595
     16          8           0       -0.980600   -1.528992    0.072995
     17          7           0       -2.470196    0.191512    0.057995
     18          1           0       -2.589493    1.192012    0.101795
     19          6           0       -3.655198   -0.647585    0.122595
     20          1           0       -3.336001   -1.678686   -0.032305
     21          1           0       -4.151698   -0.571784    1.098095
     22          1           0       -4.367597   -0.365283   -0.660005
 ---------------------------------------------------------------------

 SCF Done:  E(RHF) =  -492.922198297     A.U. after   14 cycles
 E2 =    -0.1601080975D+01 EUMP2 =    -0.49452327927203D+03

 The electronic state is 1-A.
 Alpha  occ. eigenvalues --  -20.53784 -20.53082 -15.60473 -15.58808 -11.36834
 Alpha  occ. eigenvalues --  -11.35881 -11.29189 -11.27458 -11.24442 -11.24166
 Alpha  occ. eigenvalues --   -1.39448  -1.38166  -1.24170  -1.23313  -1.05541
 Alpha  occ. eigenvalues --   -0.99090  -0.95974  -0.88647  -0.79890  -0.78321
 Alpha  occ. eigenvalues --   -0.73200  -0.67279  -0.65643  -0.64884  -0.62634
 Alpha  occ. eigenvalues --   -0.61746  -0.59493  -0.58899  -0.56948  -0.56377
 Alpha  occ. eigenvalues --   -0.55298  -0.54389  -0.53571  -0.52276  -0.49254
 Alpha  occ. eigenvalues --   -0.43093  -0.42326  -0.40086  -0.40003
 Alpha virt. eigenvalues --    0.02744   0.03885   0.04327   0.04520   0.05799
 Alpha virt. eigenvalues --    0.05995   0.06198   0.06964   0.07358   0.07855
 Alpha virt. eigenvalues --    0.08964   0.09478   0.11296   0.12349   0.12735

 Mulliken atomic charges:
              1
     1  H   -0.041183
     2  C    0.354192
     3  H    0.076478
     4  H   -0.046283
     5  C    0.560536
     6  O   -0.816495
     7  N   -0.519490
     8  H    0.001442
     9  C   -0.036333
    10  H   -0.021909
    11  C    0.794298
    12  H   -0.034257
    13  H    0.015942
    14  H   -0.139646
    15  C    0.985309
    16  O   -0.870157
    17  N   -0.512683
    18  H   -0.127479
    19  C    0.734170
    20  H   -0.148798
    21  H   -0.077955
    22  H   -0.129700
 Sum of Mulliken atomic charges =   0.00000

 Dipole moment (field-independent basis, Debye):
    X=             -3.1748    Y=              1.3936    Z=             -2.5732  Tot=              4.3178
 Quadrupole moment (field-independent basis, Debye-Ang):
   XX=            -54.3355   YY=            -63.0465   ZZ=            -63.8003
   XY=             -9.4051   XZ=             -7.8212   YZ=              0.2627

 Normal termination of Gaussian 09 at Mon Feb 13 08:08:17 2017.
