 Gaussian 09, Revision A.02,
 Gaussian 09:  EM64L-G09RevA.02 11-Jun-2009

 -------------------
 #SP MP2/aug-cc-pVDZ
 -------------------

 -------------------------------
 Single Point calculation at MP2
 -------------------------------
 Symbolic Z-matrix:
 Charge =  0 Multiplicity = 1

                         Standard orientation:
 ---------------------------------------------------------------------
 Center     Atomic      Atomic             Coordinates (Angstroms)
 Number     Number       Type             X           Y           Z
 ---------------------------------------------------------------------
      1          1           0        4.239000   -0.630509   -0.218703
      2          6           0        3.255599   -1.079805   -0.383203
      3          1           0        3.263995   -2.067305    0.090697
      4          1           0        3.091798   -1.203705   -1.457903
      5          6           0        2.203602   -0.216701    0.296597
      6          8           0        2.315403    0.145798    1.462297
      7          7           0        1.142603    0.141102   -0.495703
      8          1           0        0.976801   -0.367797   -1.356903
      9          6           0       -0.046195    0.763107    0.062597
     10          1           0        0.122406    0.834606    1.141697
     11          6           0       -0.280390    2.168407   -0.519303
     12          1           0       -0.422990    2.113608   -1.603803
     13          1           0       -1.169788    2.634211   -0.079503
     14          1           0        0.586213    2.802804   -0.311703
     15          6           0       -1.247298   -0.146089   -0.248603
     16          8           0       -1.282800   -0.813189   -1.279803
     17          7           0       -2.257398   -0.108086    0.661797
     18          1           0       -2.114196    0.416214    1.513297
     19          6           0       -3.489801   -0.862981    0.507397
     20          1           0       -3.460102   -1.338781   -0.473503
     21          1           0       -3.580903   -1.638181    1.277297
     22          1           0       -4.362598   -0.202778    0.563497
 ---------------------------------------------------------------------

 SCF Done:  E(RHF) =  -492.928109122     A.U. after   14 cycles
 E2 =    -0.1599917953D+01 EUMP2 =    -0.49452802707482D+03

 The electronic state is 1-A.
 Alpha  occ. eigenvalues --  -20.53991 -20.52760 -15.60607 -15.59014 -11.36746
 Alpha  occ. eigenvalues --  -11.36093 -11.29106 -11.27525 -11.24346 -11.23989
 Alpha  occ. eigenvalues --   -1.39494  -1.38015  -1.24297  -1.23523  -1.05578
 Alpha  occ. eigenvalues --   -0.99109  -0.96388  -0.87926  -0.80366  -0.78631
 Alpha  occ. eigenvalues --   -0.73219  -0.67472  -0.65917  -0.63837  -0.63187
 Alpha  occ. eigenvalues --   -0.61852  -0.60210  -0.58632  -0.57395  -0.56533
 Alpha  occ. eigenvalues --   -0.55448  -0.53972  -0.52682  -0.52126  -0.49728
 Alpha  occ. eigenvalues --   -0.43720  -0.42266  -0.40413  -0.39055
 Alpha virt. eigenvalues --    0.02928   0.03908   0.04293   0.04686   0.05599
 Alpha virt. eigenvalues --    0.06090   0.06247   0.07180   0.07348   0.07703
 Alpha virt. eigenvalues --    0.09282   0.09428   0.11018   0.12147   0.12697

 Mulliken atomic charges:
              1
     1  H    0.031009
     2  C    0.389993
     3  H    0.052680
     4  H   -0.144841
     5  C    0.560199
     6  O   -0.859730
     7  N   -0.331829
     8  H   -0.043576
     9  C   -0.270205
    10  H   -0.140591
    11  C    0.787255
    12  H   -0.020447
    13  H   -0.049800
    14  H   -0.066325
    15  C    1.260344
    16  O   -0.893147
    17  N   -0.508711
    18  H   -0.112922
    19  C    0.703569
    20  H   -0.143143
    21  H   -0.085659
    22  H   -0.114121
 Sum of Mulliken atomic charges =   0.00000

 Dipole moment (field-independent basis, Debye):
    X=             -2.1179    Y=              0.5533    Z=             -0.0879  Tot=              2.1907
 Quadrupole moment (field-independent basis, Debye-Ang):
   XX=            -55.5025   YY=            -59.7941   ZZ=            -66.8989
   XY=             -4.9065   XZ=            -14.4540   YZ=             -1.7356

 Normal termination of Gaussian 09 at Mon Feb 13 07:27:38 2017.
