 Gaussian 09, Revision A.02,
 Gaussian 09:  EM64L-G09RevA.02 11-Jun-2009

 -------------------
 #SP MP2/aug-cc-pVDZ
 -------------------

 -------------------------------
 Single Point calculation at MP2
 -------------------------------
 Symbolic Z-matrix:
 Charge =  0 Multiplicity = 1

                         Standard orientation:
 ---------------------------------------------------------------------
 Center     Atomic      Atomic             Coordinates (Angstroms)
 Number     Number       Type             X           Y           Z
 ---------------------------------------------------------------------
      1          1           0        3.404292   -1.784914   -0.836109
      2          6           0        3.159496   -0.720814   -0.890509
      3          1           0        2.939997   -0.453713   -1.929009
      4          1           0        4.044698   -0.164017   -0.564509
      5          6           0        2.016597   -0.430209    0.069291
      6          8           0        2.012095   -0.851109    1.222091
      7          7           0        0.988100    0.314495   -0.443609
      8          1           0        1.066201    0.675995   -1.384909
      9          6           0       -0.067798    0.875499    0.401591
     10          1           0        0.155701    0.513998    1.409191
     11          6           0       -0.069292    2.402499    0.369691
     12          1           0       -0.305791    2.769800   -0.633609
     13          1           0       -0.834490    2.795702    1.045991
     14          1           0        0.906710    2.788495    0.679691
     15          6           0       -1.427700    0.305704   -0.058209
     16          8           0       -2.228798    0.958607   -0.716909
     17          7           0       -1.626505   -0.988895    0.321591
     18          1           0       -0.874907   -1.456198    0.812191
     19          6           0       -2.783908   -1.761891   -0.089809
     20          1           0       -3.483905   -1.073988   -0.566309
     21          1           0       -2.512411   -2.546692   -0.807509
     22          1           0       -3.268010   -2.228389    0.775291
 ---------------------------------------------------------------------

 SCF Done:  E(RHF) =  -492.926206971     A.U. after   14 cycles
 E2 =    -0.1600812903D+01 EUMP2 =    -0.49452701987441D+03

 The electronic state is 1-A.
 Alpha  occ. eigenvalues --  -20.53913 -20.53326 -15.60740 -15.59279 -11.37371
 Alpha  occ. eigenvalues --  -11.35878 -11.29165 -11.26684 -11.25589 -11.23258
 Alpha  occ. eigenvalues --   -1.39405  -1.38424  -1.25007  -1.22805  -1.05771
 Alpha  occ. eigenvalues --   -0.99746  -0.96165  -0.87427  -0.80669  -0.78699
 Alpha  occ. eigenvalues --   -0.72906  -0.68199  -0.66254  -0.64872  -0.62247
 Alpha  occ. eigenvalues --   -0.61659  -0.60339  -0.59139  -0.57899  -0.55798
 Alpha  occ. eigenvalues --   -0.54526  -0.53367  -0.52642  -0.51894  -0.51328
 Alpha  occ. eigenvalues --   -0.44044  -0.43392  -0.39718  -0.38866
 Alpha virt. eigenvalues --    0.02770   0.03863   0.04255   0.04792   0.05729
 Alpha virt. eigenvalues --    0.05821   0.06293   0.06805   0.07414   0.07980
 Alpha virt. eigenvalues --    0.09260   0.09325   0.11173   0.11849   0.12268

 Mulliken atomic charges:
              1
     1  H    0.033910
     2  C    0.361419
     3  H   -0.129806
     4  H    0.058548
     5  C    0.619222
     6  O   -0.876220
     7  N   -0.353731
     8  H   -0.108791
     9  C   -0.325194
    10  H   -0.182896
    11  C    0.776153
    12  H   -0.007324
    13  H   -0.028396
    14  H   -0.012550
    15  C    1.250829
    16  O   -0.828350
    17  N   -0.532934
    18  H   -0.099241
    19  C    0.732677
    20  H   -0.148730
    21  H   -0.089577
    22  H   -0.109017
 Sum of Mulliken atomic charges =   0.00000

 Dipole moment (field-independent basis, Debye):
    X=              1.8109    Y=             -0.8398    Z=             -1.6118  Tot=              2.5657
 Quadrupole moment (field-independent basis, Debye-Ang):
   XX=            -63.8997   YY=            -59.4216   ZZ=            -63.2652
   XY=              9.1184   XZ=            -11.7913   YZ=              3.8273

 Normal termination of Gaussian 09 at Mon Feb 13 08:56:52 2017.
