 Gaussian 09, Revision A.02,
 Gaussian 09:  EM64L-G09RevA.02 11-Jun-2009

 -------------------
 #SP MP2/aug-cc-pVDZ
 -------------------

 -------------------------------
 Single Point calculation at MP2
 -------------------------------
 Symbolic Z-matrix:
 Charge =  0 Multiplicity = 1

                         Standard orientation:
 ---------------------------------------------------------------------
 Center     Atomic      Atomic             Coordinates (Angstroms)
 Number     Number       Type             X           Y           Z
 ---------------------------------------------------------------------
      1          1           0       -3.242232   -1.973157    0.810192
      2          6           0       -3.174618   -0.881658    0.850692
      3          1           0       -2.978815   -0.573560    1.882392
      4          1           0       -4.145314   -0.483646    0.539292
      5          6           0       -2.116713   -0.419070   -0.139908
      6          8           0       -2.190316   -0.681069   -1.335708
      7          7           0       -1.096804    0.318817    0.396892
      8          1           0       -1.009303    0.412116    1.400492
      9          6           0        0.043002    0.772403   -0.390208
     10          1           0       -0.127303    0.386505   -1.398708
     11          6           0        0.141820    2.302702   -0.418808
     12          1           0        0.306025    2.689500    0.591692
     13          1           0        0.980724    2.624892   -1.046608
     14          1           0       -0.780874    2.730613   -0.822008
     15          6           0        1.308294    0.170288    0.241392
     16          8           0        1.595797    0.414584    1.410592
     17          7           0        2.044985   -0.637821   -0.568108
     18          1           0        1.697782   -0.829917   -1.497008
     19          6           0        3.253676   -1.309936   -0.121808
     20          1           0        3.457380   -0.971738    0.894992
     21          1           0        3.124363   -2.398734   -0.118108
     22          1           0        4.103679   -1.056346   -0.765308
 ---------------------------------------------------------------------

 SCF Done:  E(RHF) =  -492.927479811     A.U. after   14 cycles
 E2 =    -0.1600100012D+01 EUMP2 =    -0.49452757982235D+03

 The electronic state is 1-A.
 Alpha  occ. eigenvalues --  -20.53536 -20.52957 -15.60479 -15.59769 -11.36516
 Alpha  occ. eigenvalues --  -11.36437 -11.29125 -11.27309 -11.24753 -11.23540
 Alpha  occ. eigenvalues --   -1.39142  -1.38223  -1.24286  -1.23675  -1.05623
 Alpha  occ. eigenvalues --   -0.99263  -0.96465  -0.87742  -0.80284  -0.79214
 Alpha  occ. eigenvalues --   -0.73233  -0.67546  -0.65918  -0.64307  -0.62647
 Alpha  occ. eigenvalues --   -0.61948  -0.60270  -0.58541  -0.57647  -0.56621
 Alpha  occ. eigenvalues --   -0.55210  -0.53720  -0.52247  -0.52010  -0.50371
 Alpha  occ. eigenvalues --   -0.43750  -0.42526  -0.39986  -0.39039
 Alpha virt. eigenvalues --    0.03078   0.03712   0.04291   0.04955   0.05573
 Alpha virt. eigenvalues --    0.05923   0.06203   0.07222   0.07361   0.07621
 Alpha virt. eigenvalues --    0.08930   0.09506   0.11624   0.12058   0.12256

 Mulliken atomic charges:
              1
     1  H    0.045571
     2  C    0.404602
     3  H   -0.164413
     4  H    0.044409
     5  C    0.592269
     6  O   -0.863064
     7  N   -0.161594
     8  H   -0.095728
     9  C   -0.376157
    10  H   -0.242756
    11  C    0.841879
    12  H   -0.017357
    13  H   -0.047405
    14  H   -0.055048
    15  C    1.203402
    16  O   -0.871832
    17  N   -0.511087
    18  H   -0.102563
    19  C    0.720669
    20  H   -0.143731
    21  H   -0.091811
    22  H   -0.108255
 Sum of Mulliken atomic charges =   0.00000

 Dipole moment (field-independent basis, Debye):
    X=              0.8445    Y=             -0.3637    Z=              0.0283  Tot=              0.9199
 Quadrupole moment (field-independent basis, Debye-Ang):
   XX=            -58.1829   YY=            -59.1641   ZZ=            -66.2017
   XY=             -5.1959   XZ=            -15.2042   YZ=             -3.2786

 Normal termination of Gaussian 09 at Mon Feb 13 07:28:57 2017.
