 Gaussian 09, Revision A.02,
 Gaussian 09:  EM64L-G09RevA.02 11-Jun-2009

 -------------------
 #SP MP2/aug-cc-pVDZ
 -------------------

 -------------------------------
 Single Point calculation at MP2
 -------------------------------
 Symbolic Z-matrix:
 Charge =  0 Multiplicity = 1

                         Standard orientation:
 ---------------------------------------------------------------------
 Center     Atomic      Atomic             Coordinates (Angstroms)
 Number     Number       Type             X           Y           Z
 ---------------------------------------------------------------------
      1          1           0        3.654497   -1.794630    0.260494
      2          6           0        3.212403   -1.092527   -0.450806
      3          1           0        2.835198   -1.646124   -1.316606
      4          1           0        4.009408   -0.418533   -0.784706
      5          6           0        2.143709   -0.280418    0.266594
      6          8           0        2.314413    0.173380    1.386294
      7          7           0        0.965311   -0.111009   -0.440206
      8          1           0        1.021809   -0.294909   -1.435506
      9          6           0       -0.035082    0.874599   -0.022306
     10          1           0        0.335922    1.296496    0.914394
     11          6           0       -0.206073    1.991900   -1.061106
     12          1           0       -0.537976    1.587703   -2.025906
     13          1           0       -0.961667    2.702306   -0.714806
     14          1           0        0.738432    2.525593   -1.209206
     15          6           0       -1.410286    0.266310    0.311094
     16          8           0       -2.189282    0.866516    1.039694
     17          7           0       -1.740595   -0.869187   -0.377606
     18          1           0       -0.964100   -1.416594   -0.725006
     19          6           0       -2.994101   -1.561877   -0.122206
     20          1           0       -3.739595   -0.815572    0.155594
     21          1           0       -3.319005   -2.083875   -1.027306
     22          1           0       -2.910407   -2.287578    0.697794
 ---------------------------------------------------------------------

 SCF Done:  E(RHF) =  -492.921908036     A.U. after   14 cycles
 E2 =    -0.1601073931D+01 EUMP2 =    -0.49452298196710D+03

 The electronic state is 1-A.
 Alpha  occ. eigenvalues --  -20.54277 -20.53101 -15.60915 -15.59579 -11.37480
 Alpha  occ. eigenvalues --  -11.35744 -11.29062 -11.26867 -11.25811 -11.24421
 Alpha  occ. eigenvalues --   -1.39740  -1.38398  -1.25354  -1.22688  -1.05966
 Alpha  occ. eigenvalues --   -1.00070  -0.95894  -0.88175  -0.80701  -0.78435
 Alpha  occ. eigenvalues --   -0.72821  -0.68403  -0.66810  -0.63247  -0.63051
 Alpha  occ. eigenvalues --   -0.62310  -0.59487  -0.59181  -0.58429  -0.56835
 Alpha  occ. eigenvalues --   -0.54804  -0.54735  -0.53131  -0.51986  -0.49961
 Alpha  occ. eigenvalues --   -0.44484  -0.43495  -0.39695  -0.39602
 Alpha virt. eigenvalues --    0.02079   0.03633   0.03976   0.04642   0.05532
 Alpha virt. eigenvalues --    0.05835   0.06405   0.06548   0.07487   0.07901
 Alpha virt. eigenvalues --    0.08325   0.09292   0.11363   0.11798   0.12484

 Mulliken atomic charges:
              1
     1  H    0.028765
     2  C    0.365848
     3  H   -0.144582
     4  H    0.050351
     5  C    0.629766
     6  O   -0.837266
     7  N   -0.259531
     8  H   -0.059442
     9  C   -0.296713
    10  H   -0.043564
    11  C    0.786020
    12  H   -0.038037
    13  H   -0.048441
    14  H   -0.075040
    15  C    1.082136
    16  O   -0.888700
    17  N   -0.575418
    18  H   -0.075110
    19  C    0.750521
    20  H   -0.121642
    21  H   -0.158154
    22  H   -0.071767
 Sum of Mulliken atomic charges =   0.00000

 Dipole moment (field-independent basis, Debye):
    X=              1.4559    Y=             -3.0526    Z=             -5.7419  Tot=              6.6639
 Quadrupole moment (field-independent basis, Debye-Ang):
   XX=            -64.4935   YY=            -57.2268   ZZ=            -66.4120
   XY=              2.8832   XZ=             -3.6575   YZ=             -2.0724

 Normal termination of Gaussian 09 at Mon Feb 13 08:56:09 2017.
