 Gaussian 09, Revision A.02,
 Gaussian 09:  EM64L-G09RevA.02 11-Jun-2009

 -------------------------------------------
 # HF/6-31G* Opt=(ModRedundant) geom=nocrowd
 -------------------------------------------

 ------------------
 Phi Psi fixed scan
 ------------------
 Symbolic Z-matrix:
 Charge =  0 Multiplicity = 1

 SCF Done:  E(RHF) =  -492.820667826     A.U. after   15 cycles
 SCF Done:  E(RHF) =  -492.840126231     A.U. after   16 cycles
 SCF Done:  E(RHF) =  -492.845079234     A.U. after   13 cycles
 SCF Done:  E(RHF) =  -492.846395525     A.U. after   13 cycles
 SCF Done:  E(RHF) =  -492.846576134     A.U. after   12 cycles
 SCF Done:  E(RHF) =  -492.846744424     A.U. after   13 cycles
 SCF Done:  E(RHF) =  -492.846934832     A.U. after   12 cycles
 SCF Done:  E(RHF) =  -492.846934777     A.U. after   12 cycles
 SCF Done:  E(RHF) =  -492.846963178     A.U. after   10 cycles
 SCF Done:  E(RHF) =  -492.846967816     A.U. after    9 cycles
 SCF Done:  E(RHF) =  -492.847392322     A.U. after   11 cycles
 SCF Done:  E(RHF) =  -492.847360874     A.U. after   11 cycles
 SCF Done:  E(RHF) =  -492.847366117     A.U. after   10 cycles
 SCF Done:  E(RHF) =  -492.847426339     A.U. after   11 cycles
 SCF Done:  E(RHF) =  -492.847427981     A.U. after   10 cycles
 SCF Done:  E(RHF) =  -492.847429033     A.U. after   10 cycles
 SCF Done:  E(RHF) =  -492.847429712     A.U. after    9 cycles
 SCF Done:  E(RHF) =  -492.847429984     A.U. after    8 cycles
 SCF Done:  E(RHF) =  -492.847430039     A.U. after    8 cycles
 SCF Done:  E(RHF) =  -492.847430042     A.U. after    6 cycles
 Optimization completed.
    -- Stationary point found.

                         Standard orientation:
 ---------------------------------------------------------------------
 Center     Atomic      Atomic             Coordinates (Angstroms)
 Number     Number       Type             X           Y           Z
 ---------------------------------------------------------------------
      1          1           0        3.793308   -1.153170   -1.158891
      2          6           0        3.021713   -1.389613   -0.440830
      3          1           0        3.496323   -1.690138    0.488475
      4          1           0        2.426797   -2.220451   -0.802424
      5          6           0        2.189604   -0.145547   -0.194453
      6          8           0        2.623925    0.950687   -0.415834
      7          7           0        0.952001   -0.403357    0.299664
      8          1           0        0.757363   -1.348647    0.547224
      9          6           0       -0.062671    0.533440    0.777049
     10          1           0       -0.016485    0.581371    1.859728
     11          6           0        0.056704    1.952414    0.225376
     12          1           0        0.127388    1.971139   -0.855309
     13          1           0       -0.814337    2.520801    0.536507
     14          1           0        0.940287    2.438248    0.605550
     15          6           0       -1.390717   -0.173462    0.473198
     16          8           0       -1.704728   -1.132881    1.131008
     17          7           0       -2.124958    0.262055   -0.562871
     18          1           0       -1.790322    1.010075   -1.121164
     19          6           0       -3.334479   -0.424072   -0.967123
     20          1           0       -3.998771   -0.541224   -0.122514
     21          1           0       -3.828916    0.166355   -1.726583
     22          1           0       -3.116445   -1.406652   -1.368842
 ---------------------------------------------------------------------

 The electronic state is 1-A.
 Alpha  occ. eigenvalues --  -20.52740 -20.52158 -15.59368 -15.58850 -11.35112
 Alpha  occ. eigenvalues --  -11.34915 -11.28588 -11.26348 -11.23156 -11.22475
 Alpha  occ. eigenvalues --   -1.39871  -1.38900  -1.24349  -1.23603  -1.05984
 Alpha  occ. eigenvalues --   -0.99238  -0.95985  -0.89731  -0.80220  -0.77231
 Alpha  occ. eigenvalues --   -0.72798  -0.69299  -0.66388  -0.64775  -0.62618
 Alpha  occ. eigenvalues --   -0.62045  -0.59396  -0.58963  -0.56722  -0.56412
 Alpha  occ. eigenvalues --   -0.55654  -0.54321  -0.53550  -0.52171  -0.50959
 Alpha  occ. eigenvalues --   -0.43105  -0.41381  -0.39501  -0.38475
 Alpha virt. eigenvalues --    0.18926   0.20770   0.22070   0.23312   0.25675
 Alpha virt. eigenvalues --    0.27500   0.29340   0.29760   0.30529   0.31574
 Alpha virt. eigenvalues --    0.32919   0.33257   0.34246   0.35353   0.37208

 Mulliken atomic charges:
              1
     1  H    0.213458
     2  C   -0.588387
     3  H    0.198637
     4  H    0.179408
     5  C    0.753480
     6  O   -0.607534
     7  N   -0.834641
     8  H    0.403605
     9  C    0.021914
    10  H    0.206418
    11  C   -0.513497
    12  H    0.173026
    13  H    0.164938
    14  H    0.226082
    15  C    0.744227
    16  O   -0.628318
    17  N   -0.797548
    18  H    0.401594
    19  C   -0.270205
    20  H    0.200127
    21  H    0.169704
    22  H    0.183511
 Sum of Mulliken atomic charges =   0.00000

 Dipole moment (field-independent basis, Debye):
    X=             -1.4847    Y=             -0.2218    Z=             -1.5822  Tot=              2.1810
 Quadrupole moment (field-independent basis, Debye-Ang):
   XX=            -62.4534   YY=            -61.2241   ZZ=            -60.3654
   XY=            -12.7015   XZ=              8.4841   YZ=              3.5691

 Normal termination of Gaussian 09 at Fri Feb 10 03:35:43 2017.
