 Gaussian 09, Revision A.02,
 Gaussian 09:  EM64L-G09RevA.02 11-Jun-2009

 -------------------------------------------
 # HF/6-31G* Opt=(ModRedundant) geom=nocrowd
 -------------------------------------------

 ------------------
 Phi Psi fixed scan
 ------------------
 Symbolic Z-matrix:
 Charge =  0 Multiplicity = 1

 SCF Done:  E(RHF) =  -492.826024230     A.U. after   15 cycles
 SCF Done:  E(RHF) =  -492.844670248     A.U. after   15 cycles
 SCF Done:  E(RHF) =  -492.847890286     A.U. after   13 cycles
 SCF Done:  E(RHF) =  -492.849434808     A.U. after   13 cycles
 SCF Done:  E(RHF) =  -492.849451068     A.U. after   12 cycles
 SCF Done:  E(RHF) =  -492.849759116     A.U. after   12 cycles
 SCF Done:  E(RHF) =  -492.849780686     A.U. after   10 cycles
 SCF Done:  E(RHF) =  -492.849779921     A.U. after   10 cycles
 SCF Done:  E(RHF) =  -492.849790825     A.U. after    9 cycles
 SCF Done:  E(RHF) =  -492.849793239     A.U. after    9 cycles
 SCF Done:  E(RHF) =  -492.850339364     A.U. after   11 cycles
 SCF Done:  E(RHF) =  -492.850340843     A.U. after   11 cycles
 SCF Done:  E(RHF) =  -492.850349960     A.U. after   10 cycles
 SCF Done:  E(RHF) =  -492.850350442     A.U. after    8 cycles
 SCF Done:  E(RHF) =  -492.850350868     A.U. after    9 cycles
 SCF Done:  E(RHF) =  -492.850351824     A.U. after   10 cycles
 SCF Done:  E(RHF) =  -492.850353028     A.U. after   10 cycles
 SCF Done:  E(RHF) =  -492.850354031     A.U. after   10 cycles
 SCF Done:  E(RHF) =  -492.850354269     A.U. after    9 cycles
 SCF Done:  E(RHF) =  -492.850354292     A.U. after    8 cycles
 Optimization completed.
    -- Stationary point found.

                         Standard orientation:
 ---------------------------------------------------------------------
 Center     Atomic      Atomic             Coordinates (Angstroms)
 Number     Number       Type             X           Y           Z
 ---------------------------------------------------------------------
      1          1           0       -4.169279   -1.040965    0.303612
      2          6           0       -3.124624   -1.287498    0.426666
      3          1           0       -2.881147   -2.157872   -0.171557
      4          1           0       -2.949398   -1.533193    1.469576
      5          6           0       -2.292152   -0.073877    0.058742
      6          8           0       -2.746866    1.036071    0.134459
      7          7           0       -1.032613   -0.373629   -0.332898
      8          1           0       -0.774987   -1.334940   -0.368310
      9          6           0        0.080963    0.515752   -0.618651
     10          1           0        0.142472    0.678581   -1.693290
     11          6           0       -0.004798    1.883064    0.062364
     12          1           0        0.018669    1.791542    1.142870
     13          1           0        0.823467    2.506333   -0.260056
     14          1           0       -0.919217    2.381632   -0.208012
     15          6           0        1.341383   -0.293167   -0.260386
     16          8           0        1.346401   -1.490520   -0.402500
     17          7           0        2.424352    0.373602    0.167765
     18          1           0        2.364633    1.342443    0.365236
     19          6           0        3.649791   -0.327067    0.495748
     20          1           0        3.974370   -0.929165   -0.341302
     21          1           0        4.413290    0.404622    0.722426
     22          1           0        3.515300   -0.976477    1.352173
 ---------------------------------------------------------------------

 The electronic state is 1-A.
 Alpha  occ. eigenvalues --  -20.53391 -20.51415 -15.59821 -15.57810 -11.35614
 Alpha  occ. eigenvalues --  -11.34434 -11.28908 -11.26638 -11.22528 -11.22522
 Alpha  occ. eigenvalues --   -1.40542  -1.38184  -1.24532  -1.23339  -1.05912
 Alpha  occ. eigenvalues --   -0.98863  -0.96111  -0.89746  -0.80983  -0.76525
 Alpha  occ. eigenvalues --   -0.73212  -0.68610  -0.66203  -0.65317  -0.62864
 Alpha  occ. eigenvalues --   -0.61820  -0.59589  -0.58656  -0.56747  -0.56243
 Alpha  occ. eigenvalues --   -0.55774  -0.54865  -0.53053  -0.52426  -0.50116
 Alpha  occ. eigenvalues --   -0.43261  -0.40620  -0.40282  -0.38128
 Alpha virt. eigenvalues --    0.18687   0.21202   0.21735   0.24735   0.25749
 Alpha virt. eigenvalues --    0.27730   0.28913   0.30508   0.30996   0.32256
 Alpha virt. eigenvalues --    0.32473   0.33309   0.34611   0.36452   0.36824

 Mulliken atomic charges:
              1
     1  H    0.209559
     2  C   -0.582981
     3  H    0.177551
     4  H    0.197045
     5  C    0.759300
     6  O   -0.618046
     7  N   -0.843522
     8  H    0.422910
     9  C    0.015955
    10  H    0.206974
    11  C   -0.531630
    12  H    0.176086
    13  H    0.145092
    14  H    0.252650
    15  C    0.771105
    16  O   -0.638251
    17  N   -0.810015
    18  H    0.403400
    19  C   -0.270447
    20  H    0.199190
    21  H    0.170127
    22  H    0.187947
 Sum of Mulliken atomic charges =   0.00000

 Dipole moment (field-independent basis, Debye):
    X=              3.1962    Y=              0.5224    Z=              0.6433  Tot=              3.3019
 Quadrupole moment (field-independent basis, Debye-Ang):
   XX=            -58.8619   YY=            -63.3266   ZZ=            -59.5751
   XY=             14.1362   XZ=              2.4786   YZ=             -1.7336

 Normal termination of Gaussian 09 at Fri Feb 10 03:14:22 2017.
