 Gaussian 09, Revision A.02,
 Gaussian 09:  EM64L-G09RevA.02 11-Jun-2009

 -------------------------------------------
 # HF/6-31G* Opt=(ModRedundant) geom=nocrowd
 -------------------------------------------

 ------------------
 Phi Psi fixed scan
 ------------------
 Symbolic Z-matrix:
 Charge =  0 Multiplicity = 1

 SCF Done:  E(RHF) =  -492.832539065     A.U. after   15 cycles
 SCF Done:  E(RHF) =  -492.845473056     A.U. after   16 cycles
 SCF Done:  E(RHF) =  -492.849629581     A.U. after   13 cycles
 SCF Done:  E(RHF) =  -492.850719344     A.U. after   16 cycles
 SCF Done:  E(RHF) =  -492.851807152     A.U. after   13 cycles
 SCF Done:  E(RHF) =  -492.852519815     A.U. after   13 cycles
 SCF Done:  E(RHF) =  -492.852710224     A.U. after   13 cycles
 SCF Done:  E(RHF) =  -492.852715686     A.U. after   12 cycles
 SCF Done:  E(RHF) =  -492.852798640     A.U. after   12 cycles
 SCF Done:  E(RHF) =  -492.852809095     A.U. after   11 cycles
 SCF Done:  E(RHF) =  -492.852817475     A.U. after   10 cycles
 SCF Done:  E(RHF) =  -492.852828396     A.U. after   11 cycles
 SCF Done:  E(RHF) =  -492.852844698     A.U. after   11 cycles
 SCF Done:  E(RHF) =  -492.852849934     A.U. after   10 cycles
 SCF Done:  E(RHF) =  -492.852850846     A.U. after    9 cycles
 SCF Done:  E(RHF) =  -492.852851555     A.U. after    9 cycles
 SCF Done:  E(RHF) =  -492.852851769     A.U. after    8 cycles
 Optimization completed.
    -- Stationary point found.

                         Standard orientation:
 ---------------------------------------------------------------------
 Center     Atomic      Atomic             Coordinates (Angstroms)
 Number     Number       Type             X           Y           Z
 ---------------------------------------------------------------------
      1          1           0       -4.232920   -0.951962    0.101609
      2          6           0       -3.196002   -1.245154    0.174219
      3          1           0       -2.999662   -2.068730   -0.503068
      4          1           0       -2.997044   -1.587211    1.185540
      5          6           0       -2.323543   -0.045065   -0.134171
      6          8           0       -2.762925    1.071838   -0.137137
      7          7           0       -1.034137   -0.359496   -0.428821
      8          1           0       -0.762482   -1.299551   -0.235250
      9          6           0        0.094849    0.550994   -0.405638
     10          1           0        0.240059    0.981668   -1.392034
     11          6           0       -0.025190    1.689695    0.623184
     12          1           0       -0.151242    1.281172    1.620293
     13          1           0        0.874321    2.295301    0.617598
     14          1           0       -0.871128    2.317757    0.400167
     15          6           0        1.328513   -0.290170   -0.049301
     16          8           0        1.227403   -1.396070    0.415279
     17          7           0        2.511041    0.307533   -0.286075
     18          1           0        2.511284    1.212328   -0.697482
     19          6           0        3.788410   -0.300145    0.021203
     20          1           0        3.608143   -1.274609    0.444397
     21          1           0        4.386045   -0.410081   -0.876617
     22          1           0        4.338250    0.300590    0.737006
 ---------------------------------------------------------------------

 The electronic state is 1-A.
 Alpha  occ. eigenvalues --  -20.53841 -20.51763 -15.59904 -15.57442 -11.35967
 Alpha  occ. eigenvalues --  -11.34285 -11.28622 -11.26621 -11.22492 -11.22187
 Alpha  occ. eigenvalues --   -1.40826  -1.38420  -1.24738  -1.23201  -1.05715
 Alpha  occ. eigenvalues --   -0.98920  -0.96338  -0.88864  -0.80700  -0.76653
 Alpha  occ. eigenvalues --   -0.73279  -0.68051  -0.66350  -0.64586  -0.63408
 Alpha  occ. eigenvalues --   -0.62000  -0.60243  -0.58559  -0.56762  -0.56068
 Alpha  occ. eigenvalues --   -0.55720  -0.54971  -0.52753  -0.52377  -0.49935
 Alpha  occ. eigenvalues --   -0.43130  -0.41018  -0.40389  -0.38462
 Alpha virt. eigenvalues --    0.18904   0.20710   0.21447   0.24596   0.26090
 Alpha virt. eigenvalues --    0.28772   0.29453   0.30212   0.30961   0.31477
 Alpha virt. eigenvalues --    0.32087   0.33618   0.34499   0.35278   0.36597

 Mulliken atomic charges:
              1
     1  H    0.210975
     2  C   -0.591242
     3  H    0.184829
     4  H    0.195240
     5  C    0.750627
     6  O   -0.609331
     7  N   -0.829595
     8  H    0.418896
     9  C    0.000202
    10  H    0.194682
    11  C   -0.512261
    12  H    0.178185
    13  H    0.151412
    14  H    0.243961
    15  C    0.763139
    16  O   -0.630823
    17  N   -0.796422
    18  H    0.387525
    19  C   -0.289376
    20  H    0.230662
    21  H    0.174317
    22  H    0.174399
 Sum of Mulliken atomic charges =   0.00000

 Dipole moment (field-independent basis, Debye):
    X=              3.5637    Y=              0.1731    Z=             -0.6958  Tot=              3.6351
 Quadrupole moment (field-independent basis, Debye-Ang):
   XX=            -56.9208   YY=            -62.9734   ZZ=            -60.5348
   XY=             13.2462   XZ=             -3.4845   YZ=              0.3526

 Normal termination of Gaussian 09 at Fri Feb 10 03:01:07 2017.
