 Gaussian 09, Revision A.02,
 Gaussian 09:  EM64L-G09RevA.02 11-Jun-2009

 -------------------------------------------
 # HF/6-31G* Opt=(ModRedundant) geom=nocrowd
 -------------------------------------------

 ------------------
 Phi Psi fixed scan
 ------------------
 Symbolic Z-matrix:
 Charge =  0 Multiplicity = 1

 SCF Done:  E(RHF) =  -492.823996351     A.U. after   15 cycles
 SCF Done:  E(RHF) =  -492.839396987     A.U. after   16 cycles
 SCF Done:  E(RHF) =  -492.844181528     A.U. after   13 cycles
 SCF Done:  E(RHF) =  -492.846268006     A.U. after   13 cycles
 SCF Done:  E(RHF) =  -492.847017585     A.U. after   13 cycles
 SCF Done:  E(RHF) =  -492.847871727     A.U. after   12 cycles
 SCF Done:  E(RHF) =  -492.848055665     A.U. after   12 cycles
 SCF Done:  E(RHF) =  -492.848118405     A.U. after   12 cycles
 SCF Done:  E(RHF) =  -492.848190207     A.U. after   12 cycles
 SCF Done:  E(RHF) =  -492.848247475     A.U. after   12 cycles
 SCF Done:  E(RHF) =  -492.848725486     A.U. after   12 cycles
 SCF Done:  E(RHF) =  -492.848730822     A.U. after   12 cycles
 SCF Done:  E(RHF) =  -492.848738041     A.U. after   11 cycles
 SCF Done:  E(RHF) =  -492.848744208     A.U. after   10 cycles
 SCF Done:  E(RHF) =  -492.848745373     A.U. after    9 cycles
 SCF Done:  E(RHF) =  -492.848746812     A.U. after   10 cycles
 SCF Done:  E(RHF) =  -492.848748157     A.U. after   10 cycles
 SCF Done:  E(RHF) =  -492.848748535     A.U. after    9 cycles
 SCF Done:  E(RHF) =  -492.848748782     A.U. after    9 cycles
 SCF Done:  E(RHF) =  -492.848748887     A.U. after    8 cycles
 Optimization completed.
    -- Stationary point found.

                         Standard orientation:
 ---------------------------------------------------------------------
 Center     Atomic      Atomic             Coordinates (Angstroms)
 Number     Number       Type             X           Y           Z
 ---------------------------------------------------------------------
      1          1           0       -3.839984   -1.510204    0.356106
      2          6           0       -2.969612   -1.477342   -0.282295
      3          1           0       -3.299633   -1.434818   -1.316191
      4          1           0       -2.386040   -2.382011   -0.151112
      5          6           0       -2.173246   -0.227535    0.043937
      6          8           0       -2.664917    0.689331    0.633389
      7          7           0       -0.878595   -0.273329   -0.394966
      8          1           0       -0.685173   -1.027356   -1.017599
      9          6           0        0.089454    0.817047   -0.490230
     10          1           0        0.071300    1.231961   -1.492418
     11          6           0       -0.125797    1.961334    0.507439
     12          1           0       -0.151355    1.592552    1.525961
     13          1           0        0.703477    2.648148    0.401516
     14          1           0       -1.050354    2.480845    0.317350
     15          6           0        1.519753    0.298095   -0.303578
     16          8           0        2.446327    0.984320   -0.638533
     17          7           0        1.671222   -0.940946    0.212784
     18          1           0        0.885344   -1.342846    0.669500
     19          6           0        2.988618   -1.441055    0.548345
     20          1           0        3.652697   -1.296680   -0.290459
     21          1           0        3.410238   -0.932954    1.409245
     22          1           0        2.914793   -2.499187    0.762820
 ---------------------------------------------------------------------

 The electronic state is 1-A.
 Alpha  occ. eigenvalues --  -20.53313 -20.52467 -15.59794 -15.58977 -11.36052
 Alpha  occ. eigenvalues --  -11.34672 -11.28557 -11.26079 -11.24121 -11.21468
 Alpha  occ. eigenvalues --   -1.40218  -1.39440  -1.25576  -1.22868  -1.05932
 Alpha  occ. eigenvalues --   -0.99635  -0.96255  -0.88485  -0.79834  -0.77427
 Alpha  occ. eigenvalues --   -0.73417  -0.69636  -0.67289  -0.63311  -0.63053
 Alpha  occ. eigenvalues --   -0.62434  -0.60459  -0.59718  -0.57269  -0.55772
 Alpha  occ. eigenvalues --   -0.55619  -0.53389  -0.53204  -0.52151  -0.50179
 Alpha  occ. eigenvalues --   -0.43616  -0.42130  -0.39736  -0.39049
 Alpha virt. eigenvalues --    0.18880   0.19534   0.20408   0.24380   0.26623
 Alpha virt. eigenvalues --    0.27653   0.28710   0.29941   0.30068   0.31687
 Alpha virt. eigenvalues --    0.32992   0.33230   0.34331   0.35613   0.36573

 Mulliken atomic charges:
              1
     1  H    0.219672
     2  C   -0.592564
     3  H    0.197636
     4  H    0.175596
     5  C    0.751483
     6  O   -0.584822
     7  N   -0.855657
     8  H    0.383376
     9  C   -0.001445
    10  H    0.212204
    11  C   -0.497054
    12  H    0.172545
    13  H    0.198133
    14  H    0.215873
    15  C    0.742298
    16  O   -0.616147
    17  N   -0.792461
    18  H    0.394471
    19  C   -0.276456
    20  H    0.206632
    21  H    0.178593
    22  H    0.168097
 Sum of Mulliken atomic charges =   0.00000

 Dipole moment (field-independent basis, Debye):
    X=             -0.6662    Y=             -4.6537    Z=             -0.5075  Tot=              4.7285
 Quadrupole moment (field-independent basis, Debye-Ang):
   XX=            -71.2764   YY=            -58.1542   ZZ=            -59.5626
   XY=             -0.4085   XZ=              9.0464   YZ=             -0.3865

 Normal termination of Gaussian 09 at Fri Feb 10 03:55:30 2017.
