 Gaussian 09, Revision A.02,
 Gaussian 09:  EM64L-G09RevA.02 11-Jun-2009

 -------------------------------------------
 # HF/6-31G* Opt=(ModRedundant) geom=nocrowd
 -------------------------------------------

 ------------------
 Phi Psi fixed scan
 ------------------
 Symbolic Z-matrix:
 Charge =  0 Multiplicity = 1

 SCF Done:  E(RHF) =  -492.822615480     A.U. after   15 cycles
 SCF Done:  E(RHF) =  -492.838578515     A.U. after   15 cycles
 SCF Done:  E(RHF) =  -492.843126565     A.U. after   13 cycles
 SCF Done:  E(RHF) =  -492.843663280     A.U. after   13 cycles
 SCF Done:  E(RHF) =  -492.844078416     A.U. after   13 cycles
 SCF Done:  E(RHF) =  -492.844449067     A.U. after   12 cycles
 SCF Done:  E(RHF) =  -492.844585789     A.U. after   12 cycles
 SCF Done:  E(RHF) =  -492.844640980     A.U. after   13 cycles
 SCF Done:  E(RHF) =  -492.844697968     A.U. after   10 cycles
 SCF Done:  E(RHF) =  -492.844758668     A.U. after   12 cycles
 SCF Done:  E(RHF) =  -492.845035641     A.U. after   11 cycles
 SCF Done:  E(RHF) =  -492.845117726     A.U. after   12 cycles
 SCF Done:  E(RHF) =  -492.845173083     A.U. after   12 cycles
 SCF Done:  E(RHF) =  -492.845193125     A.U. after   12 cycles
 SCF Done:  E(RHF) =  -492.845198713     A.U. after   11 cycles
 SCF Done:  E(RHF) =  -492.845202387     A.U. after   11 cycles
 SCF Done:  E(RHF) =  -492.845203345     A.U. after   10 cycles
 SCF Done:  E(RHF) =  -492.845204377     A.U. after   10 cycles
 SCF Done:  E(RHF) =  -492.845205665     A.U. after   10 cycles
 SCF Done:  E(RHF) =  -492.845205878     A.U. after    8 cycles
 Optimization completed.
    -- Stationary point found.

                         Standard orientation:
 ---------------------------------------------------------------------
 Center     Atomic      Atomic             Coordinates (Angstroms)
 Number     Number       Type             X           Y           Z
 ---------------------------------------------------------------------
      1          1           0       -3.847389   -1.647428    0.295628
      2          6           0       -2.789756   -1.633558    0.513699
      3          1           0       -2.325801   -2.532062    0.121320
      4          1           0       -2.655565   -1.626480    1.591121
      5          6           0       -2.186749   -0.372671   -0.074528
      6          8           0       -2.863432    0.570371   -0.370511
      7          7           0       -0.836686   -0.425971   -0.235062
      8          1           0       -0.396357   -1.263792    0.070813
      9          6           0        0.064629    0.694768   -0.518449
     10          1           0        0.202410    0.771255   -1.594398
     11          6           0       -0.396384    2.047802    0.015514
     12          1           0       -0.573680    1.995878    1.080917
     13          1           0        0.390453    2.773428   -0.156724
     14          1           0       -1.296855    2.372206   -0.478786
     15          6           0        1.407483    0.317972    0.125118
     16          8           0        1.779713    0.771972    1.168380
     17          7           0        2.109334   -0.623651   -0.553316
     18          1           0        1.850181   -0.814219   -1.494255
     19          6           0        3.424022   -1.044092   -0.112553
     20          1           0        3.396469   -1.271095    0.942706
     21          1           0        3.706279   -1.934843   -0.658029
     22          1           0        4.171602   -0.275556   -0.277425
 ---------------------------------------------------------------------

 The electronic state is 1-A.
 Alpha  occ. eigenvalues --  -20.53617 -20.52300 -15.59758 -15.59039 -11.35376
 Alpha  occ. eigenvalues --  -11.35054 -11.28599 -11.26669 -11.23326 -11.20516
 Alpha  occ. eigenvalues --   -1.40544  -1.39098  -1.25077  -1.23262  -1.05514
 Alpha  occ. eigenvalues --   -0.99013  -0.96856  -0.87969  -0.79839  -0.77875
 Alpha  occ. eigenvalues --   -0.73302  -0.68313  -0.66823  -0.65079  -0.63017
 Alpha  occ. eigenvalues --   -0.62242  -0.60605  -0.58917  -0.56790  -0.56314
 Alpha  occ. eigenvalues --   -0.54412  -0.53913  -0.52622  -0.51567  -0.50330
 Alpha  occ. eigenvalues --   -0.43747  -0.41391  -0.39999  -0.38923
 Alpha virt. eigenvalues --    0.18221   0.20526   0.21267   0.22680   0.26099
 Alpha virt. eigenvalues --    0.27676   0.28321   0.30569   0.30700   0.30975
 Alpha virt. eigenvalues --    0.32854   0.33501   0.34450   0.36197   0.36965

 Mulliken atomic charges:
              1
     1  H    0.215546
     2  C   -0.590712
     3  H    0.173849
     4  H    0.200154
     5  C    0.758327
     6  O   -0.597762
     7  N   -0.832889
     8  H    0.390783
     9  C    0.018738
    10  H    0.178202
    11  C   -0.488250
    12  H    0.189159
    13  H    0.164582
    14  H    0.218937
    15  C    0.714053
    16  O   -0.588540
    17  N   -0.791672
    18  H    0.386798
    19  C   -0.276902
    20  H    0.205903
    21  H    0.170927
    22  H    0.180768
 Sum of Mulliken atomic charges =   0.00000

 Dipole moment (field-independent basis, Debye):
    X=              2.5206    Y=             -4.0681    Z=             -2.1218  Tot=              5.2350
 Quadrupole moment (field-independent basis, Debye-Ang):
   XX=            -65.6417   YY=            -57.8411   ZZ=            -61.1243
   XY=              1.8163   XZ=             -9.5502   YZ=             -1.9590

 Normal termination of Gaussian 09 at Fri Feb 10 02:36:56 2017.
