 Gaussian 09, Revision A.02,
 Gaussian 09:  EM64L-G09RevA.02 11-Jun-2009

 -------------------------------------------
 # HF/6-31G* Opt=(ModRedundant) geom=nocrowd
 -------------------------------------------

 ------------------
 Phi Psi fixed scan
 ------------------
 Symbolic Z-matrix:
 Charge =  0 Multiplicity = 1

 SCF Done:  E(RHF) =  -492.817689963     A.U. after   15 cycles
 SCF Done:  E(RHF) =  -492.835656768     A.U. after   14 cycles
 SCF Done:  E(RHF) =  -492.840344364     A.U. after   14 cycles
 SCF Done:  E(RHF) =  -492.843091555     A.U. after   13 cycles
 SCF Done:  E(RHF) =  -492.844819422     A.U. after   14 cycles
 SCF Done:  E(RHF) =  -492.845417562     A.U. after   13 cycles
 SCF Done:  E(RHF) =  -492.845990559     A.U. after   13 cycles
 SCF Done:  E(RHF) =  -492.846098629     A.U. after   12 cycles
 SCF Done:  E(RHF) =  -492.846175791     A.U. after   13 cycles
 SCF Done:  E(RHF) =  -492.846273567     A.U. after   12 cycles
 SCF Done:  E(RHF) =  -492.846833332     A.U. after   13 cycles
 SCF Done:  E(RHF) =  -492.846890476     A.U. after   12 cycles
 SCF Done:  E(RHF) =  -492.846898339     A.U. after   12 cycles
 SCF Done:  E(RHF) =  -492.846910748     A.U. after   11 cycles
 SCF Done:  E(RHF) =  -492.846915191     A.U. after   10 cycles
 SCF Done:  E(RHF) =  -492.846915562     A.U. after    9 cycles
 SCF Done:  E(RHF) =  -492.846915711     A.U. after    8 cycles
 SCF Done:  E(RHF) =  -492.846916043     A.U. after    9 cycles
 SCF Done:  E(RHF) =  -492.846916153     A.U. after    8 cycles
 SCF Done:  E(RHF) =  -492.846916179     A.U. after    7 cycles
 Optimization completed.
    -- Stationary point found.

                         Standard orientation:
 ---------------------------------------------------------------------
 Center     Atomic      Atomic             Coordinates (Angstroms)
 Number     Number       Type             X           Y           Z
 ---------------------------------------------------------------------
      1          1           0       -3.858412   -1.509456    0.375924
      2          6           0       -2.957649   -1.516640   -0.219527
      3          1           0       -3.235257   -1.546633   -1.269259
      4          1           0       -2.380516   -2.407653    0.002449
      5          6           0       -2.177251   -0.245932    0.062135
      6          8           0       -2.688639    0.695960    0.590466
      7          7           0       -0.867216   -0.311285   -0.335136
      8          1           0       -0.674452   -1.083217   -0.936282
      9          6           0        0.085793    0.786020   -0.502666
     10          1           0        0.092928    1.095681   -1.543737
     11          6           0       -0.193193    2.020619    0.360060
     12          1           0       -0.255612    1.758349    1.409055
     13          1           0        0.626555    2.710582    0.217357
     14          1           0       -1.118966    2.495317    0.079202
     15          6           0        1.522571    0.318802   -0.229507
     16          8           0        2.434144    1.079503   -0.403945
     17          7           0        1.708636   -0.978309    0.112309
     18          1           0        0.934934   -1.445991    0.525578
     19          6           0        3.034825   -1.448829    0.460342
     20          1           0        3.727752   -1.180936   -0.322762
     21          1           0        3.389982   -1.020175    1.391573
     22          1           0        3.006511   -2.526646    0.553496
 ---------------------------------------------------------------------

 The electronic state is 1-A.
 Alpha  occ. eigenvalues --  -20.53413 -20.52644 -15.59794 -15.58965 -11.36083
 Alpha  occ. eigenvalues --  -11.34756 -11.28654 -11.26019 -11.24151 -11.21123
 Alpha  occ. eigenvalues --   -1.40301  -1.39603  -1.25587  -1.22842  -1.05828
 Alpha  occ. eigenvalues --   -0.99571  -0.96233  -0.88293  -0.79919  -0.77060
 Alpha  occ. eigenvalues --   -0.73361  -0.69800  -0.67283  -0.63548  -0.63030
 Alpha  occ. eigenvalues --   -0.62354  -0.60620  -0.59656  -0.57282  -0.55743
 Alpha  occ. eigenvalues --   -0.55159  -0.53284  -0.52887  -0.52142  -0.50172
 Alpha  occ. eigenvalues --   -0.43844  -0.42349  -0.39733  -0.39139
 Alpha virt. eigenvalues --    0.18598   0.19415   0.20234   0.24586   0.26595
 Alpha virt. eigenvalues --    0.28167   0.28582   0.30261   0.30318   0.31418
 Alpha virt. eigenvalues --    0.32862   0.33417   0.34670   0.35250   0.36496

 Mulliken atomic charges:
              1
     1  H    0.220463
     2  C   -0.593760
     3  H    0.195705
     4  H    0.176788
     5  C    0.751388
     6  O   -0.580467
     7  N   -0.853770
     8  H    0.380982
     9  C   -0.009466
    10  H    0.210011
    11  C   -0.495282
    12  H    0.175754
    13  H    0.202392
    14  H    0.209469
    15  C    0.753326
    16  O   -0.611628
    17  N   -0.798028
    18  H    0.392225
    19  C   -0.278572
    20  H    0.206157
    21  H    0.178455
    22  H    0.167855
 Sum of Mulliken atomic charges =   0.00000

 Dipole moment (field-independent basis, Debye):
    X=             -0.5732    Y=             -4.8972    Z=             -0.8923  Tot=              5.0107
 Quadrupole moment (field-independent basis, Debye-Ang):
   XX=            -71.1008   YY=            -58.4541   ZZ=            -59.1926
   XY=             -0.6211   XZ=              7.3689   YZ=             -0.8978

 Normal termination of Gaussian 09 at Fri Feb 10 02:24:46 2017.
