 Gaussian 09, Revision A.02,
 Gaussian 09:  EM64L-G09RevA.02 11-Jun-2009

 -------------------------------------------
 # HF/6-31G* Opt=(ModRedundant) geom=nocrowd
 -------------------------------------------

 ------------------
 Phi Psi fixed scan
 ------------------
 Symbolic Z-matrix:
 Charge =  0 Multiplicity = 1

 SCF Done:  E(RHF) =  -492.826658737     A.U. after   15 cycles
 SCF Done:  E(RHF) =  -492.841153218     A.U. after   17 cycles
 SCF Done:  E(RHF) =  -492.845560889     A.U. after   13 cycles
 SCF Done:  E(RHF) =  -492.846121490     A.U. after   13 cycles
 SCF Done:  E(RHF) =  -492.846709922     A.U. after   13 cycles
 SCF Done:  E(RHF) =  -492.847108396     A.U. after   12 cycles
 SCF Done:  E(RHF) =  -492.847223569     A.U. after   13 cycles
 SCF Done:  E(RHF) =  -492.847287150     A.U. after   13 cycles
 SCF Done:  E(RHF) =  -492.847330531     A.U. after   10 cycles
 SCF Done:  E(RHF) =  -492.847366260     A.U. after   12 cycles
 SCF Done:  E(RHF) =  -492.847616999     A.U. after   12 cycles
 SCF Done:  E(RHF) =  -492.847635614     A.U. after   12 cycles
 SCF Done:  E(RHF) =  -492.847672018     A.U. after   12 cycles
 SCF Done:  E(RHF) =  -492.847681341     A.U. after   14 cycles
 SCF Done:  E(RHF) =  -492.847734368     A.U. after   11 cycles
 SCF Done:  E(RHF) =  -492.847737224     A.U. after   11 cycles
 SCF Done:  E(RHF) =  -492.847739675     A.U. after   10 cycles
 SCF Done:  E(RHF) =  -492.847740340     A.U. after    9 cycles
 SCF Done:  E(RHF) =  -492.847740663     A.U. after    9 cycles
 SCF Done:  E(RHF) =  -492.847740713     A.U. after    7 cycles
 Optimization completed.
    -- Stationary point found.

                         Standard orientation:
 ---------------------------------------------------------------------
 Center     Atomic      Atomic             Coordinates (Angstroms)
 Number     Number       Type             X           Y           Z
 ---------------------------------------------------------------------
      1          1           0        3.819950   -1.527635   -0.378018
      2          6           0        2.996014   -1.447389    0.315564
      3          1           0        3.397461   -1.321299    1.316755
      4          1           0        2.412520   -2.361223    0.297608
      5          6           0        2.168664   -0.229622   -0.050179
      6          8           0        2.614449    0.648912   -0.730641
      7          7           0        0.906749   -0.245919    0.466395
      8          1           0        0.730307   -0.971955    1.125740
      9          6           0       -0.079865    0.833174    0.499260
     10          1           0       -0.030684    1.332658    1.459128
     11          6           0        0.056479    1.884214   -0.605830
     12          1           0        0.075091    1.438070   -1.591277
     13          1           0       -0.799799    2.547514   -0.541871
     14          1           0        0.958076    2.462440   -0.485517
     15          6           0       -1.478730    0.208425    0.455185
     16          8           0       -2.280972    0.425109    1.322459
     17          7           0       -1.755993   -0.540833   -0.631031
     18          1           0       -1.008526   -0.783805   -1.238754
     19          6           0       -3.029261   -1.209833   -0.787263
     20          1           0       -3.833486   -0.516837   -0.587674
     21          1           0       -3.113431   -1.563268   -1.806326
     22          1           0       -3.130392   -2.053384   -0.112301
 ---------------------------------------------------------------------

 The electronic state is 1-A.
 Alpha  occ. eigenvalues --  -20.53057 -20.52763 -15.59744 -15.58736 -11.35871
 Alpha  occ. eigenvalues --  -11.34522 -11.28409 -11.26099 -11.23936 -11.22065
 Alpha  occ. eigenvalues --   -1.40022  -1.39417  -1.25188  -1.22965  -1.06076
 Alpha  occ. eigenvalues --   -0.99700  -0.95940  -0.89071  -0.79604  -0.77815
 Alpha  occ. eigenvalues --   -0.73006  -0.69381  -0.67069  -0.63825  -0.63034
 Alpha  occ. eigenvalues --   -0.62301  -0.59824  -0.59250  -0.57274  -0.56121
 Alpha  occ. eigenvalues --   -0.55575  -0.53913  -0.53780  -0.51996  -0.51111
 Alpha  occ. eigenvalues --   -0.43467  -0.41693  -0.39573  -0.38771
 Alpha virt. eigenvalues --    0.19081   0.19563   0.21005   0.23541   0.26414
 Alpha virt. eigenvalues --    0.26937   0.28737   0.29591   0.30218   0.31890
 Alpha virt. eigenvalues --    0.32619   0.33268   0.33712   0.35517   0.36605

 Mulliken atomic charges:
              1
     1  H    0.217880
     2  C   -0.591748
     3  H    0.199005
     4  H    0.177437
     5  C    0.749229
     6  O   -0.593071
     7  N   -0.840254
     8  H    0.387374
     9  C   -0.018373
    10  H    0.216516
    11  C   -0.484919
    12  H    0.172409
    13  H    0.175987
    14  H    0.216520
    15  C    0.731046
    16  O   -0.608064
    17  N   -0.776708
    18  H    0.393189
    19  C   -0.271875
    20  H    0.204522
    21  H    0.170167
    22  H    0.173731
 Sum of Mulliken atomic charges =   0.00000

 Dipole moment (field-independent basis, Debye):
    X=              0.4109    Y=             -3.4628    Z=             -0.6527  Tot=              3.5477
 Quadrupole moment (field-independent basis, Debye-Ang):
   XX=            -69.0982   YY=            -56.8842   ZZ=            -62.2956
   XY=             -2.6144   XZ=             12.9918   YZ=              0.5336

 Normal termination of Gaussian 09 at Fri Feb 10 03:46:37 2017.
