 Gaussian 09, Revision A.02,
 Gaussian 09:  EM64L-G09RevA.02 11-Jun-2009

 -------------------------------------------
 # HF/6-31G* Opt=(ModRedundant) geom=nocrowd
 -------------------------------------------

 ------------------
 Phi Psi fixed scan
 ------------------
 Symbolic Z-matrix:
 Charge =  0 Multiplicity = 1

 SCF Done:  E(RHF) =  -492.827800689     A.U. after   15 cycles
 SCF Done:  E(RHF) =  -492.842125155     A.U. after   16 cycles
 SCF Done:  E(RHF) =  -492.846453974     A.U. after   13 cycles
 SCF Done:  E(RHF) =  -492.847511634     A.U. after   13 cycles
 SCF Done:  E(RHF) =  -492.848225311     A.U. after   13 cycles
 SCF Done:  E(RHF) =  -492.848784272     A.U. after   12 cycles
 SCF Done:  E(RHF) =  -492.848909632     A.U. after   12 cycles
 SCF Done:  E(RHF) =  -492.848919787     A.U. after   12 cycles
 SCF Done:  E(RHF) =  -492.848974997     A.U. after   11 cycles
 SCF Done:  E(RHF) =  -492.849015728     A.U. after   11 cycles
 SCF Done:  E(RHF) =  -492.849306959     A.U. after   12 cycles
 SCF Done:  E(RHF) =  -492.849356559     A.U. after   12 cycles
 SCF Done:  E(RHF) =  -492.849398960     A.U. after   12 cycles
 SCF Done:  E(RHF) =  -492.849406284     A.U. after   11 cycles
 SCF Done:  E(RHF) =  -492.849414474     A.U. after   11 cycles
 SCF Done:  E(RHF) =  -492.849429333     A.U. after   12 cycles
 SCF Done:  E(RHF) =  -492.849435431     A.U. after   10 cycles
 SCF Done:  E(RHF) =  -492.849442004     A.U. after   11 cycles
 SCF Done:  E(RHF) =  -492.849443575     A.U. after    9 cycles
 SCF Done:  E(RHF) =  -492.849444696     A.U. after    9 cycles
 Optimization completed.
    -- Stationary point found.

                         Standard orientation:
 ---------------------------------------------------------------------
 Center     Atomic      Atomic             Coordinates (Angstroms)
 Number     Number       Type             X           Y           Z
 ---------------------------------------------------------------------
      1          1           0       -3.828332   -1.512260    0.337981
      2          6           0       -2.983267   -1.444955   -0.331107
      3          1           0       -3.353653   -1.344648   -1.347082
      4          1           0       -2.397832   -2.356010   -0.273197
      5          6           0       -2.172470   -0.214704    0.031057
      6          8           0       -2.645106    0.678001    0.672559
      7          7           0       -0.892538   -0.241028   -0.443515
      8          1           0       -0.699191   -0.980055   -1.083230
      9          6           0        0.090077    0.838718   -0.476045
     10          1           0        0.054610    1.337149   -1.437841
     11          6           0       -0.070145    1.895348    0.624091
     12          1           0       -0.075278    1.441442    1.607911
     13          1           0        0.771376    2.573749    0.554087
     14          1           0       -0.986556    2.449677    0.507169
     15          6           0        1.509291    0.273756   -0.370289
     16          8           0        2.428355    0.862224   -0.871665
     17          7           0        1.658806   -0.873640    0.322713
     18          1           0        0.876070   -1.214908    0.830692
     19          6           0        2.973270   -1.397391    0.628397
     20          1           0        3.578528   -1.401669   -0.265873
     21          1           0        3.480736   -0.804111    1.381629
     22          1           0        2.869121   -2.412102    0.989599
 ---------------------------------------------------------------------

 The electronic state is 1-A.
 Alpha  occ. eigenvalues --  -20.53196 -20.52450 -15.59777 -15.58943 -11.35987
 Alpha  occ. eigenvalues --  -11.34602 -11.28480 -11.26129 -11.24063 -11.21784
 Alpha  occ. eigenvalues --   -1.40123  -1.39360  -1.25504  -1.22888  -1.06032
 Alpha  occ. eigenvalues --   -0.99684  -0.96223  -0.88692  -0.79747  -0.77730
 Alpha  occ. eigenvalues --   -0.73385  -0.69483  -0.67252  -0.63238  -0.63079
 Alpha  occ. eigenvalues --   -0.62460  -0.60227  -0.59734  -0.57265  -0.56023
 Alpha  occ. eigenvalues --   -0.55695  -0.53691  -0.53402  -0.52098  -0.50357
 Alpha  occ. eigenvalues --   -0.43509  -0.41802  -0.39861  -0.38861
 Alpha virt. eigenvalues --    0.19150   0.19434   0.20725   0.24061   0.26721
 Alpha virt. eigenvalues --    0.27058   0.28754   0.29643   0.29990   0.31947
 Alpha virt. eigenvalues --    0.33048   0.33110   0.33965   0.35662   0.36751

 Mulliken atomic charges:
              1
     1  H    0.218835
     2  C   -0.591734
     3  H    0.198943
     4  H    0.175342
     5  C    0.751157
     6  O   -0.589088
     7  N   -0.852405
     8  H    0.385111
     9  C   -0.001775
    10  H    0.214486
    11  C   -0.496810
    12  H    0.170644
    13  H    0.191747
    14  H    0.220455
    15  C    0.734072
    16  O   -0.616243
    17  N   -0.786498
    18  H    0.394938
    19  C   -0.273999
    20  H    0.205592
    21  H    0.179150
    22  H    0.168079
 Sum of Mulliken atomic charges =   0.00000

 Dipole moment (field-independent basis, Debye):
    X=             -0.6557    Y=             -4.3529    Z=             -0.1049  Tot=              4.4033
 Quadrupole moment (field-independent basis, Debye-Ang):
   XX=            -71.0312   YY=            -57.7877   ZZ=            -60.2183
   XY=              0.0982   XZ=             10.6202   YZ=             -0.0060

 Normal termination of Gaussian 09 at Fri Feb 10 03:52:45 2017.
