 Gaussian 09, Revision A.02,
 Gaussian 09:  EM64L-G09RevA.02 11-Jun-2009

 -------------------------------------------
 # HF/6-31G* Opt=(ModRedundant) geom=nocrowd
 -------------------------------------------

 ------------------
 Phi Psi fixed scan
 ------------------
 Symbolic Z-matrix:
 Charge =  0 Multiplicity = 1

 SCF Done:  E(RHF) =  -492.831490111     A.U. after   15 cycles
 SCF Done:  E(RHF) =  -492.844990726     A.U. after   15 cycles
 SCF Done:  E(RHF) =  -492.848752304     A.U. after   13 cycles
 SCF Done:  E(RHF) =  -492.849688780     A.U. after   13 cycles
 SCF Done:  E(RHF) =  -492.851020610     A.U. after   13 cycles
 SCF Done:  E(RHF) =  -492.851907083     A.U. after   13 cycles
 SCF Done:  E(RHF) =  -492.852318064     A.U. after   13 cycles
 SCF Done:  E(RHF) =  -492.852366993     A.U. after   13 cycles
 SCF Done:  E(RHF) =  -492.852434927     A.U. after   12 cycles
 SCF Done:  E(RHF) =  -492.852455882     A.U. after   10 cycles
 SCF Done:  E(RHF) =  -492.852686077     A.U. after   11 cycles
 SCF Done:  E(RHF) =  -492.852712981     A.U. after   11 cycles
 SCF Done:  E(RHF) =  -492.852716301     A.U. after   10 cycles
 SCF Done:  E(RHF) =  -492.852713974     A.U. after   10 cycles
 SCF Done:  E(RHF) =  -492.852716021     A.U. after    8 cycles
 SCF Done:  E(RHF) =  -492.852724166     A.U. after   11 cycles
 SCF Done:  E(RHF) =  -492.852724418     A.U. after    8 cycles
 SCF Done:  E(RHF) =  -492.852724451     A.U. after    8 cycles
 SCF Done:  E(RHF) =  -492.852724473     A.U. after    7 cycles
 SCF Done:  E(RHF) =  -492.852724460     A.U. after    5 cycles
 Optimization completed.
    -- Stationary point found.

                         Standard orientation:
 ---------------------------------------------------------------------
 Center     Atomic      Atomic             Coordinates (Angstroms)
 Number     Number       Type             X           Y           Z
 ---------------------------------------------------------------------
      1          1           0       -4.215840   -1.000894    0.024671
      2          6           0       -3.176184   -1.283083    0.101036
      3          1           0       -2.963776   -2.090671   -0.590615
      4          1           0       -2.981132   -1.642476    1.107125
      5          6           0       -2.315088   -0.068524   -0.178899
      6          8           0       -2.767464    1.042210   -0.188646
      7          7           0       -1.011514   -0.359892   -0.448102
      8          1           0       -0.732896   -1.288150   -0.211747
      9          6           0        0.090735    0.581725   -0.352180
     10          1           0        0.241284    1.061436   -1.313862
     11          6           0       -0.070194    1.666853    0.727204
     12          1           0       -0.226811    1.207883    1.697161
     13          1           0        0.832673    2.267494    0.777433
     14          1           0       -0.907015    2.308787    0.507443
     15          6           0        1.333607   -0.233563    0.011991
     16          8           0        1.259034   -1.243672    0.662193
     17          7           0        2.501497    0.254758   -0.441200
     18          1           0        2.503644    1.108994   -0.948075
     19          6           0        3.769651   -0.345100   -0.080107
     20          1           0        3.744771   -1.407903   -0.273763
     21          1           0        4.547799    0.105228   -0.681199
     22          1           0        3.999701   -0.191945    0.967893
 ---------------------------------------------------------------------

 The electronic state is 1-A.
 Alpha  occ. eigenvalues --  -20.53707 -20.52008 -15.59893 -15.57626 -11.35652
 Alpha  occ. eigenvalues --  -11.34383 -11.28484 -11.26740 -11.22610 -11.22070
 Alpha  occ. eigenvalues --   -1.40711  -1.38638  -1.24642  -1.23276  -1.05679
 Alpha  occ. eigenvalues --   -0.98973  -0.96439  -0.88633  -0.80613  -0.76821
 Alpha  occ. eigenvalues --   -0.73294  -0.67892  -0.66416  -0.64150  -0.63517
 Alpha  occ. eigenvalues --   -0.62100  -0.60416  -0.58502  -0.56672  -0.56421
 Alpha  occ. eigenvalues --   -0.55636  -0.54990  -0.52407  -0.52237  -0.49952
 Alpha  occ. eigenvalues --   -0.43066  -0.41159  -0.40340  -0.38799
 Alpha virt. eigenvalues --    0.18901   0.20349   0.21207   0.24212   0.25798
 Alpha virt. eigenvalues --    0.28195   0.29348   0.29917   0.31282   0.31655
 Alpha virt. eigenvalues --    0.32288   0.33231   0.34401   0.35756   0.37114

 Mulliken atomic charges:
              1
     1  H    0.211801
     2  C   -0.592947
     3  H    0.185947
     4  H    0.196084
     5  C    0.747696
     6  O   -0.605178
     7  N   -0.819766
     8  H    0.410819
     9  C    0.007098
    10  H    0.190986
    11  C   -0.515111
    12  H    0.182586
    13  H    0.154792
    14  H    0.240416
    15  C    0.748071
    16  O   -0.626631
    17  N   -0.793560
    18  H    0.390243
    19  C   -0.272921
    20  H    0.203292
    21  H    0.171946
    22  H    0.184339
 Sum of Mulliken atomic charges =   0.00000

 Dipole moment (field-independent basis, Debye):
    X=              3.4645    Y=              0.0659    Z=             -1.1271  Tot=              3.6439
 Quadrupole moment (field-independent basis, Debye-Ang):
   XX=            -56.6930   YY=            -62.0599   ZZ=            -61.1658
   XY=             13.1718   XZ=             -4.8840   YZ=              1.0216

 Normal termination of Gaussian 09 at Fri Feb 10 02:59:04 2017.
