 Gaussian 09, Revision A.02,
 Gaussian 09:  EM64L-G09RevA.02 11-Jun-2009

 -------------------------------------------
 # HF/6-31G* Opt=(ModRedundant) geom=nocrowd
 -------------------------------------------

 ------------------
 Phi Psi fixed scan
 ------------------
 Symbolic Z-matrix:
 Charge =  0 Multiplicity = 1

 SCF Done:  E(RHF) =  -492.829746145     A.U. after   15 cycles
 SCF Done:  E(RHF) =  -492.843678732     A.U. after   15 cycles
 SCF Done:  E(RHF) =  -492.847195708     A.U. after   13 cycles
 SCF Done:  E(RHF) =  -492.847886029     A.U. after   13 cycles
 SCF Done:  E(RHF) =  -492.849143224     A.U. after   13 cycles
 SCF Done:  E(RHF) =  -492.849932677     A.U. after   13 cycles
 SCF Done:  E(RHF) =  -492.850727648     A.U. after   14 cycles
 SCF Done:  E(RHF) =  -492.850866635     A.U. after   12 cycles
 SCF Done:  E(RHF) =  -492.850892473     A.U. after   12 cycles
 SCF Done:  E(RHF) =  -492.850907251     A.U. after   11 cycles
 SCF Done:  E(RHF) =  -492.851102558     A.U. after   11 cycles
 SCF Done:  E(RHF) =  -492.851132645     A.U. after   11 cycles
 SCF Done:  E(RHF) =  -492.851150716     A.U. after   12 cycles
 SCF Done:  E(RHF) =  -492.851110727     A.U. after   12 cycles
 SCF Done:  E(RHF) =  -492.851163189     A.U. after   11 cycles
 SCF Done:  E(RHF) =  -492.851166096     A.U. after   11 cycles
 SCF Done:  E(RHF) =  -492.851167516     A.U. after    9 cycles
 SCF Done:  E(RHF) =  -492.851167521     A.U. after    7 cycles
 SCF Done:  E(RHF) =  -492.851167538     A.U. after    7 cycles
 SCF Done:  E(RHF) =  -492.851167540     A.U. after    7 cycles
 Optimization completed.
    -- Stationary point found.

                         Standard orientation:
 ---------------------------------------------------------------------
 Center     Atomic      Atomic             Coordinates (Angstroms)
 Number     Number       Type             X           Y           Z
 ---------------------------------------------------------------------
      1          1           0       -4.177814   -1.091630   -0.039110
      2          6           0       -3.133041   -1.343384    0.067415
      3          1           0       -2.882449   -2.158557   -0.602334
      4          1           0       -2.952075   -1.676614    1.085090
      5          6           0       -2.298690   -0.112032   -0.218843
      6          8           0       -2.779540    0.984486   -0.272418
      7          7           0       -0.977488   -0.371392   -0.444777
      8          1           0       -0.688318   -1.281345   -0.156675
      9          6           0        0.088253    0.613164   -0.313772
     10          1           0        0.244993    1.093942   -1.273445
     11          6           0       -0.138492    1.695037    0.754209
     12          1           0       -0.315442    1.234656    1.719103
     13          1           0        0.750895    2.314146    0.830495
     14          1           0       -0.979523    2.319812    0.502427
     15          6           0        1.343021   -0.158157    0.096870
     16          8           0        1.299801   -1.012901    0.942997
     17          7           0        2.472686    0.165407   -0.555978
     18          1           0        2.450286    0.900658   -1.223148
     19          6           0        3.751807   -0.411699   -0.196540
     20          1           0        3.671768   -1.488396   -0.153510
     21          1           0        4.477211   -0.141063   -0.951658
     22          1           0        4.094843   -0.053969    0.767390
 ---------------------------------------------------------------------

 The electronic state is 1-A.
 Alpha  occ. eigenvalues --  -20.53465 -20.52220 -15.59958 -15.57881 -11.35518
 Alpha  occ. eigenvalues --  -11.34507 -11.28402 -11.26721 -11.22748 -11.21786
 Alpha  occ. eigenvalues --   -1.40533  -1.38834  -1.24614  -1.23352  -1.05591
 Alpha  occ. eigenvalues --   -0.99017  -0.96578  -0.88391  -0.80482  -0.76993
 Alpha  occ. eigenvalues --   -0.73293  -0.67732  -0.66507  -0.63986  -0.63565
 Alpha  occ. eigenvalues --   -0.62131  -0.60512  -0.58492  -0.56687  -0.56379
 Alpha  occ. eigenvalues --   -0.55609  -0.54901  -0.52367  -0.51942  -0.50030
 Alpha  occ. eigenvalues --   -0.43001  -0.41233  -0.40194  -0.39076
 Alpha virt. eigenvalues --    0.19058   0.20206   0.21167   0.23765   0.25818
 Alpha virt. eigenvalues --    0.28099   0.29597   0.30044   0.31277   0.31467
 Alpha virt. eigenvalues --    0.32091   0.33239   0.34049   0.36092   0.37168

 Mulliken atomic charges:
              1
     1  H    0.212752
     2  C   -0.594426
     3  H    0.185984
     4  H    0.197076
     5  C    0.747033
     6  O   -0.601084
     7  N   -0.812691
     8  H    0.402564
     9  C    0.013291
    10  H    0.186681
    11  C   -0.517312
    12  H    0.187101
    13  H    0.156956
    14  H    0.236102
    15  C    0.739289
    16  O   -0.625053
    17  N   -0.790839
    18  H    0.390967
    19  C   -0.274608
    20  H    0.203642
    21  H    0.172140
    22  H    0.184436
 Sum of Mulliken atomic charges =   0.00000

 Dipole moment (field-independent basis, Debye):
    X=              3.3527    Y=             -0.3587    Z=             -1.6412  Tot=              3.7500
 Quadrupole moment (field-independent basis, Debye-Ang):
   XX=            -57.1329   YY=            -60.8673   ZZ=            -61.8507
   XY=             12.0627   XZ=             -6.6887   YZ=              1.3813

 Normal termination of Gaussian 09 at Fri Feb 10 02:55:13 2017.
