 Gaussian 09, Revision A.02,
 Gaussian 09:  EM64L-G09RevA.02 11-Jun-2009

 -------------------------------------------
 # HF/6-31G* Opt=(ModRedundant) geom=nocrowd
 -------------------------------------------

 ------------------
 Phi Psi fixed scan
 ------------------
 Symbolic Z-matrix:
 Charge =  0 Multiplicity = 1

 SCF Done:  E(RHF) =  -492.813964022     A.U. after   15 cycles
 SCF Done:  E(RHF) =  -492.832169546     A.U. after   16 cycles
 SCF Done:  E(RHF) =  -492.836113338     A.U. after   14 cycles
 SCF Done:  E(RHF) =  -492.838170737     A.U. after   13 cycles
 SCF Done:  E(RHF) =  -492.839896114     A.U. after   13 cycles
 SCF Done:  E(RHF) =  -492.841568443     A.U. after   14 cycles
 SCF Done:  E(RHF) =  -492.842564652     A.U. after   13 cycles
 SCF Done:  E(RHF) =  -492.842958367     A.U. after   13 cycles
 SCF Done:  E(RHF) =  -492.843014132     A.U. after   13 cycles
 SCF Done:  E(RHF) =  -492.843213330     A.U. after   11 cycles
 SCF Done:  E(RHF) =  -492.843441947     A.U. after   12 cycles
 SCF Done:  E(RHF) =  -492.843700850     A.U. after   14 cycles
 SCF Done:  E(RHF) =  -492.843912151     A.U. after   13 cycles
 SCF Done:  E(RHF) =  -492.844065356     A.U. after   12 cycles
 SCF Done:  E(RHF) =  -492.844097216     A.U. after   11 cycles
 SCF Done:  E(RHF) =  -492.844140758     A.U. after   11 cycles
 SCF Done:  E(RHF) =  -492.844146027     A.U. after   10 cycles
 SCF Done:  E(RHF) =  -492.844146438     A.U. after    9 cycles
 SCF Done:  E(RHF) =  -492.844146591     A.U. after    9 cycles
 SCF Done:  E(RHF) =  -492.844146662     A.U. after    9 cycles
 Optimization completed.
    -- Stationary point found.

                         Standard orientation:
 ---------------------------------------------------------------------
 Center     Atomic      Atomic             Coordinates (Angstroms)
 Number     Number       Type             X           Y           Z
 ---------------------------------------------------------------------
      1          1           0        3.877327   -1.508791   -0.405735
      2          6           0        2.948713   -1.555682    0.143190
      3          1           0        3.174067   -1.667724    1.199969
      4          1           0        2.380661   -2.423199   -0.174660
      5          6           0        2.184412   -0.263805   -0.081110
      6          8           0        2.715255    0.703720   -0.537469
      7          7           0        0.860151   -0.347680    0.271262
      8          1           0        0.667279   -1.142964    0.841447
      9          6           0       -0.081011    0.748794    0.514188
     10          1           0       -0.117752    0.946940    1.582871
     11          6           0        0.255939    2.057975   -0.201530
     12          1           0        0.354976    1.906114   -1.268712
     13          1           0       -0.554333    2.748843   -0.019996
     14          1           0        1.179210    2.477400    0.163775
     15          6           0       -1.517420    0.333712    0.156317
     16          8           0       -2.395153    1.150370    0.162370
     17          7           0       -1.763200   -0.992711   -0.008968
     18          1           0       -1.012608   -1.535954   -0.369392
     19          6           0       -3.100253   -1.425185   -0.369452
     20          1           0       -3.808503   -1.033406    0.344628
     21          1           0       -3.389825   -1.085516   -1.358298
     22          1           0       -3.132256   -2.506577   -0.340789
 ---------------------------------------------------------------------

 The electronic state is 1-A.
 Alpha  occ. eigenvalues --  -20.53484 -20.52961 -15.59804 -15.58927 -11.36090
 Alpha  occ. eigenvalues --  -11.34855 -11.28750 -11.25958 -11.24161 -11.20808
 Alpha  occ. eigenvalues --   -1.40374  -1.39831  -1.25564  -1.22816  -1.05756
 Alpha  occ. eigenvalues --   -0.99516  -0.96173  -0.88128  -0.79989  -0.76710
 Alpha  occ. eigenvalues --   -0.73265  -0.69950  -0.67251  -0.63845  -0.63096
 Alpha  occ. eigenvalues --   -0.62254  -0.60728  -0.59560  -0.57299  -0.55704
 Alpha  occ. eigenvalues --   -0.54585  -0.53271  -0.52671  -0.52053  -0.50346
 Alpha  occ. eigenvalues --   -0.44182  -0.42386  -0.39915  -0.39123
 Alpha virt. eigenvalues --    0.18338   0.19210   0.20119   0.24728   0.26593
 Alpha virt. eigenvalues --    0.28232   0.28535   0.30460   0.30625   0.31396
 Alpha virt. eigenvalues --    0.32767   0.33579   0.34386   0.35297   0.36464

 Mulliken atomic charges:
              1
     1  H    0.221141
     2  C   -0.595177
     3  H    0.193673
     4  H    0.178548
     5  C    0.751249
     6  O   -0.576883
     7  N   -0.847458
     8  H    0.377766
     9  C   -0.022201
    10  H    0.207734
    11  C   -0.491185
    12  H    0.179335
    13  H    0.203531
    14  H    0.203594
    15  C    0.762561
    16  O   -0.603988
    17  N   -0.800000
    18  H    0.387444
    19  C   -0.280623
    20  H    0.205292
    21  H    0.178158
    22  H    0.167488
 Sum of Mulliken atomic charges =   0.00000

 Dipole moment (field-independent basis, Debye):
    X=              0.3973    Y=             -5.0993    Z=              1.2513  Tot=              5.2656
 Quadrupole moment (field-independent basis, Debye-Ang):
   XX=            -70.5776   YY=            -58.6314   ZZ=            -59.1604
   XY=              0.5362   XZ=              5.5860   YZ=              1.4594

 Normal termination of Gaussian 09 at Fri Feb 10 02:27:02 2017.
