 Gaussian 09, Revision A.02,
 Gaussian 09:  EM64L-G09RevA.02 11-Jun-2009

 -------------------------------------------
 # HF/6-31G* Opt=(ModRedundant) geom=nocrowd
 -------------------------------------------

 ------------------
 Phi Psi fixed scan
 ------------------
 Symbolic Z-matrix:
 Charge =  0 Multiplicity = 1

 SCF Done:  E(RHF) =  -492.827666231     A.U. after   15 cycles
 SCF Done:  E(RHF) =  -492.842004385     A.U. after   15 cycles
 SCF Done:  E(RHF) =  -492.845498179     A.U. after   13 cycles
 SCF Done:  E(RHF) =  -492.845888749     A.U. after   14 cycles
 SCF Done:  E(RHF) =  -492.846911135     A.U. after   13 cycles
 SCF Done:  E(RHF) =  -492.847476520     A.U. after   13 cycles
 SCF Done:  E(RHF) =  -492.848323923     A.U. after   14 cycles
 SCF Done:  E(RHF) =  -492.848425482     A.U. after   13 cycles
 SCF Done:  E(RHF) =  -492.848632650     A.U. after   13 cycles
 SCF Done:  E(RHF) =  -492.848673838     A.U. after   12 cycles
 SCF Done:  E(RHF) =  -492.848863464     A.U. after   11 cycles
 SCF Done:  E(RHF) =  -492.848898652     A.U. after   11 cycles
 SCF Done:  E(RHF) =  -492.848838176     A.U. after   12 cycles
 SCF Done:  E(RHF) =  -492.848830977     A.U. after    9 cycles
 SCF Done:  E(RHF) =  -492.848894306     A.U. after   10 cycles
 SCF Done:  E(RHF) =  -492.848905254     A.U. after   11 cycles
 SCF Done:  E(RHF) =  -492.848936160     A.U. after   11 cycles
 SCF Done:  E(RHF) =  -492.848938576     A.U. after   10 cycles
 SCF Done:  E(RHF) =  -492.848939019     A.U. after    9 cycles
 SCF Done:  E(RHF) =  -492.848939042     A.U. after    8 cycles
 Optimization completed.
    -- Stationary point found.

                         Standard orientation:
 ---------------------------------------------------------------------
 Center     Atomic      Atomic             Coordinates (Angstroms)
 Number     Number       Type             X           Y           Z
 ---------------------------------------------------------------------
      1          1           0       -4.109989   -1.235654   -0.020004
      2          6           0       -3.058325   -1.428622    0.131612
      3          1           0       -2.753383   -2.282238   -0.463692
      4          1           0       -2.891021   -1.670045    1.177157
      5          6           0       -2.273037   -0.185977   -0.233822
      6          8           0       -2.800253    0.878725   -0.386025
      7          7           0       -0.934571   -0.400063   -0.410644
      8          1           0       -0.621247   -1.274020   -0.047462
      9          6           0        0.082926    0.645298   -0.322819
     10          1           0        0.240041    1.059922   -1.312727
     11          6           0       -0.223139    1.789876    0.651829
     12          1           0       -0.400118    1.396331    1.644956
     13          1           0        0.635472    2.454107    0.697977
     14          1           0       -1.084354    2.353743    0.333274
     15          6           0        1.356615   -0.043796    0.170821
     16          8           0        1.369860   -0.647220    1.211461
     17          7           0        2.423681    0.025957   -0.643853
     18          1           0        2.360480    0.560048   -1.478342
     19          6           0        3.704917   -0.535201   -0.267404
     20          1           0        3.587975   -1.570697    0.019794
     21          1           0        4.370450   -0.477222   -1.117859
     22          1           0        4.145328    0.002953    0.563606
 ---------------------------------------------------------------------

 The electronic state is 1-A.
 Alpha  occ. eigenvalues --  -20.53287 -20.52396 -15.59957 -15.58205 -11.35389
 Alpha  occ. eigenvalues --  -11.34667 -11.28376 -11.26707 -11.22914 -11.21416
 Alpha  occ. eigenvalues --   -1.40396  -1.39010  -1.24576  -1.23441  -1.05492
 Alpha  occ. eigenvalues --   -0.99048  -0.96684  -0.88202  -0.80346  -0.77194
 Alpha  occ. eigenvalues --   -0.73284  -0.67611  -0.66613  -0.64225  -0.63357
 Alpha  occ. eigenvalues --   -0.62148  -0.60549  -0.58542  -0.56684  -0.56400
 Alpha  occ. eigenvalues --   -0.55514  -0.54735  -0.52380  -0.51594  -0.50126
 Alpha  occ. eigenvalues --   -0.43016  -0.41184  -0.40210  -0.39199
 Alpha virt. eigenvalues --    0.19256   0.19935   0.21122   0.23222   0.25791
 Alpha virt. eigenvalues --    0.28165   0.29138   0.30540   0.31215   0.31335
 Alpha virt. eigenvalues --    0.32178   0.33263   0.33975   0.36422   0.37305

 Mulliken atomic charges:
              1
     1  H    0.213874
     2  C   -0.595596
     3  H    0.185128
     4  H    0.197913
     5  C    0.748704
     6  O   -0.597547
     7  N   -0.810870
     8  H    0.395668
     9  C    0.019032
    10  H    0.183238
    11  C   -0.517635
    12  H    0.190807
    13  H    0.157575
    14  H    0.231972
    15  C    0.731141
    16  O   -0.620603
    17  N   -0.789589
    18  H    0.392057
    19  C   -0.274030
    20  H    0.200471
    21  H    0.171745
    22  H    0.186543
 Sum of Mulliken atomic charges =   0.00000

 Dipole moment (field-independent basis, Debye):
    X=              3.2019    Y=             -1.0776    Z=             -2.0691  Tot=              3.9617
 Quadrupole moment (field-independent basis, Debye-Ang):
   XX=            -58.3502   YY=            -59.3460   ZZ=            -62.6217
   XY=             10.0252   XZ=             -8.8351   YZ=              1.1652

 Normal termination of Gaussian 09 at Fri Feb 10 02:50:38 2017.
