 Gaussian 09, Revision A.02,
 Gaussian 09:  EM64L-G09RevA.02 11-Jun-2009

 -------------------------------------------
 # HF/6-31G* Opt=(ModRedundant) geom=nocrowd
 -------------------------------------------

 ------------------
 Phi Psi fixed scan
 ------------------
 Symbolic Z-matrix:
 Charge =  0 Multiplicity = 1

 SCF Done:  E(RHF) =  -492.823835490     A.U. after   15 cycles
 SCF Done:  E(RHF) =  -492.839303955     A.U. after   15 cycles
 SCF Done:  E(RHF) =  -492.843516649     A.U. after   13 cycles
 SCF Done:  E(RHF) =  -492.843787333     A.U. after   13 cycles
 SCF Done:  E(RHF) =  -492.844334767     A.U. after   13 cycles
 SCF Done:  E(RHF) =  -492.844598472     A.U. after   12 cycles
 SCF Done:  E(RHF) =  -492.844699148     A.U. after   12 cycles
 SCF Done:  E(RHF) =  -492.844760623     A.U. after   13 cycles
 SCF Done:  E(RHF) =  -492.844851760     A.U. after   11 cycles
 SCF Done:  E(RHF) =  -492.844979695     A.U. after   13 cycles
 SCF Done:  E(RHF) =  -492.845142410     A.U. after   12 cycles
 SCF Done:  E(RHF) =  -492.845242721     A.U. after   12 cycles
 SCF Done:  E(RHF) =  -492.845303956     A.U. after   12 cycles
 SCF Done:  E(RHF) =  -492.845312877     A.U. after   11 cycles
 SCF Done:  E(RHF) =  -492.845318776     A.U. after   10 cycles
 SCF Done:  E(RHF) =  -492.845323401     A.U. after   10 cycles
 SCF Done:  E(RHF) =  -492.845328965     A.U. after   11 cycles
 SCF Done:  E(RHF) =  -492.845332358     A.U. after   11 cycles
 SCF Done:  E(RHF) =  -492.845333194     A.U. after   10 cycles
 SCF Done:  E(RHF) =  -492.845333268     A.U. after    8 cycles
 Optimization completed.
    -- Stationary point found.

                         Standard orientation:
 ---------------------------------------------------------------------
 Center     Atomic      Atomic             Coordinates (Angstroms)
 Number     Number       Type             X           Y           Z
 ---------------------------------------------------------------------
      1          1           0       -3.929280   -1.543313    0.235596
      2          6           0       -2.872137   -1.575494    0.453872
      3          1           0       -2.446214   -2.490945    0.057638
      4          1           0       -2.736624   -1.578105    1.531257
      5          6           0       -2.213936   -0.342756   -0.133252
      6          8           0       -2.849140    0.617730   -0.462572
      7          7           0       -0.861439   -0.443032   -0.267877
      8          1           0       -0.460236   -1.263745    0.126995
      9          6           0        0.070264    0.670221   -0.471462
     10          1           0        0.218631    0.806717   -1.538672
     11          6           0       -0.359260    2.002732    0.140529
     12          1           0       -0.529521    1.891896    1.202682
     13          1           0        0.441180    2.722588    0.002520
     14          1           0       -1.254548    2.375254   -0.328706
     15          6           0        1.389455    0.227392    0.176180
     16          8           0        1.616089    0.394842    1.341925
     17          7           0        2.237779   -0.429825   -0.643375
     18          1           0        2.046541   -0.444004   -1.618048
     19          6           0        3.533423   -0.887121   -0.185383
     20          1           0        3.424419   -1.431550    0.741378
     21          1           0        3.954221   -1.544857   -0.934066
     22          1           0        4.214603   -0.060366   -0.017543
 ---------------------------------------------------------------------

 The electronic state is 1-A.
 Alpha  occ. eigenvalues --  -20.53323 -20.52371 -15.59792 -15.58898 -11.35283
 Alpha  occ. eigenvalues --  -11.34969 -11.28512 -11.26662 -11.23232 -11.20701
 Alpha  occ. eigenvalues --   -1.40360  -1.39108  -1.24786  -1.23421  -1.05473
 Alpha  occ. eigenvalues --   -0.99049  -0.96806  -0.88002  -0.79982  -0.77738
 Alpha  occ. eigenvalues --   -0.73288  -0.68005  -0.66782  -0.64791  -0.63048
 Alpha  occ. eigenvalues --   -0.62198  -0.60600  -0.58793  -0.56748  -0.56342
 Alpha  occ. eigenvalues --   -0.54833  -0.54208  -0.52541  -0.51381  -0.50256
 Alpha  occ. eigenvalues --   -0.43403  -0.41136  -0.40175  -0.38964
 Alpha virt. eigenvalues --    0.18566   0.20570   0.21058   0.22372   0.25897
 Alpha virt. eigenvalues --    0.27895   0.28525   0.30657   0.30922   0.31103
 Alpha virt. eigenvalues --    0.32705   0.33332   0.34401   0.36536   0.37190

 Mulliken atomic charges:
              1
     1  H    0.215560
     2  C   -0.593640
     3  H    0.177828
     4  H    0.199662
     5  C    0.757272
     6  O   -0.597260
     7  N   -0.824632
     8  H    0.389951
     9  C    0.025071
    10  H    0.177646
    11  C   -0.500787
    12  H    0.193227
    13  H    0.159378
    14  H    0.223504
    15  C    0.712434
    16  O   -0.598024
    17  N   -0.789877
    18  H    0.390125
    19  C   -0.274349
    20  H    0.202204
    21  H    0.171023
    22  H    0.183683
 Sum of Mulliken atomic charges =   0.00000

 Dipole moment (field-independent basis, Debye):
    X=              2.7742    Y=             -3.2717    Z=             -2.2233  Tot=              4.8315
 Quadrupole moment (field-independent basis, Debye-Ang):
   XX=            -63.0863   YY=            -57.5312   ZZ=            -62.4012
   XY=              3.8880   XZ=            -10.6319   YZ=             -1.3317

 Normal termination of Gaussian 09 at Fri Feb 10 02:40:31 2017.
