 Gaussian 09, Revision A.02,
 Gaussian 09:  EM64L-G09RevA.02 11-Jun-2009

 -------------------------------------------
 # HF/6-31G* Opt=(ModRedundant) geom=nocrowd
 -------------------------------------------

 ------------------
 Phi Psi fixed scan
 ------------------
 Symbolic Z-matrix:
 Charge =  0 Multiplicity = 1

 SCF Done:  E(RHF) =  -492.821523164     A.U. after   15 cycles
 SCF Done:  E(RHF) =  -492.837276425     A.U. after   14 cycles
 SCF Done:  E(RHF) =  -492.841944228     A.U. after   13 cycles
 SCF Done:  E(RHF) =  -492.842989106     A.U. after   13 cycles
 SCF Done:  E(RHF) =  -492.843552049     A.U. after   13 cycles
 SCF Done:  E(RHF) =  -492.844208006     A.U. after   13 cycles
 SCF Done:  E(RHF) =  -492.844528438     A.U. after   13 cycles
 SCF Done:  E(RHF) =  -492.844619469     A.U. after   13 cycles
 SCF Done:  E(RHF) =  -492.844672260     A.U. after   11 cycles
 SCF Done:  E(RHF) =  -492.844754102     A.U. after   12 cycles
 SCF Done:  E(RHF) =  -492.845155280     A.U. after   12 cycles
 SCF Done:  E(RHF) =  -492.845204875     A.U. after   11 cycles
 SCF Done:  E(RHF) =  -492.845253574     A.U. after   12 cycles
 SCF Done:  E(RHF) =  -492.845277147     A.U. after   12 cycles
 SCF Done:  E(RHF) =  -492.845284119     A.U. after   11 cycles
 SCF Done:  E(RHF) =  -492.845286416     A.U. after    9 cycles
 SCF Done:  E(RHF) =  -492.845287089     A.U. after    9 cycles
 SCF Done:  E(RHF) =  -492.845287579     A.U. after    8 cycles
 SCF Done:  E(RHF) =  -492.845288440     A.U. after   10 cycles
 SCF Done:  E(RHF) =  -492.845288604     A.U. after    9 cycles
 Optimization completed.
    -- Stationary point found.

                         Standard orientation:
 ---------------------------------------------------------------------
 Center     Atomic      Atomic             Coordinates (Angstroms)
 Number     Number       Type             X           Y           Z
 ---------------------------------------------------------------------
      1          1           0       -3.807950   -1.663660    0.375111
      2          6           0       -2.745252   -1.634581    0.565102
      3          1           0       -2.281333   -2.534830    0.176796
      4          1           0       -2.583435   -1.606656    1.638534
      5          6           0       -2.170953   -0.379572   -0.063001
      6          8           0       -2.865810    0.545613   -0.371003
      7          7           0       -0.822115   -0.421181   -0.253470
      8          1           0       -0.366324   -1.224992    0.115201
      9          6           0        0.057645    0.724068   -0.518933
     10          1           0        0.177457    0.829397   -1.594886
     11          6           0       -0.419179    2.055431    0.053679
     12          1           0       -0.581664    1.977248    1.120799
     13          1           0        0.350688    2.798797   -0.110886
     14          1           0       -1.333603    2.371943   -0.419818
     15          6           0        1.428335    0.365254    0.075591
     16          8           0        1.942671    0.988773    0.957275
     17          7           0        1.995658   -0.751613   -0.454222
     18          1           0        1.648462   -1.074030   -1.329576
     19          6           0        3.336058   -1.154185   -0.076265
     20          1           0        3.416686   -1.172676    1.000123
     21          1           0        3.522196   -2.148216   -0.460861
     22          1           0        4.089198   -0.476345   -0.463905
 ---------------------------------------------------------------------

 The electronic state is 1-A.
 Alpha  occ. eigenvalues --  -20.53921 -20.52500 -15.59723 -15.59054 -11.35539
 Alpha  occ. eigenvalues --  -11.35154 -11.28621 -11.26675 -11.23455 -11.20446
 Alpha  occ. eigenvalues --   -1.40779  -1.39278  -1.25329  -1.23087  -1.05503
 Alpha  occ. eigenvalues --   -0.99054  -0.96891  -0.87899  -0.79791  -0.77917
 Alpha  occ. eigenvalues --   -0.73445  -0.67966  -0.66953  -0.65323  -0.63064
 Alpha  occ. eigenvalues --   -0.62354  -0.60650  -0.59060  -0.56933  -0.56324
 Alpha  occ. eigenvalues --   -0.54636  -0.53746  -0.52677  -0.51684  -0.50236
 Alpha  occ. eigenvalues --   -0.43937  -0.41578  -0.40082  -0.39179
 Alpha virt. eigenvalues --    0.18020   0.20237   0.21651   0.22985   0.26325
 Alpha virt. eigenvalues --    0.27231   0.28333   0.30364   0.30532   0.30853
 Alpha virt. eigenvalues --    0.32896   0.33485   0.34216   0.36039   0.36856

 Mulliken atomic charges:
              1
     1  H    0.216438
     2  C   -0.592345
     3  H    0.175817
     4  H    0.197983
     5  C    0.757455
     6  O   -0.594723
     7  N   -0.838689
     8  H    0.392412
     9  C    0.007716
    10  H    0.187461
    11  C   -0.486611
    12  H    0.178829
    13  H    0.174243
    14  H    0.218871
    15  C    0.718618
    16  O   -0.585440
    17  N   -0.793626
    18  H    0.386273
    19  C   -0.277890
    20  H    0.206588
    21  H    0.171150
    22  H    0.179469
 Sum of Mulliken atomic charges =   0.00000

 Dipole moment (field-independent basis, Debye):
    X=              2.1666    Y=             -4.4184    Z=             -1.5721  Tot=              5.1660
 Quadrupole moment (field-independent basis, Debye-Ang):
   XX=            -67.5807   YY=            -58.3017   ZZ=            -60.2598
   XY=              0.3186   XZ=             -8.9231   YZ=             -2.0055

 Normal termination of Gaussian 09 at Fri Feb 10 02:34:14 2017.
