 Gaussian 09, Revision A.02,
 Gaussian 09:  EM64L-G09RevA.02 11-Jun-2009

 -------------------------------------------
 # HF/6-31G* Opt=(ModRedundant) geom=nocrowd
 -------------------------------------------

 ------------------
 Phi Psi fixed scan
 ------------------
 Symbolic Z-matrix:
 Charge =  0 Multiplicity = 1

 SCF Done:  E(RHF) =  -492.832176420     A.U. after   15 cycles
 SCF Done:  E(RHF) =  -492.844858005     A.U. after   15 cycles
 SCF Done:  E(RHF) =  -492.849456204     A.U. after   12 cycles
 SCF Done:  E(RHF) =  -492.850751042     A.U. after   13 cycles
 SCF Done:  E(RHF) =  -492.851199576     A.U. after   16 cycles
 SCF Done:  E(RHF) =  -492.851780639     A.U. after   12 cycles
 SCF Done:  E(RHF) =  -492.851855978     A.U. after   12 cycles
 SCF Done:  E(RHF) =  -492.851899738     A.U. after   12 cycles
 SCF Done:  E(RHF) =  -492.851943350     A.U. after   11 cycles
 SCF Done:  E(RHF) =  -492.851953709     A.U. after   11 cycles
 SCF Done:  E(RHF) =  -492.852344677     A.U. after   11 cycles
 SCF Done:  E(RHF) =  -492.852369717     A.U. after   11 cycles
 SCF Done:  E(RHF) =  -492.852398961     A.U. after   12 cycles
 SCF Done:  E(RHF) =  -492.852425359     A.U. after   12 cycles
 SCF Done:  E(RHF) =  -492.852424301     A.U. after   12 cycles
 SCF Done:  E(RHF) =  -492.852436799     A.U. after   11 cycles
 SCF Done:  E(RHF) =  -492.852441445     A.U. after   11 cycles
 SCF Done:  E(RHF) =  -492.852446888     A.U. after   11 cycles
 SCF Done:  E(RHF) =  -492.852448084     A.U. after   10 cycles
 SCF Done:  E(RHF) =  -492.852448099     A.U. after    7 cycles
 Optimization completed.
    -- Stationary point found.

                         Standard orientation:
 ---------------------------------------------------------------------
 Center     Atomic      Atomic             Coordinates (Angstroms)
 Number     Number       Type             X           Y           Z
 ---------------------------------------------------------------------
      1          1           0       -4.215985   -0.986815    0.179732
      2          6           0       -3.174408   -1.260617    0.261747
      3          1           0       -2.964555   -2.102476   -0.388327
      4          1           0       -2.972103   -1.566352    1.283917
      5          6           0       -2.322324   -0.054243   -0.080239
      6          8           0       -2.776821    1.057364   -0.077464
      7          7           0       -1.039657   -0.360239   -0.399061
      8          1           0       -0.759218   -1.307243   -0.261977
      9          6           0        0.090701    0.545384   -0.468066
     10          1           0        0.217834    0.900184   -1.488187
     11          6           0       -0.019626    1.760561    0.467363
     12          1           0       -0.094942    1.437581    1.500172
     13          1           0        0.855297    2.393507    0.375017
     14          1           0       -0.892419    2.343390    0.227742
     15          6           0        1.331672   -0.288741   -0.108064
     16          8           0        1.253704   -1.459124    0.163732
     17          7           0        2.506853    0.365549   -0.111345
     18          1           0        2.541803    1.303224   -0.434671
     19          6           0        3.754989   -0.326686    0.138374
     20          1           0        3.693534   -0.880088    1.064322
     21          1           0        3.994221   -1.019451   -0.660099
     22          1           0        4.545076    0.407504    0.218386
 ---------------------------------------------------------------------

 The electronic state is 1-A.
 Alpha  occ. eigenvalues --  -20.53979 -20.51565 -15.59798 -15.57419 -11.35851
 Alpha  occ. eigenvalues --  -11.34261 -11.28784 -11.26730 -11.22430 -11.22255
 Alpha  occ. eigenvalues --   -1.40953  -1.38260  -1.24636  -1.23197  -1.05740
 Alpha  occ. eigenvalues --   -0.98835  -0.96141  -0.89189  -0.80898  -0.76540
 Alpha  occ. eigenvalues --   -0.73269  -0.68101  -0.66286  -0.65038  -0.63367
 Alpha  occ. eigenvalues --   -0.61818  -0.59891  -0.58586  -0.56683  -0.56255
 Alpha  occ. eigenvalues --   -0.55709  -0.54960  -0.52796  -0.52254  -0.49917
 Alpha  occ. eigenvalues --   -0.43274  -0.40939  -0.40403  -0.38305
 Alpha virt. eigenvalues --    0.18602   0.20622   0.21443   0.24809   0.25783
 Alpha virt. eigenvalues --    0.28248   0.28915   0.30424   0.31351   0.31750
 Alpha virt. eigenvalues --    0.32766   0.33425   0.34609   0.35750   0.37491

 Mulliken atomic charges:
              1
     1  H    0.210356
     2  C   -0.589061
     3  H    0.182963
     4  H    0.195114
     5  C    0.754813
     6  O   -0.613043
     7  N   -0.838088
     8  H    0.424245
     9  C   -0.001406
    10  H    0.199340
    11  C   -0.509302
    12  H    0.176180
    13  H    0.144395
    14  H    0.246706
    15  C    0.767602
    16  O   -0.631212
    17  N   -0.798239
    18  H    0.391710
    19  C   -0.270755
    20  H    0.202560
    21  H    0.183738
    22  H    0.171385
 Sum of Mulliken atomic charges =   0.00000

 Dipole moment (field-independent basis, Debye):
    X=              3.6274    Y=              0.3736    Z=             -0.4334  Tot=              3.6722
 Quadrupole moment (field-independent basis, Debye-Ang):
   XX=            -57.3037   YY=            -63.3343   ZZ=            -60.0180
   XY=             13.9101   XZ=             -2.5256   YZ=             -0.4762

 Normal termination of Gaussian 09 at Fri Feb 10 03:04:34 2017.
