 Gaussian 09, Revision A.02,
 Gaussian 09:  EM64L-G09RevA.02 11-Jun-2009

 -------------------------------------------
 # HF/6-31G* Opt=(ModRedundant) geom=nocrowd
 -------------------------------------------

 ------------------
 Phi Psi fixed scan
 ------------------
 Symbolic Z-matrix:
 Charge =  0 Multiplicity = 1

 SCF Done:  E(RHF) =  -492.823622858     A.U. after   15 cycles
 SCF Done:  E(RHF) =  -492.844084658     A.U. after   15 cycles
 SCF Done:  E(RHF) =  -492.846904549     A.U. after   13 cycles
 SCF Done:  E(RHF) =  -492.848668955     A.U. after   12 cycles
 SCF Done:  E(RHF) =  -492.848681102     A.U. after   12 cycles
 SCF Done:  E(RHF) =  -492.848954827     A.U. after   12 cycles
 SCF Done:  E(RHF) =  -492.848985706     A.U. after   10 cycles
 SCF Done:  E(RHF) =  -492.848983572     A.U. after   12 cycles
 SCF Done:  E(RHF) =  -492.849000962     A.U. after    9 cycles
 SCF Done:  E(RHF) =  -492.849003515     A.U. after    9 cycles
 SCF Done:  E(RHF) =  -492.849147837     A.U. after   11 cycles
 SCF Done:  E(RHF) =  -492.849290308     A.U. after   11 cycles
 SCF Done:  E(RHF) =  -492.849463428     A.U. after   16 cycles
 SCF Done:  E(RHF) =  -492.849508898     A.U. after   11 cycles
 SCF Done:  E(RHF) =  -492.849490133     A.U. after   11 cycles
 SCF Done:  E(RHF) =  -492.849523208     A.U. after   11 cycles
 SCF Done:  E(RHF) =  -492.849525943     A.U. after   10 cycles
 SCF Done:  E(RHF) =  -492.849526211     A.U. after    9 cycles
 SCF Done:  E(RHF) =  -492.849526250     A.U. after    7 cycles
 SCF Done:  E(RHF) =  -492.849526255     A.U. after    7 cycles
 Optimization completed.
    -- Stationary point found.

                         Standard orientation:
 ---------------------------------------------------------------------
 Center     Atomic      Atomic             Coordinates (Angstroms)
 Number     Number       Type             X           Y           Z
 ---------------------------------------------------------------------
      1          1           0        3.867802   -1.013493   -1.170700
      2          6           0        3.119069   -1.294737   -0.444160
      3          1           0        3.625147   -1.601319    0.466122
      4          1           0        2.545971   -2.136130   -0.815615
      5          6           0        2.257399   -0.083010   -0.142705
      6          8           0        2.692388    1.030851   -0.259602
      7          7           0        1.012050   -0.390367    0.287712
      8          1           0        0.783484   -1.353960    0.391643
      9          6           0       -0.073745    0.493042    0.688829
     10          1           0       -0.087846    0.567734    1.774009
     11          6           0        0.008268    1.908246    0.119709
     12          1           0        0.013539    1.906937   -0.964539
     13          1           0       -0.840008    2.485749    0.474667
     14          1           0        0.909056    2.398074    0.447333
     15          6           0       -1.352873   -0.283221    0.331020
     16          8           0       -1.429334   -1.450735    0.623519
     17          7           0       -2.350939    0.363603   -0.288894
     18          1           0       -2.218648    1.295374   -0.599143
     19          6           0       -3.570140   -0.325930   -0.660188
     20          1           0       -3.999070   -0.818246    0.201113
     21          1           0       -4.274820    0.401509   -1.039651
     22          1           0       -3.384680   -1.072148   -1.423337
 ---------------------------------------------------------------------

 The electronic state is 1-A.
 Alpha  occ. eigenvalues --  -20.53055 -20.51527 -15.59780 -15.58131 -11.35387
 Alpha  occ. eigenvalues --  -11.34597 -11.28817 -11.26566 -11.22672 -11.22498
 Alpha  occ. eigenvalues --   -1.40251  -1.38321  -1.24434  -1.23479  -1.05936
 Alpha  occ. eigenvalues --   -0.98941  -0.96085  -0.89792  -0.80792  -0.76699
 Alpha  occ. eigenvalues --   -0.73062  -0.68882  -0.66146  -0.65206  -0.62774
 Alpha  occ. eigenvalues --   -0.61838  -0.59437  -0.58725  -0.56675  -0.56217
 Alpha  occ. eigenvalues --   -0.55832  -0.54681  -0.53227  -0.52285  -0.50371
 Alpha  occ. eigenvalues --   -0.43190  -0.40823  -0.40003  -0.38135
 Alpha virt. eigenvalues --    0.18762   0.21111   0.22081   0.24431   0.25710
 Alpha virt. eigenvalues --    0.27710   0.29287   0.30048   0.30583   0.32126
 Alpha virt. eigenvalues --    0.32584   0.33310   0.34557   0.35843   0.36739

 Mulliken atomic charges:
              1
     1  H    0.210160
     2  C   -0.584379
     3  H    0.199201
     4  H    0.177335
     5  C    0.757386
     6  O   -0.616276
     7  N   -0.839599
     8  H    0.416898
     9  C    0.020851
    10  H    0.204895
    11  C   -0.527757
    12  H    0.176639
    13  H    0.151676
    14  H    0.243321
    15  C    0.764580
    16  O   -0.637841
    17  N   -0.808203
    18  H    0.404586
    19  C   -0.271163
    20  H    0.200389
    21  H    0.170241
    22  H    0.187060
 Sum of Mulliken atomic charges =   0.00000

 Dipole moment (field-independent basis, Debye):
    X=             -2.6964    Y=              0.4213    Z=             -0.7803  Tot=              2.8384
 Quadrupole moment (field-independent basis, Debye-Ang):
   XX=            -59.2318   YY=            -63.2091   ZZ=            -59.5521
   XY=            -14.0844   XZ=              4.6905   YZ=              2.4582

 Normal termination of Gaussian 09 at Fri Feb 10 03:18:12 2017.
