 Gaussian 09, Revision A.02,
 Gaussian 09:  EM64L-G09RevA.02 11-Jun-2009

 -------------------------------------------
 # HF/6-31G* Opt=(ModRedundant) geom=nocrowd
 -------------------------------------------

 ------------------
 Phi Psi fixed scan
 ------------------
 Symbolic Z-matrix:
 Charge =  0 Multiplicity = 1

 SCF Done:  E(RHF) =  -492.821060612     A.U. after   15 cycles
 SCF Done:  E(RHF) =  -492.838810007     A.U. after   16 cycles
 SCF Done:  E(RHF) =  -492.843974231     A.U. after   13 cycles
 SCF Done:  E(RHF) =  -492.845274960     A.U. after   13 cycles
 SCF Done:  E(RHF) =  -492.845416464     A.U. after   13 cycles
 SCF Done:  E(RHF) =  -492.845851308     A.U. after   13 cycles
 SCF Done:  E(RHF) =  -492.846003372     A.U. after   12 cycles
 SCF Done:  E(RHF) =  -492.846022347     A.U. after   12 cycles
 SCF Done:  E(RHF) =  -492.846067400     A.U. after   11 cycles
 SCF Done:  E(RHF) =  -492.846081040     A.U. after   11 cycles
 SCF Done:  E(RHF) =  -492.846497464     A.U. after   11 cycles
 SCF Done:  E(RHF) =  -492.846519392     A.U. after   11 cycles
 SCF Done:  E(RHF) =  -492.846546299     A.U. after   12 cycles
 SCF Done:  E(RHF) =  -492.846552297     A.U. after   10 cycles
 SCF Done:  E(RHF) =  -492.846558753     A.U. after   11 cycles
 SCF Done:  E(RHF) =  -492.846563257     A.U. after   11 cycles
 SCF Done:  E(RHF) =  -492.846567855     A.U. after   11 cycles
 SCF Done:  E(RHF) =  -492.846568522     A.U. after   10 cycles
 SCF Done:  E(RHF) =  -492.846568697     A.U. after    9 cycles
 SCF Done:  E(RHF) =  -492.846568706     A.U. after    8 cycles
 Optimization completed.
    -- Stationary point found.

                         Standard orientation:
 ---------------------------------------------------------------------
 Center     Atomic      Atomic             Coordinates (Angstroms)
 Number     Number       Type             X           Y           Z
 ---------------------------------------------------------------------
      1          1           0        3.781303   -1.319326   -0.977235
      2          6           0        2.989700   -1.466609   -0.257318
      3          1           0        3.436755   -1.670113    0.711212
      4          1           0        2.391217   -2.324736   -0.541490
      5          6           0        2.167849   -0.194703   -0.171122
      6          8           0        2.607301    0.860654   -0.532038
      7          7           0        0.924949   -0.378634    0.349095
      8          1           0        0.740961   -1.281197    0.729630
      9          6           0       -0.064410    0.625454    0.740002
     10          1           0       -0.008717    0.775261    1.811785
     11          6           0        0.076019    1.983105    0.052752
     12          1           0        0.148227    1.902014   -1.024208
     13          1           0       -0.791447    2.585370    0.302468
     14          1           0        0.963946    2.493328    0.389441
     15          6           0       -1.421780   -0.052967    0.514586
     16          8           0       -1.909161   -0.721230    1.388495
     17          7           0       -1.992208    0.087354   -0.695954
     18          1           0       -1.487925    0.547840   -1.415920
     19          6           0       -3.203072   -0.624780   -1.045152
     20          1           0       -3.946571   -0.486533   -0.273740
     21          1           0       -3.582887   -0.226974   -1.976658
     22          1           0       -3.025013   -1.688373   -1.161417
 ---------------------------------------------------------------------

 The electronic state is 1-A.
 Alpha  occ. eigenvalues --  -20.52828 -20.52543 -15.59251 -15.59039 -11.35434
 Alpha  occ. eigenvalues --  -11.34740 -11.28512 -11.26191 -11.23466 -11.22400
 Alpha  occ. eigenvalues --   -1.39862  -1.39227  -1.24619  -1.23374  -1.06024
 Alpha  occ. eigenvalues --   -0.99429  -0.95895  -0.89593  -0.79876  -0.77497
 Alpha  occ. eigenvalues --   -0.72765  -0.69418  -0.66620  -0.64519  -0.62656
 Alpha  occ. eigenvalues --   -0.62163  -0.59540  -0.59062  -0.56959  -0.56241
 Alpha  occ. eigenvalues --   -0.55625  -0.54188  -0.53634  -0.52108  -0.51269
 Alpha  occ. eigenvalues --   -0.43219  -0.41605  -0.39388  -0.38686
 Alpha virt. eigenvalues --    0.19017   0.20383   0.21779   0.22878   0.25813
 Alpha virt. eigenvalues --    0.27351   0.28911   0.29890   0.30359   0.31664
 Alpha virt. eigenvalues --    0.32863   0.33020   0.34562   0.35235   0.37309

 Mulliken atomic charges:
              1
     1  H    0.215235
     2  C   -0.590108
     3  H    0.198560
     4  H    0.179703
     5  C    0.752082
     6  O   -0.602154
     7  N   -0.835080
     8  H    0.397139
     9  C    0.005202
    10  H    0.210770
    11  C   -0.497431
    12  H    0.169078
    13  H    0.169874
    14  H    0.218941
    15  C    0.738408
    16  O   -0.617104
    17  N   -0.788650
    18  H    0.396292
    19  C   -0.271638
    20  H    0.203595
    21  H    0.170152
    22  H    0.177133
 Sum of Mulliken atomic charges =   0.00000

 Dipole moment (field-independent basis, Debye):
    X=             -0.7005    Y=             -1.1741    Z=             -1.7997  Tot=              2.2601
 Quadrupole moment (field-independent basis, Debye-Ang):
   XX=            -65.0056   YY=            -59.3849   ZZ=            -61.3839
   XY=            -10.1829   XZ=             10.9067   YZ=              3.3910

 Normal termination of Gaussian 09 at Fri Feb 10 03:39:59 2017.
