 Gaussian 09, Revision A.02,
 Gaussian 09:  EM64L-G09RevA.02 11-Jun-2009

 -------------------------------------------
 # HF/6-31G* Opt=(ModRedundant) geom=nocrowd
 -------------------------------------------

 ------------------
 Phi Psi fixed scan
 ------------------
 Symbolic Z-matrix:
 Charge =  0 Multiplicity = 1

 SCF Done:  E(RHF) =  -492.819468310     A.U. after   15 cycles
 SCF Done:  E(RHF) =  -492.834181375     A.U. after   14 cycles
 SCF Done:  E(RHF) =  -492.838963045     A.U. after   13 cycles
 SCF Done:  E(RHF) =  -492.840617783     A.U. after   13 cycles
 SCF Done:  E(RHF) =  -492.841756519     A.U. after   16 cycles
 SCF Done:  E(RHF) =  -492.843088021     A.U. after   13 cycles
 SCF Done:  E(RHF) =  -492.843758394     A.U. after   13 cycles
 SCF Done:  E(RHF) =  -492.843849152     A.U. after   13 cycles
 SCF Done:  E(RHF) =  -492.844038664     A.U. after   12 cycles
 SCF Done:  E(RHF) =  -492.844222722     A.U. after   11 cycles
 SCF Done:  E(RHF) =  -492.844567362     A.U. after   12 cycles
 SCF Done:  E(RHF) =  -492.844719076     A.U. after   12 cycles
 SCF Done:  E(RHF) =  -492.844754510     A.U. after   12 cycles
 SCF Done:  E(RHF) =  -492.844789947     A.U. after   12 cycles
 SCF Done:  E(RHF) =  -492.844795247     A.U. after   10 cycles
 SCF Done:  E(RHF) =  -492.844796003     A.U. after    9 cycles
 SCF Done:  E(RHF) =  -492.844796400     A.U. after    8 cycles
 SCF Done:  E(RHF) =  -492.844796849     A.U. after    9 cycles
 SCF Done:  E(RHF) =  -492.844796993     A.U. after    8 cycles
 SCF Done:  E(RHF) =  -492.844797026     A.U. after    8 cycles
 Optimization completed.
    -- Stationary point found.

                         Standard orientation:
 ---------------------------------------------------------------------
 Center     Atomic      Atomic             Coordinates (Angstroms)
 Number     Number       Type             X           Y           Z
 ---------------------------------------------------------------------
      1          1           0       -3.800481   -1.634650    0.434740
      2          6           0       -2.730296   -1.619137    0.578157
      3          1           0       -2.293960   -2.521764    0.164267
      4          1           0       -2.520613   -1.600276    1.643664
      5          6           0       -2.167493   -0.370115   -0.071352
      6          8           0       -2.866449    0.550752   -0.379459
      7          7           0       -0.819306   -0.418201   -0.295252
      8          1           0       -0.367153   -1.187218    0.146586
      9          6           0        0.052121    0.748687   -0.500376
     10          1           0        0.149311    0.920550   -1.569920
     11          6           0       -0.422963    2.041373    0.159061
     12          1           0       -0.558841    1.901239    1.224959
     13          1           0        0.333282    2.801522    0.018757
     14          1           0       -1.353532    2.371233   -0.271965
     15          6           0        1.450224    0.387309    0.026294
     16          8           0        2.088695    1.120177    0.722861
     17          7           0        1.905852   -0.843438   -0.341188
     18          1           0        1.479718   -1.266192   -1.136054
     19          6           0        3.269216   -1.236011   -0.038893
     20          1           0        3.459901   -1.091263    1.013650
     21          1           0        3.388802   -2.284482   -0.277701
     22          1           0        3.994923   -0.657304   -0.600458
 ---------------------------------------------------------------------

 The electronic state is 1-A.
 Alpha  occ. eigenvalues --  -20.54041 -20.52841 -15.59726 -15.59055 -11.35677
 Alpha  occ. eigenvalues --  -11.35298 -11.28642 -11.26639 -11.23614 -11.20479
 Alpha  occ. eigenvalues --   -1.40919  -1.39563  -1.25527  -1.22968  -1.05485
 Alpha  occ. eigenvalues --   -0.99151  -0.96871  -0.87873  -0.79847  -0.77815
 Alpha  occ. eigenvalues --   -0.73624  -0.67429  -0.67148  -0.65446  -0.63184
 Alpha  occ. eigenvalues --   -0.62480  -0.60598  -0.59225  -0.57127  -0.56312
 Alpha  occ. eigenvalues --   -0.54995  -0.53908  -0.52573  -0.51751  -0.50140
 Alpha  occ. eigenvalues --   -0.43949  -0.41747  -0.40253  -0.39567
 Alpha virt. eigenvalues --    0.17966   0.19870   0.21830   0.23388   0.26641
 Alpha virt. eigenvalues --    0.26930   0.28500   0.29971   0.30475   0.30801
 Alpha virt. eigenvalues --    0.32882   0.33537   0.33849   0.35811   0.36883

 Mulliken atomic charges:
              1
     1  H    0.217680
     2  C   -0.594878
     3  H    0.179338
     4  H    0.195359
     5  C    0.755582
     6  O   -0.589335
     7  N   -0.842546
     8  H    0.391675
     9  C   -0.005039
    10  H    0.199928
    11  C   -0.492460
    12  H    0.168196
    13  H    0.186101
    14  H    0.220944
    15  C    0.728699
    16  O   -0.586662
    17  N   -0.798278
    18  H    0.386964
    19  C   -0.278261
    20  H    0.206870
    21  H    0.171209
    22  H    0.178915
 Sum of Mulliken atomic charges =   0.00000

 Dipole moment (field-independent basis, Debye):
    X=              1.7700    Y=             -4.6152    Z=             -0.9748  Tot=              5.0382
 Quadrupole moment (field-independent basis, Debye-Ang):
   XX=            -69.0370   YY=            -58.6281   ZZ=            -59.7510
   XY=             -0.6780   XZ=             -8.0741   YZ=             -1.6979

 Normal termination of Gaussian 09 at Fri Feb 10 02:31:44 2017.
