 Gaussian 09, Revision A.02,
 Gaussian 09:  EM64L-G09RevA.02 11-Jun-2009

 -------------------------------------------
 # HF/6-31G* Opt=(ModRedundant) geom=nocrowd
 -------------------------------------------

 ------------------
 Phi Psi fixed scan
 ------------------
 Symbolic Z-matrix:
 Charge =  0 Multiplicity = 1

 SCF Done:  E(RHF) =  -492.828303745     A.U. after   15 cycles
 SCF Done:  E(RHF) =  -492.842612703     A.U. after   16 cycles
 SCF Done:  E(RHF) =  -492.846706415     A.U. after   13 cycles
 SCF Done:  E(RHF) =  -492.847311759     A.U. after   16 cycles
 SCF Done:  E(RHF) =  -492.848021420     A.U. after   13 cycles
 SCF Done:  E(RHF) =  -492.848404066     A.U. after   12 cycles
 SCF Done:  E(RHF) =  -492.848494671     A.U. after   13 cycles
 SCF Done:  E(RHF) =  -492.848552044     A.U. after   12 cycles
 SCF Done:  E(RHF) =  -492.848586192     A.U. after   11 cycles
 SCF Done:  E(RHF) =  -492.848616633     A.U. after   12 cycles
 SCF Done:  E(RHF) =  -492.848861557     A.U. after   12 cycles
 SCF Done:  E(RHF) =  -492.848788787     A.U. after   12 cycles
 SCF Done:  E(RHF) =  -492.848847297     A.U. after   11 cycles
 SCF Done:  E(RHF) =  -492.848858021     A.U. after   10 cycles
 SCF Done:  E(RHF) =  -492.848863860     A.U. after   10 cycles
 SCF Done:  E(RHF) =  -492.848901955     A.U. after   12 cycles
 SCF Done:  E(RHF) =  -492.848901280     A.U. after   11 cycles
 SCF Done:  E(RHF) =  -492.848905411     A.U. after   11 cycles
 SCF Done:  E(RHF) =  -492.848909312     A.U. after   10 cycles
 SCF Done:  E(RHF) =  -492.848909340     A.U. after    8 cycles
 Optimization completed.
    -- Stationary point found.

                         Standard orientation:
 ---------------------------------------------------------------------
 Center     Atomic      Atomic             Coordinates (Angstroms)
 Number     Number       Type             X           Y           Z
 ---------------------------------------------------------------------
      1          1           0        3.824309   -1.519482   -0.336156
      2          6           0        2.995887   -1.431622    0.351159
      3          1           0        3.391302   -1.297553    1.353683
      4          1           0        2.411039   -2.344711    0.337507
      5          6           0        2.174204   -0.214600   -0.030051
      6          8           0        2.631085    0.661575   -0.706059
      7          7           0        0.906160   -0.227290    0.471002
      8          1           0        0.715562   -0.956650    1.122119
      9          6           0       -0.085723    0.844794    0.470166
     10          1           0       -0.041720    1.381758    1.410042
     11          6           0        0.044443    1.855516   -0.675029
     12          1           0        0.052806    1.365905   -1.640883
     13          1           0       -0.810115    2.521400   -0.628097
     14          1           0        0.948959    2.434395   -0.586677
     15          6           0       -1.492917    0.243274    0.422027
     16          8           0       -2.373172    0.689574    1.106744
     17          7           0       -1.684443   -0.757461   -0.459351
     18          1           0       -0.924687   -1.034369   -1.035906
     19          6           0       -2.998951   -1.311261   -0.702849
     20          1           0       -3.469865   -1.575865    0.233331
     21          1           0       -3.640403   -0.606190   -1.219460
     22          1           0       -2.894168   -2.201172   -1.309080
 ---------------------------------------------------------------------

 The electronic state is 1-A.
 Alpha  occ. eigenvalues --  -20.53070 -20.52544 -15.59735 -15.58867 -11.35894
 Alpha  occ. eigenvalues --  -11.34530 -11.28427 -11.26169 -11.23978 -11.22015
 Alpha  occ. eigenvalues --   -1.40022  -1.39340  -1.25348  -1.22915  -1.06083
 Alpha  occ. eigenvalues --   -0.99694  -0.96135  -0.88901  -0.79700  -0.77887
 Alpha  occ. eigenvalues --   -0.73252  -0.69365  -0.67158  -0.63472  -0.62961
 Alpha  occ. eigenvalues --   -0.62427  -0.59932  -0.59659  -0.57261  -0.56229
 Alpha  occ. eigenvalues --   -0.55647  -0.53928  -0.53583  -0.52007  -0.50655
 Alpha  occ. eigenvalues --   -0.43445  -0.41576  -0.39889  -0.38666
 Alpha virt. eigenvalues --    0.19276   0.19408   0.20993   0.23590   0.26499
 Alpha virt. eigenvalues --    0.26859   0.28756   0.29461   0.30025   0.31999
 Alpha virt. eigenvalues --    0.32945   0.33338   0.33787   0.35535   0.36818

 Mulliken atomic charges:
              1
     1  H    0.218053
     2  C   -0.591341
     3  H    0.199438
     4  H    0.175944
     5  C    0.750313
     6  O   -0.592626
     7  N   -0.845267
     8  H    0.386364
     9  C   -0.009227
    10  H    0.216378
    11  C   -0.493031
    12  H    0.170096
    13  H    0.183700
    14  H    0.221028
    15  C    0.730534
    16  O   -0.612903
    17  N   -0.782177
    18  H    0.395100
    19  C   -0.269836
    20  H    0.199173
    21  H    0.182565
    22  H    0.167724
 Sum of Mulliken atomic charges =   0.00000

 Dipole moment (field-independent basis, Debye):
    X=              0.5385    Y=             -3.9676    Z=             -0.3328  Tot=              4.0178
 Quadrupole moment (field-independent basis, Debye-Ang):
   XX=            -70.3471   YY=            -57.3342   ZZ=            -61.1082
   XY=             -1.0090   XZ=             12.0729   YZ=             -0.0758

 Normal termination of Gaussian 09 at Fri Feb 10 03:50:15 2017.
