 Gaussian 09, Revision A.02,
 Gaussian 09:  EM64L-G09RevA.02 11-Jun-2009

 -------------------------------------------
 # HF/6-31G* Opt=(ModRedundant) geom=nocrowd
 -------------------------------------------

 ------------------
 Phi Psi fixed scan
 ------------------
 Symbolic Z-matrix:
 Charge =  0 Multiplicity = 1

 SCF Done:  E(RHF) =  -492.823760237     A.U. after   15 cycles
 SCF Done:  E(RHF) =  -492.839262238     A.U. after   15 cycles
 SCF Done:  E(RHF) =  -492.844253264     A.U. after   13 cycles
 SCF Done:  E(RHF) =  -492.845147830     A.U. after   13 cycles
 SCF Done:  E(RHF) =  -492.845416402     A.U. after   13 cycles
 SCF Done:  E(RHF) =  -492.845924557     A.U. after   12 cycles
 SCF Done:  E(RHF) =  -492.846068278     A.U. after   13 cycles
 SCF Done:  E(RHF) =  -492.846109857     A.U. after   12 cycles
 SCF Done:  E(RHF) =  -492.846169324     A.U. after   11 cycles
 SCF Done:  E(RHF) =  -492.846205296     A.U. after   11 cycles
 SCF Done:  E(RHF) =  -492.846586968     A.U. after   12 cycles
 SCF Done:  E(RHF) =  -492.846611430     A.U. after   12 cycles
 SCF Done:  E(RHF) =  -492.846660253     A.U. after   12 cycles
 SCF Done:  E(RHF) =  -492.846672207     A.U. after   11 cycles
 SCF Done:  E(RHF) =  -492.846683005     A.U. after   11 cycles
 SCF Done:  E(RHF) =  -492.846687261     A.U. after   10 cycles
 SCF Done:  E(RHF) =  -492.846690596     A.U. after   10 cycles
 SCF Done:  E(RHF) =  -492.846693012     A.U. after   11 cycles
 SCF Done:  E(RHF) =  -492.846693953     A.U. after   10 cycles
 SCF Done:  E(RHF) =  -492.846694011     A.U. after    8 cycles
 Optimization completed.
    -- Stationary point found.

                         Standard orientation:
 ---------------------------------------------------------------------
 Center     Atomic      Atomic             Coordinates (Angstroms)
 Number     Number       Type             X           Y           Z
 ---------------------------------------------------------------------
      1          1           0        3.800298   -1.484009   -0.624621
      2          6           0        2.989324   -1.488619    0.088644
      3          1           0        3.409172   -1.492598    1.090195
      4          1           0        2.398814   -2.389611   -0.034569
      5          6           0        2.164389   -0.230415   -0.104237
      6          8           0        2.605300    0.726785   -0.673938
      7          7           0        0.912080   -0.307145    0.425909
      8          1           0        0.735571   -1.110712    0.988407
      9          6           0       -0.071486    0.760896    0.607853
     10          1           0       -0.017353    1.119361    1.628611
     11          6           0        0.071442    1.956376   -0.335379
     12          1           0        0.112053    1.663094   -1.375887
     13          1           0       -0.787483    2.603685   -0.191616
     14          1           0        0.969330    2.512895   -0.120554
     15          6           0       -1.453832    0.104751    0.502636
     16          8           0       -2.120768   -0.084833    1.484020
     17          7           0       -1.862125   -0.236935   -0.736505
     18          1           0       -1.201377   -0.200327   -1.477403
     19          6           0       -3.097655   -0.958987   -0.951604
     20          1           0       -3.897065   -0.483019   -0.403273
     21          1           0       -3.333358   -0.937972   -2.007306
     22          1           0       -3.027640   -1.991855   -0.625944
 ---------------------------------------------------------------------

 The electronic state is 1-A.
 Alpha  occ. eigenvalues --  -20.52929 -20.52860 -15.59571 -15.58801 -11.35704
 Alpha  occ. eigenvalues --  -11.34626 -11.28452 -11.26093 -11.23747 -11.22234
 Alpha  occ. eigenvalues --   -1.39942  -1.39443  -1.24938  -1.23126  -1.06062
 Alpha  occ. eigenvalues --   -0.99600  -0.95849  -0.89341  -0.79628  -0.77698
 Alpha  occ. eigenvalues --   -0.72843  -0.69416  -0.66877  -0.64211  -0.62862
 Alpha  occ. eigenvalues --   -0.62223  -0.59705  -0.59102  -0.57157  -0.56128
 Alpha  occ. eigenvalues --   -0.55586  -0.54047  -0.53747  -0.52003  -0.51387
 Alpha  occ. eigenvalues --   -0.43398  -0.41710  -0.39468  -0.38769
 Alpha virt. eigenvalues --    0.19026   0.19976   0.21210   0.23120   0.26090
 Alpha virt. eigenvalues --    0.27153   0.28719   0.29789   0.30311   0.31804
 Alpha virt. eigenvalues --    0.32753   0.33059   0.34028   0.35446   0.36904

 Mulliken atomic charges:
              1
     1  H    0.216801
     2  C   -0.591300
     3  H    0.198685
     4  H    0.178926
     5  C    0.750064
     6  O   -0.597063
     7  N   -0.836263
     8  H    0.391550
     9  C   -0.014927
    10  H    0.215077
    11  C   -0.484328
    12  H    0.168921
    13  H    0.171840
    14  H    0.215676
    15  C    0.734052
    16  O   -0.607439
    17  N   -0.778393
    18  H    0.392342
    19  C   -0.273431
    20  H    0.205556
    21  H    0.170782
    22  H    0.172874
 Sum of Mulliken atomic charges =   0.00000

 Dipole moment (field-independent basis, Debye):
    X=             -0.0173    Y=             -2.4902    Z=             -1.3676  Tot=              2.8411
 Quadrupole moment (field-independent basis, Debye-Ang):
   XX=            -67.3509   YY=            -57.4564   ZZ=            -62.5354
   XY=             -5.9916   XZ=             12.8534   YZ=              2.0685

 Normal termination of Gaussian 09 at Fri Feb 10 03:43:15 2017.
