 Gaussian 09, Revision A.02,
 Gaussian 09:  EM64L-G09RevA.02 11-Jun-2009

 -------------------------------------------
 # HF/6-31G* Opt=(ModRedundant) geom=nocrowd
 -------------------------------------------

 ------------------
 Phi Psi fixed scan
 ------------------
 Symbolic Z-matrix:
 Charge =  0 Multiplicity = 1

 SCF Done:  E(RHF) =  -492.825575341     A.U. after   15 cycles
 SCF Done:  E(RHF) =  -492.840420218     A.U. after   15 cycles
 SCF Done:  E(RHF) =  -492.844188688     A.U. after   13 cycles
 SCF Done:  E(RHF) =  -492.844397389     A.U. after   13 cycles
 SCF Done:  E(RHF) =  -492.845167929     A.U. after   13 cycles
 SCF Done:  E(RHF) =  -492.845477238     A.U. after   12 cycles
 SCF Done:  E(RHF) =  -492.845819363     A.U. after   13 cycles
 SCF Done:  E(RHF) =  -492.845919834     A.U. after   14 cycles
 SCF Done:  E(RHF) =  -492.846284736     A.U. after   13 cycles
 SCF Done:  E(RHF) =  -492.846432976     A.U. after   13 cycles
 SCF Done:  E(RHF) =  -492.846663886     A.U. after   11 cycles
 SCF Done:  E(RHF) =  -492.846635726     A.U. after   13 cycles
 SCF Done:  E(RHF) =  -492.846689478     A.U. after   11 cycles
 SCF Done:  E(RHF) =  -492.846693342     A.U. after   12 cycles
 SCF Done:  E(RHF) =  -492.846714827     A.U. after   11 cycles
 SCF Done:  E(RHF) =  -492.846720097     A.U. after   11 cycles
 SCF Done:  E(RHF) =  -492.846720661     A.U. after   10 cycles
 SCF Done:  E(RHF) =  -492.846721692     A.U. after   10 cycles
 SCF Done:  E(RHF) =  -492.846721784     A.U. after    8 cycles
 SCF Done:  E(RHF) =  -492.846721829     A.U. after    8 cycles
 Optimization completed.
    -- Stationary point found.

                         Standard orientation:
 ---------------------------------------------------------------------
 Center     Atomic      Atomic             Coordinates (Angstroms)
 Number     Number       Type             X           Y           Z
 ---------------------------------------------------------------------
      1          1           0       -4.022702   -1.395330    0.107136
      2          6           0       -2.966116   -1.506701    0.300534
      3          1           0       -2.600758   -2.409971   -0.175750
      4          1           0       -2.812535   -1.603849    1.371232
      5          6           0       -2.242455   -0.275354   -0.204821
      6          8           0       -2.823320    0.733549   -0.484869
      7          7           0       -0.892285   -0.436005   -0.344337
      8          1           0       -0.541941   -1.260100    0.092629
      9          6           0        0.075847    0.663055   -0.387756
     10          1           0        0.229176    0.944252   -1.424352
     11          6           0       -0.303518    1.911911    0.412516
     12          1           0       -0.472198    1.654374    1.449868
     13          1           0        0.519692    2.619233    0.370020
     14          1           0       -1.187406    2.378945    0.010589
     15          6           0        1.372259    0.096946    0.200907
     16          8           0        1.473051   -0.140143    1.374666
     17          7           0        2.347702   -0.182769   -0.683286
     18          1           0        2.225090    0.073133   -1.634677
     19          6           0        3.630362   -0.704438   -0.258786
     20          1           0        3.491347   -1.585603    0.351836
     21          1           0        4.203225   -0.969908   -1.136878
     22          1           0        4.184973    0.026480    0.317766
 ---------------------------------------------------------------------

 The electronic state is 1-A.
 Alpha  occ. eigenvalues --  -20.53233 -20.52494 -15.59876 -15.58567 -11.35300
 Alpha  occ. eigenvalues --  -11.34842 -11.28408 -11.26681 -11.23096 -11.21035
 Alpha  occ. eigenvalues --   -1.40335  -1.39139  -1.24598  -1.23487  -1.05441
 Alpha  occ. eigenvalues --   -0.99072  -0.96753  -0.88066  -0.80168  -0.77443
 Alpha  occ. eigenvalues --   -0.73281  -0.67633  -0.66724  -0.64511  -0.63172
 Alpha  occ. eigenvalues --   -0.62182  -0.60587  -0.58660  -0.56722  -0.56395
 Alpha  occ. eigenvalues --   -0.55306  -0.54501  -0.52438  -0.51375  -0.50192
 Alpha  occ. eigenvalues --   -0.43155  -0.41052  -0.40362  -0.39132
 Alpha virt. eigenvalues --    0.19061   0.20097   0.21081   0.22633   0.25793
 Alpha virt. eigenvalues --    0.28156   0.28704   0.30733   0.31034   0.31250
 Alpha virt. eigenvalues --    0.32444   0.33214   0.34187   0.36626   0.37348

 Mulliken atomic charges:
              1
     1  H    0.215016
     2  C   -0.595948
     3  H    0.183015
     4  H    0.198552
     5  C    0.752254
     6  O   -0.595560
     7  N   -0.814749
     8  H    0.391256
     9  C    0.022756
    10  H    0.180541
    11  C   -0.512968
    12  H    0.193020
    13  H    0.157927
    14  H    0.227994
    15  C    0.721509
    16  O   -0.611386
    17  N   -0.789148
    18  H    0.392189
    19  C   -0.273157
    20  H    0.198661
    21  H    0.171319
    22  H    0.186908
 Sum of Mulliken atomic charges =   0.00000

 Dipole moment (field-independent basis, Debye):
    X=              2.9906    Y=             -2.1033    Z=             -2.2208  Tot=              4.2778
 Quadrupole moment (field-independent basis, Debye-Ang):
   XX=            -60.3562   YY=            -58.0058   ZZ=            -63.0594
   XY=              6.9717   XZ=            -10.5686   YZ=              0.0599

 Normal termination of Gaussian 09 at Fri Feb 10 02:45:08 2017.
