 Gaussian 09, Revision A.02,
 Gaussian 09:  EM64L-G09RevA.02 11-Jun-2009

 -------------------------------------------
 # HF/6-31G* Opt=(ModRedundant) geom=nocrowd
 -------------------------------------------

 ------------------
 Phi Psi fixed scan
 ------------------
 Symbolic Z-matrix:
 Charge =  0 Multiplicity = 1

 SCF Done:  E(RHF) =  -492.829672461     A.U. after   15 cycles
 SCF Done:  E(RHF) =  -492.844371967     A.U. after   15 cycles
 SCF Done:  E(RHF) =  -492.848581676     A.U. after   13 cycles
 SCF Done:  E(RHF) =  -492.850084204     A.U. after   16 cycles
 SCF Done:  E(RHF) =  -492.850083593     A.U. after   13 cycles
 SCF Done:  E(RHF) =  -492.850620890     A.U. after   12 cycles
 SCF Done:  E(RHF) =  -492.850627611     A.U. after   12 cycles
 SCF Done:  E(RHF) =  -492.850669437     A.U. after   11 cycles
 SCF Done:  E(RHF) =  -492.850676128     A.U. after   10 cycles
 SCF Done:  E(RHF) =  -492.850679181     A.U. after    9 cycles
 SCF Done:  E(RHF) =  -492.850848719     A.U. after   12 cycles
 SCF Done:  E(RHF) =  -492.851166709     A.U. after   11 cycles
 SCF Done:  E(RHF) =  -492.851153068     A.U. after   12 cycles
 SCF Done:  E(RHF) =  -492.851202469     A.U. after   12 cycles
 SCF Done:  E(RHF) =  -492.851212865     A.U. after   10 cycles
 SCF Done:  E(RHF) =  -492.851227011     A.U. after   11 cycles
 SCF Done:  E(RHF) =  -492.851232013     A.U. after   11 cycles
 SCF Done:  E(RHF) =  -492.851233101     A.U. after   10 cycles
 SCF Done:  E(RHF) =  -492.851233344     A.U. after   10 cycles
 SCF Done:  E(RHF) =  -492.851233386     A.U. after    8 cycles
 Optimization completed.
    -- Stationary point found.

                         Standard orientation:
 ---------------------------------------------------------------------
 Center     Atomic      Atomic             Coordinates (Angstroms)
 Number     Number       Type             X           Y           Z
 ---------------------------------------------------------------------
      1          1           0       -4.194465   -1.018582    0.252394
      2          6           0       -3.149799   -1.274501    0.352439
      3          1           0       -2.921735   -2.132471   -0.269590
      4          1           0       -2.955882   -1.545778    1.385800
      5          6           0       -2.313459   -0.062344   -0.010093
      6          8           0       -2.776004    1.046304    0.021426
      7          7           0       -1.041257   -0.362603   -0.363234
      8          1           0       -0.765559   -1.318660   -0.309514
      9          6           0        0.087303    0.532137   -0.542505
     10          1           0        0.185973    0.787535   -1.596007
     11          6           0       -0.008204    1.833780    0.263234
     12          1           0        0.003483    1.633758    1.329066
     13          1           0        0.822151    2.490026    0.025240
     14          1           0       -0.919678    2.354364    0.026353
     15          6           0        1.334920   -0.295897   -0.181045
     16          8           0        1.285561   -1.498633   -0.122206
     17          7           0        2.478595    0.373868    0.034272
     18          1           0        2.494988    1.362709   -0.024133
     19          6           0        3.716312   -0.328027    0.308908
     20          1           0        3.619549   -0.941937    1.194279
     21          1           0        3.994704   -0.965714   -0.520422
     22          1           0        4.496209    0.403642    0.469870
 ---------------------------------------------------------------------

 The electronic state is 1-A.
 Alpha  occ. eigenvalues --  -20.53710 -20.51433 -15.59804 -15.57539 -11.35764
 Alpha  occ. eigenvalues --  -11.34316 -11.28911 -11.26698 -11.22449 -11.22428
 Alpha  occ. eigenvalues --   -1.40783  -1.38159  -1.24580  -1.23232  -1.05829
 Alpha  occ. eigenvalues --   -0.98809  -0.96122  -0.89539  -0.81054  -0.76467
 Alpha  occ. eigenvalues --   -0.73285  -0.68282  -0.66274  -0.65261  -0.63050
 Alpha  occ. eigenvalues --   -0.61853  -0.59751  -0.58621  -0.56769  -0.56198
 Alpha  occ. eigenvalues --   -0.55736  -0.54953  -0.52880  -0.52369  -0.49993
 Alpha  occ. eigenvalues --   -0.43271  -0.40718  -0.40329  -0.38191
 Alpha virt. eigenvalues --    0.18724   0.20764   0.21571   0.24931   0.25697
 Alpha virt. eigenvalues --    0.27940   0.28919   0.30587   0.31229   0.31866
 Alpha virt. eigenvalues --    0.32825   0.33186   0.34620   0.36614   0.37652

 Mulliken atomic charges:
              1
     1  H    0.209785
     2  C   -0.586095
     3  H    0.180394
     4  H    0.195743
     5  C    0.758685
     6  O   -0.616827
     7  N   -0.843463
     8  H    0.426315
     9  C    0.005017
    10  H    0.205622
    11  C   -0.520630
    12  H    0.177133
    13  H    0.138283
    14  H    0.253605
    15  C    0.773555
    16  O   -0.636608
    17  N   -0.807131
    18  H    0.399192
    19  C   -0.268556
    20  H    0.195577
    21  H    0.190475
    22  H    0.169927
 Sum of Mulliken atomic charges =   0.00000

 Dipole moment (field-independent basis, Debye):
    X=              3.5329    Y=              0.5399    Z=              0.1209  Tot=              3.5759
 Quadrupole moment (field-independent basis, Debye-Ang):
   XX=            -57.9774   YY=            -63.3331   ZZ=            -59.8390
   XY=             14.2438   XZ=             -0.1184   YZ=             -1.0811

 Normal termination of Gaussian 09 at Fri Feb 10 03:10:14 2017.
