 Gaussian 09, Revision A.02,
 Gaussian 09:  EM64L-G09RevA.02 11-Jun-2009

 -------------------------------------------
 # HF/6-31G* Opt=(ModRedundant) geom=nocrowd
 -------------------------------------------

 ------------------
 Phi Psi fixed scan
 ------------------
 Symbolic Z-matrix:
 Charge =  0 Multiplicity = 1

 SCF Done:  E(RHF) =  -492.815945557     A.U. after   15 cycles
 SCF Done:  E(RHF) =  -492.831266965     A.U. after   14 cycles
 SCF Done:  E(RHF) =  -492.835440846     A.U. after   13 cycles
 SCF Done:  E(RHF) =  -492.836927338     A.U. after   13 cycles
 SCF Done:  E(RHF) =  -492.837388888     A.U. after   13 cycles
 SCF Done:  E(RHF) =  -492.838051719     A.U. after   13 cycles
 SCF Done:  E(RHF) =  -492.839456801     A.U. after   16 cycles
 SCF Done:  E(RHF) =  -492.840519414     A.U. after   14 cycles
 SCF Done:  E(RHF) =  -492.841695567     A.U. after   13 cycles
 SCF Done:  E(RHF) =  -492.842328107     A.U. after   13 cycles
 SCF Done:  E(RHF) =  -492.842599597     A.U. after   13 cycles
 SCF Done:  E(RHF) =  -492.842826314     A.U. after   12 cycles
 SCF Done:  E(RHF) =  -492.842946627     A.U. after   12 cycles
 SCF Done:  E(RHF) =  -492.843109783     A.U. after   12 cycles
 SCF Done:  E(RHF) =  -492.843188999     A.U. after   11 cycles
 SCF Done:  E(RHF) =  -492.843222306     A.U. after   12 cycles
 SCF Done:  E(RHF) =  -492.843238008     A.U. after   12 cycles
 SCF Done:  E(RHF) =  -492.843238938     A.U. after    9 cycles
 SCF Done:  E(RHF) =  -492.843239035     A.U. after    8 cycles
 Optimization completed.
    -- Stationary point found.

                         Standard orientation:
 ---------------------------------------------------------------------
 Center     Atomic      Atomic             Coordinates (Angstroms)
 Number     Number       Type             X           Y           Z
 ---------------------------------------------------------------------
      1          1           0       -3.805936   -1.599596    0.451496
      2          6           0       -2.729964   -1.611468    0.541459
      3          1           0       -2.334115   -2.503541    0.068221
      4          1           0       -2.466689   -1.643017    1.594848
      5          6           0       -2.171625   -0.349915   -0.086741
      6          8           0       -2.868030    0.584108   -0.354774
      7          7           0       -0.826505   -0.407058   -0.353416
      8          1           0       -0.385775   -1.165792    0.118060
      9          6           0        0.046778    0.771260   -0.478018
     10          1           0        0.114026    1.033791   -1.530693
     11          6           0       -0.409172    2.006609    0.300113
     12          1           0       -0.516339    1.777313    1.355083
     13          1           0        0.341618    2.777063    0.201290
     14          1           0       -1.352623    2.367250   -0.074431
     15          6           0        1.469835    0.395718   -0.032187
     16          8           0        2.203221    1.192956    0.474549
     17          7           0        1.842555   -0.902973   -0.228671
     18          1           0        1.370998   -1.397164   -0.954188
     19          6           0        3.218064   -1.293884    0.022305
     20          1           0        3.490801   -1.018541    1.029617
     21          1           0        3.295630   -2.367942   -0.082635
     22          1           0        3.911027   -0.816031   -0.661850
 ---------------------------------------------------------------------

 The electronic state is 1-A.
 Alpha  occ. eigenvalues --  -20.54043 -20.53174 -15.59797 -15.59055 -11.35800
 Alpha  occ. eigenvalues --  -11.35441 -11.28665 -11.26583 -11.23760 -11.20608
 Alpha  occ. eigenvalues --   -1.40996  -1.39838  -1.25660  -1.22942  -1.05472
 Alpha  occ. eigenvalues --   -0.99261  -0.96797  -0.87927  -0.79972  -0.77629
 Alpha  occ. eigenvalues --   -0.73800  -0.67348  -0.66891  -0.65507  -0.63400
 Alpha  occ. eigenvalues --   -0.62586  -0.60415  -0.59342  -0.57309  -0.56306
 Alpha  occ. eigenvalues --   -0.55290  -0.54264  -0.52421  -0.51759  -0.50092
 Alpha  occ. eigenvalues --   -0.43913  -0.41917  -0.40602  -0.39788
 Alpha virt. eigenvalues --    0.17979   0.19504   0.21706   0.23743   0.26736
 Alpha virt. eigenvalues --    0.27139   0.28749   0.29625   0.30434   0.30777
 Alpha virt. eigenvalues --    0.32782   0.33533   0.33837   0.35518   0.36932

 Mulliken atomic charges:
              1
     1  H    0.218768
     2  C   -0.596999
     3  H    0.182366
     4  H    0.193334
     5  C    0.752752
     6  O   -0.583900
     7  N   -0.841874
     8  H    0.388472
     9  C   -0.014912
    10  H    0.210927
    11  C   -0.502451
    12  H    0.160405
    13  H    0.197666
    14  H    0.223534
    15  C    0.740059
    16  O   -0.588433
    17  N   -0.804397
    18  H    0.386470
    19  C   -0.279029
    20  H    0.206948
    21  H    0.171046
    22  H    0.179249
 Sum of Mulliken atomic charges =   0.00000

 Dipole moment (field-independent basis, Debye):
    X=              1.4308    Y=             -4.7639    Z=             -0.4943  Tot=              4.9986
 Quadrupole moment (field-independent basis, Debye-Ang):
   XX=            -70.0735   YY=            -58.7435   ZZ=            -59.5109
   XY=             -1.2074   XZ=             -6.7421   YZ=             -1.1378

 Normal termination of Gaussian 09 at Fri Feb 10 02:29:17 2017.
