 Gaussian 09, Revision A.02,
 Gaussian 09:  EM64L-G09RevA.02 11-Jun-2009

 ----------------------------------------------------------------------
 # b3lyp/6-31G* Opt=(ModRedundant, maxcycles=1000, calcfc) geom=nocrowd
 ----------------------------------------------------------------------

 ------------------
 Phi Psi fixed scan
 ------------------
 Symbolic Z-matrix:
 Charge =  0 Multiplicity = 1

 SCF Done:  E(RB3LYP) =  -495.708004100     A.U. after   19 cycles

  Exact polarizability:   0.000   0.000   0.000   0.000   0.000   0.000
 Approx polarizability: 143.483   6.828 125.547   0.243 -20.767  95.661

 SCF Done:  E(RB3LYP) =  -495.732460604     A.U. after   13 cycles
 SCF Done:  E(RB3LYP) =  -495.768755831     A.U. after   14 cycles
 SCF Done:  E(RB3LYP) =  -495.800212073     A.U. after   14 cycles
 SCF Done:  E(RB3LYP) =  -495.806688363     A.U. after   13 cycles
 SCF Done:  E(RB3LYP) =  -495.813355979     A.U. after   12 cycles
 SCF Done:  E(RB3LYP) =  -495.818209675     A.U. after   13 cycles
 SCF Done:  E(RB3LYP) =  -495.821113776     A.U. after   13 cycles
 SCF Done:  E(RB3LYP) =  -495.822011994     A.U. after   15 cycles
 SCF Done:  E(RB3LYP) =  -495.823433123     A.U. after   14 cycles
 SCF Done:  E(RB3LYP) =  -495.827603528     A.U. after   10 cycles
 SCF Done:  E(RB3LYP) =  -495.827622123     A.U. after   11 cycles
 SCF Done:  E(RB3LYP) =  -495.827654737     A.U. after   11 cycles
 SCF Done:  E(RB3LYP) =  -495.827752742     A.U. after   10 cycles
 SCF Done:  E(RB3LYP) =  -495.827845524     A.U. after   12 cycles
 SCF Done:  E(RB3LYP) =  -495.827852213     A.U. after   10 cycles
 SCF Done:  E(RB3LYP) =  -495.827853792     A.U. after   10 cycles
 SCF Done:  E(RB3LYP) =  -495.827854082     A.U. after    8 cycles
 SCF Done:  E(RB3LYP) =  -495.827854172     A.U. after    7 cycles
 SCF Done:  E(RB3LYP) =  -495.827854224     A.U. after    6 cycles
 Optimization completed.
    -- Stationary point found.

                         Standard orientation:
 ---------------------------------------------------------------------
 Center     Atomic      Atomic             Coordinates (Angstroms)
 Number     Number       Type             X           Y           Z
 ---------------------------------------------------------------------
      1          1           0       -3.655267   -1.505173    0.144786
      2          6           0       -2.953619   -1.073205   -0.570286
      3          1           0       -3.508299   -0.522721   -1.339678
      4          1           0       -2.404330   -1.885971   -1.060706
      5          6           0       -1.965910   -0.190211    0.175497
      6          8           0       -1.824232   -0.231008    1.381806
      7          7           0       -1.308641    0.761221   -0.628459
      8          1           0       -1.561995    0.625666   -1.602243
      9          6           0        0.136110    1.021204   -0.532278
     10          1           0        0.466335    1.309405   -1.536276
     11          6           0        0.378984    2.200697    0.435699
     12          1           0        0.019178    1.924655    1.430687
     13          1           0        1.438220    2.474014    0.507759
     14          1           0       -0.182176    3.076484    0.097084
     15          6           0        0.986370   -0.203325   -0.096631
     16          8           0        0.521259   -1.269182    0.273352
     17          7           0        2.328171   -0.030286   -0.330329
     18          1           0        2.664177    0.900344   -0.535400
     19          6           0        3.309792   -1.027214    0.066769
     20          1           0        2.800311   -1.990060    0.119532
     21          1           0        4.111071   -1.079154   -0.677114
     22          1           0        3.749489   -0.810199    1.049193
 ---------------------------------------------------------------------

 The electronic state is 1-A.
 Alpha  occ. eigenvalues --  -19.11461 -19.10038 -14.36430 -14.34732 -10.28737
 Alpha  occ. eigenvalues --  -10.27766 -10.24322 -10.21961 -10.18471 -10.18205
 Alpha  occ. eigenvalues --   -1.03710  -1.01617  -0.92211  -0.91208  -0.77667
 Alpha  occ. eigenvalues --   -0.72300  -0.70480  -0.64117  -0.58871  -0.56390
 Alpha  occ. eigenvalues --   -0.51873  -0.49361  -0.46047  -0.45389  -0.44699
 Alpha  occ. eigenvalues --   -0.43740  -0.42469  -0.41125  -0.40243  -0.39247
 Alpha  occ. eigenvalues --   -0.38637  -0.37821  -0.37436  -0.35608  -0.33386
 Alpha  occ. eigenvalues --   -0.27070  -0.25373  -0.24291  -0.22812
 Alpha virt. eigenvalues --    0.01818   0.03295   0.05808   0.07937   0.11833
 Alpha virt. eigenvalues --    0.12893   0.14850   0.15203   0.15757   0.16330
 Alpha virt. eigenvalues --    0.16958   0.17125   0.18098   0.19239   0.19357

 Mulliken atomic charges:
              1
     1  H    0.184695
     2  C   -0.552625
     3  H    0.151530
     4  H    0.184134
     5  C    0.605215
     6  O   -0.474361
     7  N   -0.580487
     8  H    0.311204
     9  C   -0.074453
    10  H    0.148351
    11  C   -0.438098
    12  H    0.196396
    13  H    0.125143
    14  H    0.159307
    15  C    0.611353
    16  O   -0.498469
    17  N   -0.591863
    18  H    0.323289
    19  C   -0.308117
    20  H    0.203112
    21  H    0.153712
    22  H    0.161033
 Sum of Mulliken atomic charges =   0.00000

 Dipole moment (field-independent basis, Debye):
    X=              2.7850    Y=              2.0868    Z=             -4.0658  Tot=              5.3518
 Quadrupole moment (field-independent basis, Debye-Ang):
   XX=            -49.8144   YY=            -60.3039   ZZ=            -61.1905
   XY=              2.8256   XZ=              5.6177   YZ=              0.4557

 Normal termination of Gaussian 09 at Sat Feb 11 00:15:14 2017.
