 Gaussian 09, Revision A.02,
 Gaussian 09:  EM64L-G09RevA.02 11-Jun-2009

 ----------------------------------------------------------------------
 # b3lyp/6-31G* Opt=(ModRedundant, maxcycles=1000, calcfc) geom=nocrowd
 ----------------------------------------------------------------------

 ------------------
 Phi Psi fixed scan
 ------------------
 Symbolic Z-matrix:
 Charge =  0 Multiplicity = 1

 SCF Done:  E(RB3LYP) =  -495.789898258     A.U. after   16 cycles

  Exact polarizability:   0.000   0.000   0.000   0.000   0.000   0.000
 Approx polarizability: 109.252  10.492 120.127  -1.436  17.706 112.099

 SCF Done:  E(RB3LYP) =  -495.808577322     A.U. after   14 cycles
 SCF Done:  E(RB3LYP) =  -495.818714470     A.U. after   15 cycles
 SCF Done:  E(RB3LYP) =  -495.831898461     A.U. after   15 cycles
 SCF Done:  E(RB3LYP) =  -495.833634293     A.U. after   12 cycles
 SCF Done:  E(RB3LYP) =  -495.832115583     A.U. after   13 cycles
 SCF Done:  E(RB3LYP) =  -495.835362367     A.U. after   13 cycles
 SCF Done:  E(RB3LYP) =  -495.837237067     A.U. after   12 cycles
 SCF Done:  E(RB3LYP) =  -495.838806287     A.U. after   12 cycles
 SCF Done:  E(RB3LYP) =  -495.840251243     A.U. after   13 cycles
 SCF Done:  E(RB3LYP) =  -495.842116025     A.U. after   14 cycles
 SCF Done:  E(RB3LYP) =  -495.842155559     A.U. after   11 cycles
 SCF Done:  E(RB3LYP) =  -495.842189497     A.U. after   11 cycles
 SCF Done:  E(RB3LYP) =  -495.842198435     A.U. after   11 cycles
 SCF Done:  E(RB3LYP) =  -495.842187123     A.U. after   11 cycles
 SCF Done:  E(RB3LYP) =  -495.842192256     A.U. after   10 cycles
 SCF Done:  E(RB3LYP) =  -495.842225234     A.U. after   11 cycles
 SCF Done:  E(RB3LYP) =  -495.842228058     A.U. after   10 cycles
 SCF Done:  E(RB3LYP) =  -495.842227952     A.U. after    9 cycles
 SCF Done:  E(RB3LYP) =  -495.842228359     A.U. after    9 cycles
 Optimization completed.
    -- Stationary point found.

                         Standard orientation:
 ---------------------------------------------------------------------
 Center     Atomic      Atomic             Coordinates (Angstroms)
 Number     Number       Type             X           Y           Z
 ---------------------------------------------------------------------
      1          1           0        3.115887   -1.425378    1.323533
      2          6           0        3.193180   -0.775392    0.444429
      3          1           0        3.732928   -1.326916   -0.328648
      4          1           0        3.766437    0.115057    0.721089
      5          6           0        1.791659   -0.468902   -0.064517
      6          8           0        1.164231   -1.301748   -0.717205
      7          7           0        1.330019    0.782275    0.229427
      8          1           0        1.940145    1.331302    0.819428
      9          6           0       -0.061021    1.292358    0.193037
     10          1           0       -0.134999    1.981816    1.036291
     11          6           0       -0.317153    2.059095   -1.115265
     12          1           0       -0.218779    1.397053   -1.980242
     13          1           0       -1.326994    2.482770   -1.118988
     14          1           0        0.403931    2.876847   -1.223743
     15          6           0       -1.204870    0.279133    0.480194
     16          8           0       -1.867271    0.417160    1.504584
     17          7           0       -1.518451   -0.609033   -0.502025
     18          1           0       -0.720171   -0.920180   -1.051878
     19          6           0       -2.576405   -1.580996   -0.265014
     20          1           0       -3.465517   -1.063189    0.100018
     21          1           0       -2.810524   -2.083314   -1.207094
     22          1           0       -2.291344   -2.333621    0.482202
 ---------------------------------------------------------------------

 The electronic state is 1-A.
 Alpha  occ. eigenvalues --  -19.12415 -19.10510 -14.37478 -14.33987 -10.30228
 Alpha  occ. eigenvalues --  -10.27657 -10.24168 -10.20439 -10.20150 -10.18632
 Alpha  occ. eigenvalues --   -1.04232  -1.02164  -0.93278  -0.90398  -0.78455
 Alpha  occ. eigenvalues --   -0.73568  -0.69449  -0.64855  -0.59722  -0.55640
 Alpha  occ. eigenvalues --   -0.52837  -0.50389  -0.46749  -0.46055  -0.44300
 Alpha  occ. eigenvalues --   -0.43772  -0.42125  -0.41280  -0.41116  -0.40645
 Alpha  occ. eigenvalues --   -0.38624  -0.37383  -0.36377  -0.36207  -0.35317
 Alpha  occ. eigenvalues --   -0.27677  -0.26579  -0.24475  -0.23057
 Alpha virt. eigenvalues --    0.01304   0.02368   0.05771   0.10944   0.11631
 Alpha virt. eigenvalues --    0.12970   0.13853   0.15658   0.15898   0.16550
 Alpha virt. eigenvalues --    0.16758   0.17635   0.18010   0.18696   0.20030

 Mulliken atomic charges:
              1
     1  H    0.190261
     2  C   -0.538785
     3  H    0.190854
     4  H    0.150283
     5  C    0.602099
     6  O   -0.523745
     7  N   -0.597064
     8  H    0.330515
     9  C   -0.050615
    10  H    0.171196
    11  C   -0.433725
    12  H    0.166373
    13  H    0.163252
    14  H    0.143857
    15  C    0.580251
    16  O   -0.517723
    17  N   -0.580653
    18  H    0.364075
    19  C   -0.301444
    20  H    0.180550
    21  H    0.149802
    22  H    0.160386
 Sum of Mulliken atomic charges =   0.00000

 Dipole moment (field-independent basis, Debye):
    X=              3.0824    Y=              1.2902    Z=             -0.5826  Tot=              3.3920
 Quadrupole moment (field-independent basis, Debye-Ang):
   XX=            -55.3846   YY=            -57.4538   ZZ=            -63.8802
   XY=              5.2883   XZ=              8.8997   YZ=             -0.9839

 Normal termination of Gaussian 09 at Sat Feb 11 00:15:39 2017.
