 Gaussian 09, Revision A.02,
 Gaussian 09:  EM64L-G09RevA.02 11-Jun-2009

 ----------------------------------------------------------------------
 # b3lyp/6-31G* Opt=(ModRedundant, maxcycles=1000, calcfc) geom=nocrowd
 ----------------------------------------------------------------------

 ------------------
 Phi Psi fixed scan
 ------------------
 Symbolic Z-matrix:
 Charge =  0 Multiplicity = 1

 SCF Done:  E(RB3LYP) =  -495.787605393     A.U. after   16 cycles

  Exact polarizability:   0.000   0.000   0.000   0.000   0.000   0.000
 Approx polarizability: 126.823   5.157 123.734  10.276 -10.247  91.917

 SCF Done:  E(RB3LYP) =  -495.802635638     A.U. after   13 cycles
 SCF Done:  E(RB3LYP) =  -495.820728969     A.U. after   15 cycles
 SCF Done:  E(RB3LYP) =  -495.819714228     A.U. after   15 cycles
 SCF Done:  E(RB3LYP) =  -495.828876224     A.U. after   13 cycles
 SCF Done:  E(RB3LYP) =  -495.829982253     A.U. after   12 cycles
 SCF Done:  E(RB3LYP) =  -495.830823492     A.U. after   12 cycles
 SCF Done:  E(RB3LYP) =  -495.831364040     A.U. after   13 cycles
 SCF Done:  E(RB3LYP) =  -495.832548575     A.U. after   12 cycles
 SCF Done:  E(RB3LYP) =  -495.833001019     A.U. after   11 cycles
 SCF Done:  E(RB3LYP) =  -495.835136306     A.U. after   11 cycles
 SCF Done:  E(RB3LYP) =  -495.835165607     A.U. after   11 cycles
 SCF Done:  E(RB3LYP) =  -495.835203296     A.U. after   11 cycles
 SCF Done:  E(RB3LYP) =  -495.835306882     A.U. after   11 cycles
 SCF Done:  E(RB3LYP) =  -495.835412236     A.U. after   11 cycles
 SCF Done:  E(RB3LYP) =  -495.835420264     A.U. after   10 cycles
 SCF Done:  E(RB3LYP) =  -495.835424472     A.U. after   10 cycles
 SCF Done:  E(RB3LYP) =  -495.835426049     A.U. after    9 cycles
 SCF Done:  E(RB3LYP) =  -495.835426610     A.U. after    8 cycles
 SCF Done:  E(RB3LYP) =  -495.835426698     A.U. after    7 cycles
 Optimization completed.
    -- Stationary point found.

                         Standard orientation:
 ---------------------------------------------------------------------
 Center     Atomic      Atomic             Coordinates (Angstroms)
 Number     Number       Type             X           Y           Z
 ---------------------------------------------------------------------
      1          1           0       -3.593346   -1.421433    0.603209
      2          6           0       -3.055243   -0.968144   -0.230798
      3          1           0       -3.732213   -0.314929   -0.793020
      4          1           0       -2.710033   -1.765423   -0.899951
      5          6           0       -1.842100   -0.228602    0.303122
      6          8           0       -1.350834   -0.455881    1.395765
      7          7           0       -1.363370    0.792122   -0.517441
      8          1           0       -1.778066    0.765647   -1.442206
      9          6           0        0.076272    1.080783   -0.571105
     10          1           0        0.297417    1.370420   -1.605413
     11          6           0        0.408602    2.265189    0.354388
     12          1           0        0.265298    1.976182    1.399669
     13          1           0        1.432084    2.633792    0.213719
     14          1           0       -0.267721    3.096529    0.136211
     15          6           0        0.928890   -0.193277   -0.310228
     16          8           0        0.503141   -1.309986   -0.571395
     17          7           0        2.247526    0.031897   -0.025171
     18          1           0        2.505615    0.921939    0.374226
     19          6           0        3.153222   -1.085720    0.200426
     20          1           0        2.928306   -1.866003   -0.528121
     21          1           0        4.183508   -0.745279    0.065042
     22          1           0        3.043764   -1.514014    1.205143
 ---------------------------------------------------------------------

 The electronic state is 1-A.
 Alpha  occ. eigenvalues --  -19.10793 -19.10283 -14.36008 -14.34924 -10.28270
 Alpha  occ. eigenvalues --  -10.27846 -10.24083 -10.21578 -10.18774 -10.18240
 Alpha  occ. eigenvalues --   -1.03396  -1.01677  -0.91740  -0.91333  -0.77655
 Alpha  occ. eigenvalues --   -0.72334  -0.70135  -0.64482  -0.58539  -0.56543
 Alpha  occ. eigenvalues --   -0.52002  -0.49732  -0.45751  -0.45415  -0.44049
 Alpha  occ. eigenvalues --   -0.43566  -0.42502  -0.41349  -0.39814  -0.39038
 Alpha  occ. eigenvalues --   -0.38770  -0.37966  -0.37481  -0.35612  -0.33258
 Alpha  occ. eigenvalues --   -0.26416  -0.24907  -0.24508  -0.23577
 Alpha virt. eigenvalues --    0.02159   0.03283   0.06711   0.08402   0.11872
 Alpha virt. eigenvalues --    0.13031   0.14395   0.15351   0.16130   0.16296
 Alpha virt. eigenvalues --    0.16988   0.17488   0.18311   0.19382   0.19576

 Mulliken atomic charges:
              1
     1  H    0.183542
     2  C   -0.553175
     3  H    0.151355
     4  H    0.191482
     5  C    0.609647
     6  O   -0.495472
     7  N   -0.574552
     8  H    0.317331
     9  C   -0.061952
    10  H    0.164252
    11  C   -0.457340
    12  H    0.187181
    13  H    0.130077
    14  H    0.162206
    15  C    0.630175
    16  O   -0.522625
    17  N   -0.600583
    18  H    0.329772
    19  C   -0.301998
    20  H    0.193096
    21  H    0.148953
    22  H    0.168629
 Sum of Mulliken atomic charges =   0.00000

 Dipole moment (field-independent basis, Debye):
    X=              1.5321    Y=              2.7675    Z=             -2.2578  Tot=              3.8864
 Quadrupole moment (field-independent basis, Debye-Ang):
   XX=            -47.8486   YY=            -60.5928   ZZ=            -61.4304
   XY=              1.7169   XZ=              6.8082   YZ=             -0.7517

 Normal termination of Gaussian 09 at Sat Feb 11 00:01:05 2017.
