 Gaussian 09, Revision A.02,
 Gaussian 09:  EM64L-G09RevA.02 11-Jun-2009

 ----------------------------------------------------------------------
 # b3lyp/6-31G* Opt=(ModRedundant, maxcycles=1000, calcfc) geom=nocrowd
 ----------------------------------------------------------------------

 ------------------
 Phi Psi fixed scan
 ------------------
 Symbolic Z-matrix:
 Charge =  0 Multiplicity = 1

 SCF Done:  E(RB3LYP) =  -495.823868004     A.U. after   14 cycles

  Exact polarizability:   0.000   0.000   0.000   0.000   0.000   0.000
 Approx polarizability: 114.054   5.831 114.895  14.698   3.385 109.193

 SCF Done:  E(RB3LYP) =  -495.829106837     A.U. after   12 cycles
 SCF Done:  E(RB3LYP) =  -495.836243056     A.U. after   12 cycles
 SCF Done:  E(RB3LYP) =  -495.839345497     A.U. after   12 cycles
 SCF Done:  E(RB3LYP) =  -495.840119298     A.U. after   13 cycles
 SCF Done:  E(RB3LYP) =  -495.794152962     A.U. after   14 cycles
 SCF Done:  E(RB3LYP) =  -495.840415357     A.U. after   14 cycles
 SCF Done:  E(RB3LYP) =  -495.840732835     A.U. after   12 cycles
 SCF Done:  E(RB3LYP) =  -495.801108003     A.U. after   14 cycles
 SCF Done:  E(RB3LYP) =  -495.840753596     A.U. after   14 cycles
 SCF Done:  E(RB3LYP) =  -495.840993276     A.U. after   12 cycles
 SCF Done:  E(RB3LYP) =  -495.841109110     A.U. after   11 cycles
 SCF Done:  E(RB3LYP) =  -495.841129626     A.U. after   10 cycles
 SCF Done:  E(RB3LYP) =  -495.841152484     A.U. after   10 cycles
 SCF Done:  E(RB3LYP) =  -495.841174092     A.U. after   11 cycles
 SCF Done:  E(RB3LYP) =  -495.841200763     A.U. after   12 cycles
 SCF Done:  E(RB3LYP) =  -495.841205809     A.U. after   11 cycles
 SCF Done:  E(RB3LYP) =  -495.841207544     A.U. after    8 cycles
 SCF Done:  E(RB3LYP) =  -495.841207740     A.U. after    8 cycles
 SCF Done:  E(RB3LYP) =  -495.841207760     A.U. after    6 cycles
 Optimization completed.
    -- Stationary point found.

                         Standard orientation:
 ---------------------------------------------------------------------
 Center     Atomic      Atomic             Coordinates (Angstroms)
 Number     Number       Type             X           Y           Z
 ---------------------------------------------------------------------
      1          1           0        3.432836   -1.511953   -0.892204
      2          6           0        3.069918   -0.988619   -0.005359
      3          1           0        3.793067   -0.219788    0.286128
      4          1           0        2.992762   -1.717806    0.809930
      5          6           0        1.687606   -0.427856   -0.296390
      6          8           0        0.899369   -0.981332   -1.053002
      7          7           0        1.389246    0.757654    0.330632
      8          1           0        2.031933    1.050491    1.054418
      9          6           0        0.006803    1.237881    0.484057
     10          1           0       -0.048466    1.702339    1.473689
     11          6           0       -0.316257    2.293978   -0.582223
     12          1           0       -0.184990    1.883229   -1.589519
     13          1           0       -1.340898    2.665619   -0.475864
     14          1           0        0.369098    3.142296   -0.486611
     15          6           0       -0.981604    0.043798    0.580550
     16          8           0       -0.921037   -0.703975    1.547741
     17          7           0       -1.955727   -0.040868   -0.371086
     18          1           0       -1.746228    0.385242   -1.262959
     19          6           0       -2.810209   -1.219622   -0.407924
     20          1           0       -3.161126   -1.429531    0.603572
     21          1           0       -3.667614   -1.021290   -1.056699
     22          1           0       -2.269203   -2.101250   -0.774880
 ---------------------------------------------------------------------

 The electronic state is 1-A.
 Alpha  occ. eigenvalues --  -19.11171 -19.10066 -14.36149 -14.34946 -10.28812
 Alpha  occ. eigenvalues --  -10.27662 -10.23849 -10.20629 -10.19191 -10.18842
 Alpha  occ. eigenvalues --   -1.03426  -1.01827  -0.92151  -0.90915  -0.77970
 Alpha  occ. eigenvalues --   -0.72941  -0.69465  -0.64734  -0.58916  -0.56385
 Alpha  occ. eigenvalues --   -0.52343  -0.50013  -0.46166  -0.45527  -0.43956
 Alpha  occ. eigenvalues --   -0.43426  -0.42068  -0.41326  -0.39977  -0.39587
 Alpha  occ. eigenvalues --   -0.38590  -0.37920  -0.37138  -0.35855  -0.34137
 Alpha  occ. eigenvalues --   -0.26310  -0.25329  -0.24573  -0.23257
 Alpha virt. eigenvalues --    0.01680   0.03561   0.07206   0.09109   0.11669
 Alpha virt. eigenvalues --    0.13152   0.14440   0.15249   0.15299   0.16205
 Alpha virt. eigenvalues --    0.17090   0.17475   0.18563   0.19064   0.19983

 Mulliken atomic charges:
              1
     1  H    0.186527
     2  C   -0.546775
     3  H    0.150381
     4  H    0.191462
     5  C    0.606593
     6  O   -0.515066
     7  N   -0.582459
     8  H    0.325781
     9  C   -0.037531
    10  H    0.165448
    11  C   -0.460723
    12  H    0.164024
    13  H    0.157294
    14  H    0.152546
    15  C    0.614861
    16  O   -0.527302
    17  N   -0.579613
    18  H    0.333106
    19  C   -0.305113
    20  H    0.187096
    21  H    0.145637
    22  H    0.173825
 Sum of Mulliken atomic charges =   0.00000

 Dipole moment (field-independent basis, Debye):
    X=              1.2062    Y=              2.7973    Z=             -0.5674  Tot=              3.0987
 Quadrupole moment (field-independent basis, Debye-Ang):
   XX=            -49.6347   YY=            -58.8695   ZZ=            -63.0407
   XY=              0.8433   XZ=              7.3973   YZ=              1.9418

 Normal termination of Gaussian 09 at Sat Feb 11 00:05:07 2017.
