 Gaussian 09, Revision A.02,
 Gaussian 09:  EM64L-G09RevA.02 11-Jun-2009

 ----------------------------------------------------------------------
 # b3lyp/6-31G* Opt=(ModRedundant, maxcycles=1000, calcfc) geom=nocrowd
 ----------------------------------------------------------------------

 ------------------
 Phi Psi fixed scan
 ------------------
 Symbolic Z-matrix:
 Charge =  0 Multiplicity = 1

 SCF Done:  E(RB3LYP) =  -495.816062101     A.U. after   15 cycles

  Exact polarizability:   0.000   0.000   0.000   0.000   0.000   0.000
 Approx polarizability: 105.638  -5.969 100.862   4.202  -6.983 131.240

 SCF Done:  E(RB3LYP) =  -495.823656337     A.U. after   13 cycles
 SCF Done:  E(RB3LYP) =  -495.831178901     A.U. after   14 cycles
 SCF Done:  E(RB3LYP) =  -495.829227070     A.U. after   14 cycles
 SCF Done:  E(RB3LYP) =  -495.833374074     A.U. after   13 cycles
 SCF Done:  E(RB3LYP) =  -495.834101795     A.U. after   12 cycles
 SCF Done:  E(RB3LYP) =  -495.835226392     A.U. after   12 cycles
 SCF Done:  E(RB3LYP) =  -495.835871898     A.U. after   13 cycles
 SCF Done:  E(RB3LYP) =  -495.835883865     A.U. after   12 cycles
 SCF Done:  E(RB3LYP) =  -495.836085294     A.U. after   12 cycles
 SCF Done:  E(RB3LYP) =  -495.836274844     A.U. after   11 cycles
 SCF Done:  E(RB3LYP) =  -495.836346544     A.U. after   12 cycles
 SCF Done:  E(RB3LYP) =  -495.836373436     A.U. after   11 cycles
 SCF Done:  E(RB3LYP) =  -495.836376369     A.U. after    8 cycles
 SCF Done:  E(RB3LYP) =  -495.836377342     A.U. after    8 cycles
 SCF Done:  E(RB3LYP) =  -495.836378709     A.U. after    9 cycles
 SCF Done:  E(RB3LYP) =  -495.836379777     A.U. after   10 cycles
 SCF Done:  E(RB3LYP) =  -495.836380057     A.U. after    8 cycles
 SCF Done:  E(RB3LYP) =  -495.836380134     A.U. after    7 cycles
 SCF Done:  E(RB3LYP) =  -495.836380150     A.U. after    7 cycles
 Optimization completed.
    -- Stationary point found.

                         Standard orientation:
 ---------------------------------------------------------------------
 Center     Atomic      Atomic             Coordinates (Angstroms)
 Number     Number       Type             X           Y           Z
 ---------------------------------------------------------------------
      1          1           0       -3.367689   -2.014070    0.126268
      2          6           0       -3.194240   -0.956774   -0.082106
      3          1           0       -3.750738   -0.369553    0.658300
      4          1           0       -3.584853   -0.712760   -1.075987
      5          6           0       -1.703503   -0.670277    0.062882
      6          8           0       -0.987040   -1.317234    0.809792
      7          7           0       -1.241039    0.349497   -0.739738
      8          1           0       -1.952389    0.862337   -1.246167
      9          6           0        0.005475    1.112192   -0.556376
     10          1           0        0.355066    1.373972   -1.563347
     11          6           0       -0.242755    2.396058    0.241627
     12          1           0       -0.504642    2.145970    1.272326
     13          1           0        0.659194    3.016231    0.263381
     14          1           0       -1.052226    2.980743   -0.211312
     15          6           0        1.133664    0.293136    0.127331
     16          8           0        1.400408    0.417211    1.310778
     17          7           0        1.938390   -0.385335   -0.752324
     18          1           0        1.533450   -0.613064   -1.651856
     19          6           0        2.964354   -1.289145   -0.250310
     20          1           0        3.458340   -0.807600    0.594717
     21          1           0        2.543686   -2.242401    0.095262
     22          1           0        3.696424   -1.479909   -1.040006
 ---------------------------------------------------------------------

 The electronic state is 1-A.
 Alpha  occ. eigenvalues --  -19.10929 -19.10245 -14.36359 -14.35408 -10.28848
 Alpha  occ. eigenvalues --  -10.27917 -10.23951 -10.20912 -10.19345 -10.18018
 Alpha  occ. eigenvalues --   -1.03235  -1.02063  -0.92475  -0.91018  -0.77794
 Alpha  occ. eigenvalues --   -0.72749  -0.70353  -0.63806  -0.59364  -0.56604
 Alpha  occ. eigenvalues --   -0.51522  -0.49368  -0.46758  -0.46099  -0.44370
 Alpha  occ. eigenvalues --   -0.43632  -0.41672  -0.41431  -0.39964  -0.39634
 Alpha  occ. eigenvalues --   -0.38356  -0.37382  -0.36629  -0.35394  -0.35195
 Alpha  occ. eigenvalues --   -0.25791  -0.25055  -0.24325  -0.23804
 Alpha virt. eigenvalues --    0.02506   0.02773   0.06623   0.08795   0.11916
 Alpha virt. eigenvalues --    0.12920   0.13644   0.14878   0.15640   0.16182
 Alpha virt. eigenvalues --    0.16964   0.17869   0.18375   0.18654   0.19867

 Mulliken atomic charges:
              1
     1  H    0.188625
     2  C   -0.544756
     3  H    0.182294
     4  H    0.149514
     5  C    0.588945
     6  O   -0.484152
     7  N   -0.598734
     8  H    0.317817
     9  C   -0.054414
    10  H    0.143505
    11  C   -0.437796
    12  H    0.189235
    13  H    0.159499
    14  H    0.125542
    15  C    0.639968
    16  O   -0.506853
    17  N   -0.586832
    18  H    0.323015
    19  C   -0.305910
    20  H    0.194107
    21  H    0.170455
    22  H    0.146927
 Sum of Mulliken atomic charges =   0.00000

 Dipole moment (field-independent basis, Debye):
    X=             -1.7979    Y=              1.1522    Z=             -4.7733  Tot=              5.2292
 Quadrupole moment (field-independent basis, Debye-Ang):
   XX=            -50.5867   YY=            -59.0114   ZZ=            -61.7609
   XY=             -4.8937   XZ=             -1.9304   YZ=              1.0819

 Normal termination of Gaussian 09 at Sat Feb 11 00:12:42 2017.
