 Gaussian 09, Revision A.02,
 Gaussian 09:  EM64L-G09RevA.02 11-Jun-2009

 ----------------------------------------------------------------------
 # b3lyp/6-31G* Opt=(ModRedundant, maxcycles=1000, calcfc) geom=nocrowd
 ----------------------------------------------------------------------

 ------------------
 Phi Psi fixed scan
 ------------------
 Symbolic Z-matrix:
 Charge =  0 Multiplicity = 1

 SCF Done:  E(RB3LYP) =  -495.764698707     A.U. after   18 cycles

  Exact polarizability:   0.000   0.000   0.000   0.000   0.000   0.000
 Approx polarizability: 119.020  -0.194 107.354  -5.237 -23.130 119.867

 SCF Done:  E(RB3LYP) =  -495.770872755     A.U. after   14 cycles
 SCF Done:  E(RB3LYP) =  -495.777868631     A.U. after   15 cycles
 SCF Done:  E(RB3LYP) =  -495.796588009     A.U. after   16 cycles
 SCF Done:  E(RB3LYP) =  -495.818670817     A.U. after   13 cycles
 SCF Done:  E(RB3LYP) =  -495.818310166     A.U. after   14 cycles
 SCF Done:  E(RB3LYP) =  -495.824079439     A.U. after   13 cycles
 SCF Done:  E(RB3LYP) =  -495.825288779     A.U. after   12 cycles
 SCF Done:  E(RB3LYP) =  -495.826554101     A.U. after   12 cycles
 SCF Done:  E(RB3LYP) =  -495.825960878     A.U. after   13 cycles
 SCF Done:  E(RB3LYP) =  -495.828247048     A.U. after   13 cycles
 SCF Done:  E(RB3LYP) =  -495.828263290     A.U. after   12 cycles
 SCF Done:  E(RB3LYP) =  -495.828264610     A.U. after   10 cycles
 SCF Done:  E(RB3LYP) =  -495.828265123     A.U. after    8 cycles
 SCF Done:  E(RB3LYP) =  -495.828265991     A.U. after    8 cycles
 SCF Done:  E(RB3LYP) =  -495.828266462     A.U. after    8 cycles
 SCF Done:  E(RB3LYP) =  -495.828267067     A.U. after    7 cycles
 SCF Done:  E(RB3LYP) =  -495.828267959     A.U. after    9 cycles
 SCF Done:  E(RB3LYP) =  -495.828268741     A.U. after    9 cycles
 SCF Done:  E(RB3LYP) =  -495.828268837     A.U. after    7 cycles
 Optimization completed.
    -- Stationary point found.

                         Standard orientation:
 ---------------------------------------------------------------------
 Center     Atomic      Atomic             Coordinates (Angstroms)
 Number     Number       Type             X           Y           Z
 ---------------------------------------------------------------------
      1          1           0       -3.838305   -1.529507   -0.142753
      2          6           0       -3.432689   -0.520360   -0.229826
      3          1           0       -3.851418    0.090120    0.579765
      4          1           0       -3.750033   -0.083054   -1.183399
      5          6           0       -1.912690   -0.595093   -0.085847
      6          8           0       -1.362034   -1.529684    0.464230
      7          7           0       -1.255676    0.468824   -0.682282
      8          1           0       -1.881389    1.179020   -1.043672
      9          6           0        0.073201    1.034594   -0.400825
     10          1           0        0.431747    1.441357   -1.355334
     11          6           0       -0.028926    2.184616    0.616143
     12          1           0       -0.326227    1.783845    1.588598
     13          1           0        0.937618    2.688181    0.729094
     14          1           0       -0.765398    2.927708    0.287729
     15          6           0        1.135493    0.043796    0.134161
     16          8           0        1.106143   -0.405637    1.266600
     17          7           0        2.242570   -0.058602   -0.672250
     18          1           0        2.135868    0.162685   -1.652883
     19          6           0        3.353575   -0.921130   -0.299495
     20          1           0        3.464883   -0.878090    0.784835
     21          1           0        3.183939   -1.967460   -0.585479
     22          1           0        4.269790   -0.562331   -0.777270
 ---------------------------------------------------------------------

 The electronic state is 1-A.
 Alpha  occ. eigenvalues --  -19.10487 -19.10083 -14.36095 -14.35707 -10.28225
 Alpha  occ. eigenvalues --  -10.28138 -10.24313 -10.21452 -10.18716 -10.18616
 Alpha  occ. eigenvalues --   -1.02965  -1.01824  -0.92083  -0.91435  -0.77909
 Alpha  occ. eigenvalues --   -0.72381  -0.70667  -0.64086  -0.59300  -0.56919
 Alpha  occ. eigenvalues --   -0.51154  -0.49041  -0.46951  -0.45902  -0.44083
 Alpha  occ. eigenvalues --   -0.43828  -0.42005  -0.41481  -0.39982  -0.39074
 Alpha  occ. eigenvalues --   -0.38823  -0.37645  -0.36945  -0.35623  -0.34516
 Alpha  occ. eigenvalues --   -0.25770  -0.24895  -0.24375  -0.22939
 Alpha virt. eigenvalues --    0.02328   0.03433   0.05910   0.08186   0.12338
 Alpha virt. eigenvalues --    0.12556   0.13608   0.15470   0.15678   0.16008
 Alpha virt. eigenvalues --    0.16730   0.17549   0.18331   0.18567   0.19662

 Mulliken atomic charges:
              1
     1  H    0.187333
     2  C   -0.548244
     3  H    0.175712
     4  H    0.149924
     5  C    0.584614
     6  O   -0.469351
     7  N   -0.595805
     8  H    0.314580
     9  C   -0.037996
    10  H    0.130126
    11  C   -0.445887
    12  H    0.191851
    13  H    0.155964
    14  H    0.132494
    15  C    0.629642
    16  O   -0.493963
    17  N   -0.592897
    18  H    0.322567
    19  C   -0.305403
    20  H    0.198731
    21  H    0.166060
    22  H    0.149950
 Sum of Mulliken atomic charges =   0.00000

 Dipole moment (field-independent basis, Debye):
    X=              0.0858    Y=              3.6419    Z=             -4.0992  Tot=              5.4841
 Quadrupole moment (field-independent basis, Debye-Ang):
   XX=            -47.5380   YY=            -61.4617   ZZ=            -60.4891
   XY=             -4.6684   XZ=             -2.7109   YZ=              1.7377

 Normal termination of Gaussian 09 at Sat Feb 11 00:08:29 2017.
