 Gaussian 09, Revision A.02,
 Gaussian 09:  EM64L-G09RevA.02 11-Jun-2009

 ----------------------------------------------------------------------
 # b3lyp/6-31G* Opt=(ModRedundant, maxcycles=1000, calcfc) geom=nocrowd
 ----------------------------------------------------------------------

 ------------------
 Phi Psi fixed scan
 ------------------
 Symbolic Z-matrix:
 Charge =  0 Multiplicity = 1

 SCF Done:  E(RB3LYP) =  -495.720721936     A.U. after   16 cycles

  Exact polarizability:   0.000   0.000   0.000   0.000   0.000   0.000
 Approx polarizability: 119.864  -3.874 128.367  -5.722 -21.606 105.455

 SCF Done:  E(RB3LYP) =  -495.756397152     A.U. after   14 cycles
 SCF Done:  E(RB3LYP) =  -495.798361158     A.U. after   14 cycles
 SCF Done:  E(RB3LYP) =  -495.827995958     A.U. after   13 cycles
 SCF Done:  E(RB3LYP) =  -495.830702427     A.U. after   14 cycles
 SCF Done:  E(RB3LYP) =  -495.833013224     A.U. after   12 cycles
 SCF Done:  E(RB3LYP) =  -495.825290241     A.U. after   14 cycles
 SCF Done:  E(RB3LYP) =  -495.835102072     A.U. after   13 cycles
 SCF Done:  E(RB3LYP) =  -495.836157871     A.U. after   12 cycles
 SCF Done:  E(RB3LYP) =  -495.835902669     A.U. after   13 cycles
 SCF Done:  E(RB3LYP) =  -495.843128106     A.U. after   10 cycles
 SCF Done:  E(RB3LYP) =  -495.843145425     A.U. after   10 cycles
 SCF Done:  E(RB3LYP) =  -495.843160596     A.U. after   10 cycles
 SCF Done:  E(RB3LYP) =  -495.843169010     A.U. after   10 cycles
 SCF Done:  E(RB3LYP) =  -495.843175370     A.U. after   10 cycles
 SCF Done:  E(RB3LYP) =  -495.843178676     A.U. after   10 cycles
 SCF Done:  E(RB3LYP) =  -495.843179633     A.U. after    9 cycles
 SCF Done:  E(RB3LYP) =  -495.843180032     A.U. after    7 cycles
 SCF Done:  E(RB3LYP) =  -495.843180127     A.U. after    7 cycles
 SCF Done:  E(RB3LYP) =  -495.843180131     A.U. after    7 cycles
 Optimization completed.
    -- Stationary point found.

                         Standard orientation:
 ---------------------------------------------------------------------
 Center     Atomic      Atomic             Coordinates (Angstroms)
 Number     Number       Type             X           Y           Z
 ---------------------------------------------------------------------
      1          1           0       -3.256654   -1.353507   -1.300653
      2          6           0       -3.265512   -0.642091   -0.467547
      3          1           0       -3.849982   -1.090097    0.339873
      4          1           0       -3.755890    0.278214   -0.799608
      5          6           0       -1.836268   -0.445217    0.019910
      6          8           0       -1.265937   -1.346454    0.636323
      7          7           0       -1.299252    0.777659   -0.250473
      8          1           0       -1.897887    1.385587   -0.792059
      9          6           0        0.097978    1.272485   -0.180192
     10          1           0        0.191472    1.975258   -1.010101
     11          6           0        0.328270    2.022809    1.145105
     12          1           0        0.221369    1.342358    1.994926
     13          1           0        1.335989    2.450622    1.166005
     14          1           0       -0.397605    2.835819    1.257404
     15          6           0        1.280209    0.294923   -0.426713
     16          8           0        2.127317    0.623688   -1.254637
     17          7           0        1.409376   -0.775335    0.392939
     18          1           0        0.544826   -1.127494    0.805341
     19          6           0        2.521900   -1.693693    0.207838
     20          1           0        3.456050   -1.129977    0.154592
     21          1           0        2.558459   -2.377172    1.059788
     22          1           0        2.428472   -2.279048   -0.716664
 ---------------------------------------------------------------------

 The electronic state is 1-A.
 Alpha  occ. eigenvalues --  -19.12659 -19.10102 -14.37784 -14.33785 -10.30526
 Alpha  occ. eigenvalues --  -10.27519 -10.24289 -10.20436 -10.20323 -10.18706
 Alpha  occ. eigenvalues --   -1.04427  -1.01897  -0.93542  -0.90223  -0.78593
 Alpha  occ. eigenvalues --   -0.73684  -0.69555  -0.64948  -0.59898  -0.55790
 Alpha  occ. eigenvalues --   -0.52997  -0.50559  -0.46702  -0.46220  -0.44449
 Alpha  occ. eigenvalues --   -0.43552  -0.42241  -0.41478  -0.41290  -0.40762
 Alpha  occ. eigenvalues --   -0.38660  -0.37336  -0.36656  -0.36204  -0.34939
 Alpha  occ. eigenvalues --   -0.27751  -0.26634  -0.24166  -0.23077
 Alpha virt. eigenvalues --    0.01314   0.02880   0.05321   0.11020   0.11932
 Alpha virt. eigenvalues --    0.12824   0.13892   0.15754   0.16166   0.16364
 Alpha virt. eigenvalues --    0.16828   0.17656   0.17772   0.18696   0.19842

 Mulliken atomic charges:
              1
     1  H    0.190888
     2  C   -0.535251
     3  H    0.191789
     4  H    0.148437
     5  C    0.605210
     6  O   -0.525948
     7  N   -0.600889
     8  H    0.332012
     9  C   -0.049808
    10  H    0.171604
    11  C   -0.436584
    12  H    0.168882
    13  H    0.168366
    14  H    0.143880
    15  C    0.580876
    16  O   -0.524069
    17  N   -0.595748
    18  H    0.376204
    19  C   -0.298825
    20  H    0.179058
    21  H    0.150377
    22  H    0.159539
 Sum of Mulliken atomic charges =   0.00000

 Dipole moment (field-independent basis, Debye):
    X=             -3.5047    Y=              1.1147    Z=              0.3244  Tot=              3.6919
 Quadrupole moment (field-independent basis, Debye-Ang):
   XX=            -57.3755   YY=            -57.6276   ZZ=            -62.6362
   XY=             -6.8925   XZ=              8.7455   YZ=              1.5527

 Normal termination of Gaussian 09 at Sat Feb 11 00:07:48 2017.
