 Gaussian 09, Revision A.02,
 Gaussian 09:  EM64L-G09RevA.02 11-Jun-2009

 ----------------------------------------------------------------------
 # b3lyp/6-31G* Opt=(ModRedundant, maxcycles=1000, calcfc) geom=nocrowd
 ----------------------------------------------------------------------

 ------------------
 Phi Psi fixed scan
 ------------------
 Symbolic Z-matrix:
 Charge =  0 Multiplicity = 1

 SCF Done:  E(RB3LYP) =  -495.352582016     A.U. after   21 cycles

  Exact polarizability:   0.000   0.000   0.000   0.000   0.000   0.000
 Approx polarizability: 201.910 -13.977 143.018  -1.702 -17.608  90.289

 SCF Done:  E(RB3LYP) =  -495.464592105     A.U. after   16 cycles
 SCF Done:  E(RB3LYP) =  -495.631906236     A.U. after   15 cycles
 SCF Done:  E(RB3LYP) =  -495.763731606     A.U. after   14 cycles
 SCF Done:  E(RB3LYP) =  -495.777868191     A.U. after   13 cycles
 SCF Done:  E(RB3LYP) =  -495.810432570     A.U. after   13 cycles
 SCF Done:  E(RB3LYP) =  -495.819174183     A.U. after   13 cycles
 SCF Done:  E(RB3LYP) =  -495.825268750     A.U. after   12 cycles
 SCF Done:  E(RB3LYP) =  -495.830594348     A.U. after   13 cycles
 SCF Done:  E(RB3LYP) =  -495.835551038     A.U. after   13 cycles
 SCF Done:  E(RB3LYP) =  -495.843600023     A.U. after   10 cycles
 SCF Done:  E(RB3LYP) =  -495.843606305     A.U. after   10 cycles
 SCF Done:  E(RB3LYP) =  -495.843608505     A.U. after   10 cycles
 SCF Done:  E(RB3LYP) =  -495.843609902     A.U. after   10 cycles
 SCF Done:  E(RB3LYP) =  -495.843610737     A.U. after    9 cycles
 SCF Done:  E(RB3LYP) =  -495.843610968     A.U. after    7 cycles
 SCF Done:  E(RB3LYP) =  -495.843611053     A.U. after    7 cycles
 SCF Done:  E(RB3LYP) =  -495.843611120     A.U. after    7 cycles
 SCF Done:  E(RB3LYP) =  -495.843611138     A.U. after    6 cycles
 SCF Done:  E(RB3LYP) =  -495.843611160     A.U. after    7 cycles
 Optimization completed.
    -- Stationary point found.

                         Standard orientation:
 ---------------------------------------------------------------------
 Center     Atomic      Atomic             Coordinates (Angstroms)
 Number     Number       Type             X           Y           Z
 ---------------------------------------------------------------------
      1          1           0       -3.918524   -0.661949    0.600098
      2          6           0       -3.348162   -0.524894   -0.323273
      3          1           0       -3.739241    0.346364   -0.857354
      4          1           0       -3.504905   -1.417013   -0.937561
      5          6           0       -1.869300   -0.437188    0.032398
      6          8           0       -1.345288   -1.349179    0.676654
      7          7           0       -1.245603    0.692865   -0.394539
      8          1           0       -1.844009    1.324104   -0.909250
      9          6           0        0.143724    1.209722   -0.308760
     10          1           0        0.291001    1.760455   -1.242550
     11          6           0        0.246481    2.209585    0.860872
     12          1           0        0.091409    1.695392    1.815451
     13          1           0        1.237383    2.669183    0.860690
     14          1           0       -0.512056    2.994650    0.766617
     15          6           0        1.391731    0.287697   -0.263465
     16          8           0        2.466871    0.843699   -0.487795
     17          7           0        1.269922   -1.025784   -0.000746
     18          1           0        0.365527   -1.371820    0.327380
     19          6           0        2.453881   -1.863932    0.087917
     20          1           0        3.109354   -1.672705   -0.765587
     21          1           0        3.028021   -1.666823    1.002468
     22          1           0        2.143016   -2.911507    0.081582
 ---------------------------------------------------------------------

 The electronic state is 1-A.
 Alpha  occ. eigenvalues --  -19.12733 -19.09610 -14.38040 -14.33841 -10.30742
 Alpha  occ. eigenvalues --  -10.27557 -10.24561 -10.20495 -10.20447 -10.18476
 Alpha  occ. eigenvalues --   -1.04554  -1.01722  -0.93778  -0.90198  -0.78619
 Alpha  occ. eigenvalues --   -0.73646  -0.69877  -0.64853  -0.60131  -0.56217
 Alpha  occ. eigenvalues --   -0.53021  -0.50666  -0.46856  -0.46358  -0.44513
 Alpha  occ. eigenvalues --   -0.43521  -0.42605  -0.41614  -0.41138  -0.40583
 Alpha  occ. eigenvalues --   -0.38603  -0.37764  -0.36659  -0.36219  -0.34190
 Alpha  occ. eigenvalues --   -0.27185  -0.26719  -0.24001  -0.23454
 Alpha virt. eigenvalues --    0.01327   0.03475   0.05261   0.11123   0.12260
 Alpha virt. eigenvalues --    0.12879   0.13878   0.15827   0.15942   0.16544
 Alpha virt. eigenvalues --    0.16712   0.17125   0.18060   0.19047   0.20219

 Mulliken atomic charges:
              1
     1  H    0.192495
     2  C   -0.531719
     3  H    0.146035
     4  H    0.191181
     5  C    0.606493
     6  O   -0.531543
     7  N   -0.601597
     8  H    0.331984
     9  C   -0.046839
    10  H    0.174015
    11  C   -0.438283
    12  H    0.162211
    13  H    0.186865
    14  H    0.136370
    15  C    0.598374
    16  O   -0.538647
    17  N   -0.622065
    18  H    0.390241
    19  C   -0.296910
    20  H    0.178303
    21  H    0.162066
    22  H    0.150970
 Sum of Mulliken atomic charges =   0.00000

 Dipole moment (field-independent basis, Debye):
    X=             -4.0089    Y=              0.7633    Z=             -0.9033  Tot=              4.1797
 Quadrupole moment (field-independent basis, Debye-Ang):
   XX=            -60.4297   YY=            -58.0609   ZZ=            -59.9635
   XY=             -8.8854   XZ=              5.6943   YZ=              0.8646

 Normal termination of Gaussian 09 at Sat Feb 11 00:16:25 2017.
