 Gaussian 09, Revision A.02,
 Gaussian 09:  EM64L-G09RevA.02 11-Jun-2009

 ----------------------------------------------------------------------
 # b3lyp/6-31G* Opt=(ModRedundant, maxcycles=1000, calcfc) geom=nocrowd
 ----------------------------------------------------------------------

 ------------------
 Phi Psi fixed scan
 ------------------
 Symbolic Z-matrix:
 Charge =  0 Multiplicity = 1

 SCF Done:  E(RB3LYP) =  -495.550703946     A.U. after   19 cycles

  Exact polarizability:   0.000   0.000   0.000   0.000   0.000   0.000
 Approx polarizability: 169.762  -3.732 132.681  -6.808 -19.707  96.236

 SCF Done:  E(RB3LYP) =  -495.608362742     A.U. after   15 cycles
 SCF Done:  E(RB3LYP) =  -495.696701718     A.U. after   15 cycles
 SCF Done:  E(RB3LYP) =  -495.773840790     A.U. after   15 cycles
 SCF Done:  E(RB3LYP) =  -495.791463676     A.U. after   14 cycles
 SCF Done:  E(RB3LYP) =  -495.816258445     A.U. after   13 cycles
 SCF Done:  E(RB3LYP) =  -495.789723852     A.U. after   15 cycles
 SCF Done:  E(RB3LYP) =  -495.819897302     A.U. after   14 cycles
 SCF Done:  E(RB3LYP) =  -495.824024952     A.U. after   12 cycles
 SCF Done:  E(RB3LYP) =  -495.830315102     A.U. after   13 cycles
 SCF Done:  E(RB3LYP) =  -495.843592990     A.U. after   12 cycles
 SCF Done:  E(RB3LYP) =  -495.843622533     A.U. after   11 cycles
 SCF Done:  E(RB3LYP) =  -495.843591483     A.U. after   12 cycles
 SCF Done:  E(RB3LYP) =  -495.843627125     A.U. after   11 cycles
 SCF Done:  E(RB3LYP) =  -495.843630358     A.U. after   10 cycles
 SCF Done:  E(RB3LYP) =  -495.843631183     A.U. after    9 cycles
 SCF Done:  E(RB3LYP) =  -495.843632357     A.U. after    9 cycles
 SCF Done:  E(RB3LYP) =  -495.843633725     A.U. after   10 cycles
 SCF Done:  E(RB3LYP) =  -495.843634533     A.U. after    8 cycles
 SCF Done:  E(RB3LYP) =  -495.843634689     A.U. after    8 cycles
 Optimization completed.
    -- Stationary point found.

                         Standard orientation:
 ---------------------------------------------------------------------
 Center     Atomic      Atomic             Coordinates (Angstroms)
 Number     Number       Type             X           Y           Z
 ---------------------------------------------------------------------
      1          1           0       -3.910842   -0.884563    0.431776
      2          6           0       -3.320025   -0.556860   -0.427839
      3          1           0       -3.751406    0.365426   -0.828712
      4          1           0       -3.391636   -1.339340   -1.190532
      5          6           0       -1.864612   -0.433947    0.004793
      6          8           0       -1.326847   -1.367585    0.603960
      7          7           0       -1.276251    0.755676   -0.295847
      8          1           0       -1.872033    1.395192   -0.802961
      9          6           0        0.122068    1.248005   -0.212192
     10          1           0        0.232814    1.922346   -1.063733
     11          6           0        0.317355    2.054101    1.087760
     12          1           0        0.202272    1.403827    1.960575
     13          1           0        1.319549    2.493090    1.104811
     14          1           0       -0.420136    2.861479    1.157136
     15          6           0        1.335772    0.293981   -0.374831
     16          8           0        2.305820    0.738386   -0.988029
     17          7           0        1.337969   -0.892491    0.264353
     18          1           0        0.444680   -1.250609    0.606850
     19          6           0        2.492902   -1.769226    0.167877
     20          1           0        3.399212   -1.233938    0.465112
     21          1           0        2.340541   -2.621207    0.834572
     22          1           0        2.642419   -2.136726   -0.855289
 ---------------------------------------------------------------------

 The electronic state is 1-A.
 Alpha  occ. eigenvalues --  -19.12754 -19.09724 -14.37949 -14.33748 -10.30678
 Alpha  occ. eigenvalues --  -10.27423 -10.24391 -10.20482 -10.20405 -10.18726
 Alpha  occ. eigenvalues --   -1.04518  -1.01690  -0.93685  -0.90137  -0.78655
 Alpha  occ. eigenvalues --   -0.73716  -0.69694  -0.64985  -0.60020  -0.56045
 Alpha  occ. eigenvalues --   -0.53061  -0.50645  -0.46646  -0.46347  -0.44565
 Alpha  occ. eigenvalues --   -0.43369  -0.42452  -0.41594  -0.41279  -0.40768
 Alpha  occ. eigenvalues --   -0.38697  -0.37443  -0.36765  -0.36252  -0.34489
 Alpha  occ. eigenvalues --   -0.27626  -0.26650  -0.23846  -0.23223
 Alpha virt. eigenvalues --    0.01332   0.03472   0.05042   0.11047   0.12087
 Alpha virt. eigenvalues --    0.12740   0.13882   0.15567   0.16337   0.16465
 Alpha virt. eigenvalues --    0.16709   0.17409   0.17811   0.18840   0.19810

 Mulliken atomic charges:
              1
     1  H    0.192160
     2  C   -0.532908
     3  H    0.146978
     4  H    0.191298
     5  C    0.606779
     6  O   -0.528259
     7  N   -0.602519
     8  H    0.332577
     9  C   -0.047204
    10  H    0.171909
    11  C   -0.438203
    12  H    0.167175
    13  H    0.175153
    14  H    0.142801
    15  C    0.584028
    16  O   -0.531287
    17  N   -0.608958
    18  H    0.385739
    19  C   -0.295269
    20  H    0.174859
    21  H    0.150531
    22  H    0.162620
 Sum of Mulliken atomic charges =   0.00000

 Dipole moment (field-independent basis, Debye):
    X=             -3.8005    Y=              0.9886    Z=              0.0201  Tot=              3.9271
 Quadrupole moment (field-independent basis, Debye-Ang):
   XX=            -58.9885   YY=            -57.7898   ZZ=            -61.3864
   XY=             -8.0782   XZ=              8.0249   YZ=              1.5350

 Normal termination of Gaussian 09 at Sat Feb 11 00:26:29 2017.
