 Gaussian 09, Revision A.02,
 Gaussian 09:  EM64L-G09RevA.02 11-Jun-2009

 ----------------------------------------------------------------------
 # b3lyp/6-31G* Opt=(ModRedundant, maxcycles=1000, calcfc) geom=nocrowd
 ----------------------------------------------------------------------

 ------------------
 Phi Psi fixed scan
 ------------------
 Symbolic Z-matrix:
 Charge =  0 Multiplicity = 1

 SCF Done:  E(RB3LYP) =  -495.023873900     A.U. after   20 cycles

  Exact polarizability:   0.000   0.000   0.000   0.000   0.000   0.000
 Approx polarizability: 196.674 -15.578 137.469  -3.533 -18.956  92.830

 SCF Done:  E(RB3LYP) =  -495.205072088     A.U. after   17 cycles
 SCF Done:  E(RB3LYP) =  -495.454992449     A.U. after   18 cycles
 SCF Done:  E(RB3LYP) =  -495.665318007     A.U. after   15 cycles
 SCF Done:  E(RB3LYP) =  -495.754273827     A.U. after   14 cycles
 SCF Done:  E(RB3LYP) =  -495.766423930     A.U. after   14 cycles
 SCF Done:  E(RB3LYP) =  -495.790707931     A.U. after   13 cycles
 SCF Done:  E(RB3LYP) =  -495.810593224     A.U. after   13 cycles
 SCF Done:  E(RB3LYP) =  -495.817646961     A.U. after   13 cycles
 SCF Done:  E(RB3LYP) =  -495.814332992     A.U. after   13 cycles
 SCF Done:  E(RB3LYP) =  -495.843712829     A.U. after   10 cycles
 SCF Done:  E(RB3LYP) =  -495.843716813     A.U. after    9 cycles
 SCF Done:  E(RB3LYP) =  -495.843721117     A.U. after   10 cycles
 SCF Done:  E(RB3LYP) =  -495.843725991     A.U. after   10 cycles
 SCF Done:  E(RB3LYP) =  -495.843728279     A.U. after   10 cycles
 SCF Done:  E(RB3LYP) =  -495.843729796     A.U. after    9 cycles
 SCF Done:  E(RB3LYP) =  -495.843731017     A.U. after    9 cycles
 SCF Done:  E(RB3LYP) =  -495.843732045     A.U. after    9 cycles
 SCF Done:  E(RB3LYP) =  -495.843732451     A.U. after    8 cycles
 SCF Done:  E(RB3LYP) =  -495.843732568     A.U. after    7 cycles
 Optimization completed.
    -- Stationary point found.

                         Standard orientation:
 ---------------------------------------------------------------------
 Center     Atomic      Atomic             Coordinates (Angstroms)
 Number     Number       Type             X           Y           Z
 ---------------------------------------------------------------------
      1          1           0       -3.461032   -1.368438   -1.070623
      2          6           0       -3.341410   -0.525373   -0.382676
      3          1           0       -3.928460   -0.750154    0.512318
      4          1           0       -3.742509    0.376103   -0.855710
      5          6           0       -1.873599   -0.430196    0.014150
      6          8           0       -1.351839   -1.360123    0.633864
      7          7           0       -1.259014    0.728937   -0.343761
      8          1           0       -1.852639    1.369373   -0.852371
      9          6           0        0.137253    1.227958   -0.258196
     10          1           0        0.264917    1.848512   -1.148494
     11          6           0        0.291906    2.125270    0.987044
     12          1           0        0.163189    1.534863    1.900250
     13          1           0        1.288012    2.575751    0.992721
     14          1           0       -0.458250    2.923838    0.984330
     15          6           0        1.370772    0.288815   -0.322649
     16          8           0        2.411155    0.800322   -0.737506
     17          7           0        1.291302   -0.974600    0.129165
     18          1           0        0.390130   -1.319812    0.465680
     19          6           0        2.468128   -1.826400    0.130889
     20          1           0        2.942127   -1.830415   -0.855718
     21          1           0        3.213179   -1.479484    0.856916
     22          1           0        2.162483   -2.842536    0.390642
 ---------------------------------------------------------------------

 The electronic state is 1-A.
 Alpha  occ. eigenvalues --  -19.12777 -19.09539 -14.38016 -14.33797 -10.30739
 Alpha  occ. eigenvalues --  -10.27428 -10.24475 -10.20517 -10.20440 -10.18633
 Alpha  occ. eigenvalues --   -1.04558  -1.01623  -0.93749  -0.90144  -0.78650
 Alpha  occ. eigenvalues --   -0.73694  -0.69818  -0.64943  -0.60081  -0.56223
 Alpha  occ. eigenvalues --   -0.53064  -0.50681  -0.46708  -0.46376  -0.44556
 Alpha  occ. eigenvalues --   -0.43373  -0.42633  -0.41631  -0.41160  -0.40720
 Alpha  occ. eigenvalues --   -0.38706  -0.37587  -0.36742  -0.36260  -0.34211
 Alpha  occ. eigenvalues --   -0.27427  -0.26673  -0.23708  -0.23428
 Alpha virt. eigenvalues --    0.01324   0.03715   0.05045   0.11093   0.12172
 Alpha virt. eigenvalues --    0.12764   0.13880   0.15547   0.16242   0.16473
 Alpha virt. eigenvalues --    0.16771   0.17165   0.17982   0.18946   0.19954

 Mulliken atomic charges:
              1
     1  H    0.191344
     2  C   -0.532015
     3  H    0.192357
     4  H    0.146377
     5  C    0.607355
     6  O   -0.530395
     7  N   -0.602404
     8  H    0.332487
     9  C   -0.046195
    10  H    0.172601
    11  C   -0.438320
    12  H    0.164136
    13  H    0.181550
    14  H    0.140303
    15  C    0.590304
    16  O   -0.536878
    17  N   -0.618209
    18  H    0.390807
    19  C   -0.294380
    20  H    0.173125
    21  H    0.165168
    22  H    0.150883
 Sum of Mulliken atomic charges =   0.00000

 Dipole moment (field-independent basis, Debye):
    X=             -3.9563    Y=              0.8538    Z=             -0.4178  Tot=              4.0689
 Quadrupole moment (field-independent basis, Debye-Ang):
   XX=            -60.0906   YY=            -57.8677   ZZ=            -60.4786
   XY=             -8.6990   XZ=              6.9834   YZ=              1.2793

 Normal termination of Gaussian 09 at Sat Feb 11 00:14:33 2017.
