 Gaussian 09, Revision A.02,
 Gaussian 09:  EM64L-G09RevA.02 11-Jun-2009

 ----------------------------------------------------------------------
 # b3lyp/6-31G* Opt=(ModRedundant, maxcycles=1000, calcfc) geom=nocrowd
 ----------------------------------------------------------------------

 ------------------
 Phi Psi fixed scan
 ------------------
 Symbolic Z-matrix:
 Charge =  0 Multiplicity = 1

 SCF Done:  E(RB3LYP) =  -495.826451627     A.U. after   15 cycles

  Exact polarizability:   0.000   0.000   0.000   0.000   0.000   0.000
 Approx polarizability: 104.532  -3.778 104.949  10.314  -1.360 127.727

 SCF Done:  E(RB3LYP) =  -495.831485448     A.U. after   12 cycles
 SCF Done:  E(RB3LYP) =  -495.837239231     A.U. after   12 cycles
 SCF Done:  E(RB3LYP) =  -495.838931126     A.U. after   14 cycles
 SCF Done:  E(RB3LYP) =  -495.838258957     A.U. after   14 cycles
 SCF Done:  E(RB3LYP) =  -495.839197757     A.U. after   12 cycles
 SCF Done:  E(RB3LYP) =  -495.823259355     A.U. after   15 cycles
 SCF Done:  E(RB3LYP) =  -495.839256334     A.U. after   14 cycles
 SCF Done:  E(RB3LYP) =  -495.839486867     A.U. after   12 cycles
 SCF Done:  E(RB3LYP) =  -495.839611588     A.U. after   12 cycles
 SCF Done:  E(RB3LYP) =  -495.839752521     A.U. after   10 cycles
 SCF Done:  E(RB3LYP) =  -495.839766685     A.U. after   10 cycles
 SCF Done:  E(RB3LYP) =  -495.839790541     A.U. after   10 cycles
 SCF Done:  E(RB3LYP) =  -495.839820295     A.U. after   11 cycles
 SCF Done:  E(RB3LYP) =  -495.839856974     A.U. after   11 cycles
 SCF Done:  E(RB3LYP) =  -495.839883080     A.U. after   12 cycles
 SCF Done:  E(RB3LYP) =  -495.839888374     A.U. after   11 cycles
 SCF Done:  E(RB3LYP) =  -495.839889165     A.U. after   10 cycles
 SCF Done:  E(RB3LYP) =  -495.839889309     A.U. after    7 cycles
 SCF Done:  E(RB3LYP) =  -495.839889322     A.U. after    7 cycles
 Optimization completed.
    -- Stationary point found.

                         Standard orientation:
 ---------------------------------------------------------------------
 Center     Atomic      Atomic             Coordinates (Angstroms)
 Number     Number       Type             X           Y           Z
 ---------------------------------------------------------------------
      1          1           0       -3.146885   -2.150180    0.137141
      2          6           0       -3.084963   -1.071312   -0.020653
      3          1           0       -3.690008   -0.586069    0.754052
      4          1           0       -3.510797   -0.822247   -0.998218
      5          6           0       -1.632528   -0.638423    0.138404
      6          8           0       -0.886234   -1.160287    0.954026
      7          7           0       -1.236193    0.365859   -0.711038
      8          1           0       -1.955973    0.787006   -1.283790
      9          6           0        0.000244    1.155761   -0.594799
     10          1           0        0.315371    1.384796   -1.621011
     11          6           0       -0.239826    2.460478    0.168550
     12          1           0       -0.486780    2.244183    1.210625
     13          1           0        0.660709    3.081476    0.159274
     14          1           0       -1.059004    3.026996   -0.289703
     15          6           0        1.157924    0.358765    0.063852
     16          8           0        1.629870    0.677189    1.142292
     17          7           0        1.730279   -0.575527   -0.761844
     18          1           0        1.139532   -0.926844   -1.505777
     19          6           0        2.705559   -1.512145   -0.219393
     20          1           0        3.403373   -0.956058    0.408201
     21          1           0        2.231852   -2.288510    0.395363
     22          1           0        3.252460   -1.980836   -1.042281
 ---------------------------------------------------------------------

 The electronic state is 1-A.
 Alpha  occ. eigenvalues --  -19.11298 -19.10255 -14.36804 -14.34941 -10.29242
 Alpha  occ. eigenvalues --  -10.27799 -10.23902 -10.20604 -10.19689 -10.17818
 Alpha  occ. eigenvalues --   -1.03553  -1.02070  -0.92794  -0.90742  -0.77880
 Alpha  occ. eigenvalues --   -0.72956  -0.70123  -0.63782  -0.59610  -0.56343
 Alpha  occ. eigenvalues --   -0.51893  -0.49574  -0.46690  -0.46155  -0.44578
 Alpha  occ. eigenvalues --   -0.43487  -0.41714  -0.41324  -0.40056  -0.39870
 Alpha  occ. eigenvalues --   -0.38119  -0.37243  -0.36469  -0.35717  -0.35224
 Alpha  occ. eigenvalues --   -0.26064  -0.24952  -0.24811  -0.23692
 Alpha virt. eigenvalues --    0.02384   0.02715   0.06662   0.09343   0.11595
 Alpha virt. eigenvalues --    0.13097   0.13681   0.14666   0.15634   0.16149
 Alpha virt. eigenvalues --    0.17064   0.17936   0.18084   0.18755   0.20169

 Mulliken atomic charges:
              1
     1  H    0.188704
     2  C   -0.541797
     3  H    0.186478
     4  H    0.146690
     5  C    0.591645
     6  O   -0.491467
     7  N   -0.603808
     8  H    0.320704
     9  C   -0.057086
    10  H    0.151376
    11  C   -0.430124
    12  H    0.184383
    13  H    0.163335
    14  H    0.123874
    15  C    0.633993
    16  O   -0.509265
    17  N   -0.580620
    18  H    0.321536
    19  C   -0.306775
    20  H    0.191069
    21  H    0.172068
    22  H    0.145086
 Sum of Mulliken atomic charges =   0.00000

 Dipole moment (field-independent basis, Debye):
    X=             -2.7418    Y=              0.2464    Z=             -4.6580  Tot=              5.4106
 Quadrupole moment (field-independent basis, Debye-Ang):
   XX=            -53.1105   YY=            -57.8726   ZZ=            -61.8729
   XY=             -4.8029   XZ=             -1.1917   YZ=              0.5599

 Normal termination of Gaussian 09 at Sat Feb 11 00:15:22 2017.
