 Gaussian 09, Revision A.02,
 Gaussian 09:  EM64L-G09RevA.02 11-Jun-2009

 ----------------------------------------------------------------------
 # b3lyp/6-31G* Opt=(ModRedundant, maxcycles=1000, calcfc) geom=nocrowd
 ----------------------------------------------------------------------

 ------------------
 Phi Psi fixed scan
 ------------------
 Symbolic Z-matrix:
 Charge =  0 Multiplicity = 1

 SCF Done:  E(RB3LYP) =  -495.648474939     A.U. after   16 cycles

  Exact polarizability:   0.000   0.000   0.000   0.000   0.000   0.000
 Approx polarizability: 151.004   3.323 130.975   4.561 -15.100  92.385

 SCF Done:  E(RB3LYP) =  -495.690733161     A.U. after   15 cycles
 SCF Done:  E(RB3LYP) =  -495.750669907     A.U. after   15 cycles
 SCF Done:  E(RB3LYP) =  -495.785294866     A.U. after   16 cycles
 SCF Done:  E(RB3LYP) =  -495.814288595     A.U. after   16 cycles
 SCF Done:  E(RB3LYP) =  -495.827379529     A.U. after   15 cycles
 SCF Done:  E(RB3LYP) =  -495.820124453     A.U. after   14 cycles
 SCF Done:  E(RB3LYP) =  -495.830756520     A.U. after   13 cycles
 SCF Done:  E(RB3LYP) =  -495.834134424     A.U. after   13 cycles
 SCF Done:  E(RB3LYP) =  -495.836298030     A.U. after   12 cycles
 SCF Done:  E(RB3LYP) =  -495.842963380     A.U. after   10 cycles
 SCF Done:  E(RB3LYP) =  -495.842975363     A.U. after   10 cycles
 SCF Done:  E(RB3LYP) =  -495.842990454     A.U. after   10 cycles
 SCF Done:  E(RB3LYP) =  -495.843020859     A.U. after   11 cycles
 SCF Done:  E(RB3LYP) =  -495.843072781     A.U. after   11 cycles
 SCF Done:  E(RB3LYP) =  -495.843100340     A.U. after   11 cycles
 SCF Done:  E(RB3LYP) =  -495.843106087     A.U. after   10 cycles
 SCF Done:  E(RB3LYP) =  -495.843107254     A.U. after    9 cycles
 SCF Done:  E(RB3LYP) =  -495.843107436     A.U. after    7 cycles
 SCF Done:  E(RB3LYP) =  -495.843107481     A.U. after    7 cycles
 Optimization completed.
    -- Stationary point found.

                         Standard orientation:
 ---------------------------------------------------------------------
 Center     Atomic      Atomic             Coordinates (Angstroms)
 Number     Number       Type             X           Y           Z
 ---------------------------------------------------------------------
      1          1           0       -3.889088   -0.606571    0.692433
      2          6           0       -3.341533   -0.554923   -0.253509
      3          1           0       -3.738227    0.273196   -0.848666
      4          1           0       -3.522650   -1.493884   -0.785315
      5          6           0       -1.853345   -0.454281    0.056952
      6          8           0       -1.309114   -1.333947    0.728214
      7          7           0       -1.237687    0.647975   -0.447621
      8          1           0       -1.847054    1.259968   -0.972838
      9          6           0        0.139215    1.192542   -0.361316
     10          1           0        0.311948    1.661851   -1.336272
     11          6           0        0.182020    2.293201    0.716075
     12          1           0       -0.016786    1.864417    1.704199
     13          1           0        1.170082    2.757182    0.722487
     14          1           0       -0.574671    3.060372    0.516545
     15          6           0        1.393732    0.291697   -0.197264
     16          8           0        2.475742    0.875720   -0.229702
     17          7           0        1.270039   -1.049524   -0.125995
     18          1           0        0.366693   -1.417646    0.178614
     19          6           0        2.459550   -1.871952    0.032051
     20          1           0        3.214235   -1.568734   -0.697221
     21          1           0        2.900255   -1.774326    1.032887
     22          1           0        2.187942   -2.916862   -0.137564
 ---------------------------------------------------------------------

 The electronic state is 1-A.
 Alpha  occ. eigenvalues --  -19.12621 -19.09863 -14.38016 -14.33867 -10.30685
 Alpha  occ. eigenvalues --  -10.27714 -10.24628 -10.20453 -10.20427 -10.18300
 Alpha  occ. eigenvalues --   -1.04506  -1.01932  -0.93772  -0.90247  -0.78575
 Alpha  occ. eigenvalues --   -0.73586  -0.69881  -0.64736  -0.60175  -0.56082
 Alpha  occ. eigenvalues --   -0.52951  -0.50607  -0.47018  -0.46339  -0.44489
 Alpha  occ. eigenvalues --   -0.43639  -0.42487  -0.41537  -0.41210  -0.40375
 Alpha  occ. eigenvalues --   -0.38448  -0.37942  -0.36623  -0.36097  -0.34306
 Alpha  occ. eigenvalues --   -0.26977  -0.26740  -0.24294  -0.23574
 Alpha virt. eigenvalues --    0.01329   0.03064   0.05485   0.11107   0.12277
 Alpha virt. eigenvalues --    0.13070   0.13850   0.15605   0.15942   0.16578
 Alpha virt. eigenvalues --    0.16632   0.17238   0.18131   0.19105   0.20453

 Mulliken atomic charges:
              1
     1  H    0.192493
     2  C   -0.531807
     3  H    0.145781
     4  H    0.190784
     5  C    0.604278
     6  O   -0.531920
     7  N   -0.600183
     8  H    0.331058
     9  C   -0.048998
    10  H    0.175707
    11  C   -0.438241
    12  H    0.161626
    13  H    0.190586
    14  H    0.132331
    15  C    0.604735
    16  O   -0.535672
    17  N   -0.620595
    18  H    0.385553
    19  C   -0.298811
    20  H    0.179295
    21  H    0.161757
    22  H    0.150243
 Sum of Mulliken atomic charges =   0.00000

 Dipole moment (field-independent basis, Debye):
    X=             -4.0007    Y=              0.6775    Z=             -1.4254  Tot=              4.3007
 Quadrupole moment (field-independent basis, Debye-Ang):
   XX=            -60.1799   YY=            -58.2230   ZZ=            -59.8125
   XY=             -8.6987   XZ=              4.2583   YZ=              0.4035

 Normal termination of Gaussian 09 at Sat Feb 11 00:10:02 2017.
