 Gaussian 09, Revision A.02,
 Gaussian 09:  EM64L-G09RevA.02 11-Jun-2009

 ----------------------------------------------------------------------
 # b3lyp/6-31G* Opt=(ModRedundant, maxcycles=1000, calcfc) geom=nocrowd
 ----------------------------------------------------------------------

 ------------------
 Phi Psi fixed scan
 ------------------
 Symbolic Z-matrix:
 Charge =  0 Multiplicity = 1

 SCF Done:  E(RB3LYP) =  -495.830663014     A.U. after   15 cycles

  Exact polarizability:   0.000   0.000   0.000   0.000   0.000   0.000
 Approx polarizability: 106.230  -0.278 110.442  15.226  -0.151 120.387

 SCF Done:  E(RB3LYP) =  -495.834544983     A.U. after   12 cycles
 SCF Done:  E(RB3LYP) =  -495.839322491     A.U. after   12 cycles
 SCF Done:  E(RB3LYP) =  -495.840835062     A.U. after   13 cycles
 SCF Done:  E(RB3LYP) =  -495.833136049     A.U. after   14 cycles
 SCF Done:  E(RB3LYP) =  -495.840927617     A.U. after   14 cycles
 SCF Done:  E(RB3LYP) =  -495.841207040     A.U. after   12 cycles
 SCF Done:  E(RB3LYP) =  -495.793078455     A.U. after   15 cycles
 SCF Done:  E(RB3LYP) =  -495.841267668     A.U. after   16 cycles
 SCF Done:  E(RB3LYP) =  -495.841422852     A.U. after   11 cycles
 SCF Done:  E(RB3LYP) =  -495.841571048     A.U. after   14 cycles
 SCF Done:  E(RB3LYP) =  -495.841648085     A.U. after   12 cycles
 SCF Done:  E(RB3LYP) =  -495.841670334     A.U. after   12 cycles
 SCF Done:  E(RB3LYP) =  -495.841699024     A.U. after   11 cycles
 SCF Done:  E(RB3LYP) =  -495.841701370     A.U. after    8 cycles
 SCF Done:  E(RB3LYP) =  -495.841701886     A.U. after    8 cycles
 Optimization completed.
    -- Stationary point found.

                         Standard orientation:
 ---------------------------------------------------------------------
 Center     Atomic      Atomic             Coordinates (Angstroms)
 Number     Number       Type             X           Y           Z
 ---------------------------------------------------------------------
      1          1           0       -3.052034   -2.132857    0.067411
      2          6           0       -3.044897   -1.043406   -0.016605
      3          1           0       -3.678080   -0.647617    0.785218
      4          1           0       -3.478752   -0.752480   -0.978726
      5          6           0       -1.618627   -0.548768    0.191390
      6          8           0       -0.893942   -1.015236    1.060119
      7          7           0       -1.226405    0.455020   -0.657077
      8          1           0       -1.916752    0.817674   -1.300053
      9          6           0        0.043234    1.195219   -0.595918
     10          1           0        0.311903    1.420592   -1.636503
     11          6           0       -0.107764    2.503066    0.185278
     12          1           0       -0.340814    2.290943    1.231826
     13          1           0        0.823737    3.073976    0.157610
     14          1           0       -0.910405    3.112805   -0.245247
     15          6           0        1.210619    0.353563   -0.017874
     16          8           0        1.904683    0.768512    0.895930
     17          7           0        1.499243   -0.780722   -0.730452
     18          1           0        0.738658   -1.155067   -1.283063
     19          6           0        2.430455   -1.756439   -0.180827
     20          1           0        3.292671   -1.222696    0.221240
     21          1           0        1.975074   -2.341312    0.628790
     22          1           0        2.760888   -2.429667   -0.976856
 ---------------------------------------------------------------------

 The electronic state is 1-A.
 Alpha  occ. eigenvalues --  -19.11515 -19.10395 -14.37152 -14.34697 -10.29517
 Alpha  occ. eigenvalues --  -10.27814 -10.23991 -10.20469 -10.19944 -10.17651
 Alpha  occ. eigenvalues --   -1.03764  -1.02175  -0.93055  -0.90639  -0.77989
 Alpha  occ. eigenvalues --   -0.73105  -0.70030  -0.63851  -0.59800  -0.56312
 Alpha  occ. eigenvalues --   -0.52308  -0.49773  -0.46565  -0.46356  -0.44689
 Alpha  occ. eigenvalues --   -0.43490  -0.41785  -0.41322  -0.40241  -0.39879
 Alpha  occ. eigenvalues --   -0.38069  -0.37151  -0.36482  -0.36009  -0.35115
 Alpha  occ. eigenvalues --   -0.26316  -0.25431  -0.24729  -0.23608
 Alpha virt. eigenvalues --    0.02128   0.02709   0.06479   0.09909   0.11246
 Alpha virt. eigenvalues --    0.13288   0.13708   0.14805   0.15593   0.16029
 Alpha virt. eigenvalues --    0.17211   0.17581   0.17990   0.18830   0.20199

 Mulliken atomic charges:
              1
     1  H    0.187844
     2  C   -0.539094
     3  H    0.189422
     4  H    0.144280
     5  C    0.588207
     6  O   -0.496618
     7  N   -0.607903
     8  H    0.323498
     9  C   -0.055336
    10  H    0.157460
    11  C   -0.424493
    12  H    0.179494
    13  H    0.168241
    14  H    0.123956
    15  C    0.626869
    16  O   -0.512408
    17  N   -0.574025
    18  H    0.321045
    19  C   -0.307450
    20  H    0.189587
    21  H    0.173129
    22  H    0.144294
 Sum of Mulliken atomic charges =   0.00000

 Dipole moment (field-independent basis, Debye):
    X=             -3.3916    Y=             -0.1858    Z=             -4.4036  Tot=              5.5614
 Quadrupole moment (field-independent basis, Debye-Ang):
   XX=            -55.8050   YY=            -56.9047   ZZ=            -61.6706
   XY=             -4.7705   XZ=             -0.2616   YZ=              0.1956

 Normal termination of Gaussian 09 at Sat Feb 11 00:11:07 2017.
