 Gaussian 09, Revision A.02,
 Gaussian 09:  EM64L-G09RevA.02 11-Jun-2009

 ----------------------------------------------------------------------
 # b3lyp/6-31G* Opt=(ModRedundant, maxcycles=1000, calcfc) geom=nocrowd
 ----------------------------------------------------------------------

 ------------------
 Phi Psi fixed scan
 ------------------
 Symbolic Z-matrix:
 Charge =  0 Multiplicity = 1

 SCF Done:  E(RB3LYP) =  -495.687884243     A.U. after   19 cycles

  Exact polarizability:   0.000   0.000   0.000   0.000   0.000   0.000
 Approx polarizability: 144.511   6.030 122.807  -1.943 -25.298 102.485

 SCF Done:  E(RB3LYP) =  -495.720427074     A.U. after   15 cycles
 SCF Done:  E(RB3LYP) =  -495.766245976     A.U. after   14 cycles
 SCF Done:  E(RB3LYP) =  -495.794576404     A.U. after   14 cycles
 SCF Done:  E(RB3LYP) =  -495.808384130     A.U. after   13 cycles
 SCF Done:  E(RB3LYP) =  -495.789374852     A.U. after   15 cycles
 SCF Done:  E(RB3LYP) =  -495.798487442     A.U. after   12 cycles
 SCF Done:  E(RB3LYP) =  -495.808384631     A.U. after   15 cycles
 SCF Done:  E(RB3LYP) =  -495.812506987     A.U. after   12 cycles
 SCF Done:  E(RB3LYP) =  -495.817413306     A.U. after   13 cycles
 SCF Done:  E(RB3LYP) =  -495.824852123     A.U. after   12 cycles
 SCF Done:  E(RB3LYP) =  -495.824996201     A.U. after   11 cycles
 SCF Done:  E(RB3LYP) =  -495.824996011     A.U. after   12 cycles
 SCF Done:  E(RB3LYP) =  -495.825017754     A.U. after   11 cycles
 SCF Done:  E(RB3LYP) =  -495.825023295     A.U. after   10 cycles
 SCF Done:  E(RB3LYP) =  -495.825024626     A.U. after    9 cycles
 SCF Done:  E(RB3LYP) =  -495.825024775     A.U. after    7 cycles
 SCF Done:  E(RB3LYP) =  -495.825024860     A.U. after    7 cycles
 SCF Done:  E(RB3LYP) =  -495.825024863     A.U. after    6 cycles
 SCF Done:  E(RB3LYP) =  -495.825024879     A.U. after    6 cycles
 Optimization completed.
    -- Stationary point found.

                         Standard orientation:
 ---------------------------------------------------------------------
 Center     Atomic      Atomic             Coordinates (Angstroms)
 Number     Number       Type             X           Y           Z
 ---------------------------------------------------------------------
      1          1           0       -3.747850   -1.482436   -0.030724
      2          6           0       -3.013872   -1.038518   -0.704605
      3          1           0       -3.530844   -0.426394   -1.453498
      4          1           0       -2.486974   -1.843668   -1.231642
      5          6           0       -2.020355   -0.225326    0.116500
      6          8           0       -1.943993   -0.313367    1.324832
      7          7           0       -1.290941    0.709912   -0.637367
      8          1           0       -1.511748    0.607774   -1.622534
      9          6           0        0.147850    0.996382   -0.487541
     10          1           0        0.492737    1.307856   -1.479354
     11          6           0        0.336528    2.168401    0.501834
     12          1           0       -0.047225    1.869786    1.481210
     13          1           0        1.391791    2.446571    0.605120
     14          1           0       -0.227850    3.040323    0.157885
     15          6           0        1.038353   -0.177029   -0.005754
     16          8           0        0.665298   -1.102487    0.693400
     17          7           0        2.321030   -0.089469   -0.494588
     18          1           0        2.590362    0.740794   -1.003501
     19          6           0        3.375877   -0.988487   -0.056939
     20          1           0        2.896615   -1.844244    0.420234
     21          1           0        3.964460   -1.333244   -0.913802
     22          1           0        4.049185   -0.511928    0.667468
 ---------------------------------------------------------------------

 The electronic state is 1-A.
 Alpha  occ. eigenvalues --  -19.11145 -19.10207 -14.36370 -14.35028 -10.28633
 Alpha  occ. eigenvalues --  -10.27910 -10.24424 -10.21878 -10.18491 -10.18253
 Alpha  occ. eigenvalues --   -1.03476  -1.01783  -0.92152  -0.91319  -0.77805
 Alpha  occ. eigenvalues --   -0.72415  -0.70536  -0.63950  -0.59022  -0.56425
 Alpha  occ. eigenvalues --   -0.51905  -0.49218  -0.46104  -0.45463  -0.44946
 Alpha  occ. eigenvalues --   -0.43846  -0.42199  -0.41048  -0.40395  -0.39057
 Alpha  occ. eigenvalues --   -0.38826  -0.37771  -0.37082  -0.35517  -0.33791
 Alpha  occ. eigenvalues --   -0.27154  -0.25320  -0.24374  -0.22406
 Alpha virt. eigenvalues --    0.01776   0.03595   0.05426   0.08022   0.11863
 Alpha virt. eigenvalues --    0.12886   0.14044   0.15275   0.15862   0.16203
 Alpha virt. eigenvalues --    0.16851   0.17376   0.18053   0.18471   0.19678

 Mulliken atomic charges:
              1
     1  H    0.187126
     2  C   -0.552370
     3  H    0.154790
     4  H    0.176167
     5  C    0.596173
     6  O   -0.460884
     7  N   -0.587644
     8  H    0.311718
     9  C   -0.062705
    10  H    0.133493
    11  C   -0.435269
    12  H    0.198915
    13  H    0.132089
    14  H    0.156241
    15  C    0.605051
    16  O   -0.488547
    17  N   -0.593786
    18  H    0.321220
    19  C   -0.310560
    20  H    0.206295
    21  H    0.154505
    22  H    0.157981
 Sum of Mulliken atomic charges =   0.00000

 Dipole moment (field-independent basis, Debye):
    X=              2.6479    Y=              2.0118    Z=             -4.9203  Tot=              5.9387
 Quadrupole moment (field-independent basis, Debye-Ang):
   XX=            -50.5049   YY=            -59.9670   ZZ=            -61.0208
   XY=              2.3822   XZ=              4.4294   YZ=              1.1764

 Normal termination of Gaussian 09 at Fri Feb 10 23:59:36 2017.
