 Gaussian 09, Revision A.02,
 Gaussian 09:  EM64L-G09RevA.02 11-Jun-2009

 ----------------------------------------------------------------------
 # b3lyp/6-31G* Opt=(ModRedundant, maxcycles=1000, calcfc) geom=nocrowd
 ----------------------------------------------------------------------

 ------------------
 Phi Psi fixed scan
 ------------------
 Symbolic Z-matrix:
 Charge =  0 Multiplicity = 1

 SCF Done:  E(RB3LYP) =  -495.827587420     A.U. after   15 cycles

  Exact polarizability:   0.000   0.000   0.000   0.000   0.000   0.000
 Approx polarizability: 110.442  -2.871 115.550  17.709   2.497 111.619

 SCF Done:  E(RB3LYP) =  -495.832835272     A.U. after   12 cycles
 SCF Done:  E(RB3LYP) =  -495.838817962     A.U. after   16 cycles
 SCF Done:  E(RB3LYP) =  -495.840427922     A.U. after   12 cycles
 SCF Done:  E(RB3LYP) =  -495.839748655     A.U. after   12 cycles
 SCF Done:  E(RB3LYP) =  -495.840467230     A.U. after   12 cycles
 SCF Done:  E(RB3LYP) =  -495.840659491     A.U. after   12 cycles
 SCF Done:  E(RB3LYP) =  -495.830900502     A.U. after   14 cycles
 SCF Done:  E(RB3LYP) =  -495.840772789     A.U. after   13 cycles
 SCF Done:  E(RB3LYP) =  -495.840878301     A.U. after   12 cycles
 SCF Done:  E(RB3LYP) =  -495.840932724     A.U. after   12 cycles
 SCF Done:  E(RB3LYP) =  -495.840964382     A.U. after   11 cycles
 SCF Done:  E(RB3LYP) =  -495.840984856     A.U. after   11 cycles
 SCF Done:  E(RB3LYP) =  -495.840987323     A.U. after   10 cycles
 SCF Done:  E(RB3LYP) =  -495.840987839     A.U. after   10 cycles
 SCF Done:  E(RB3LYP) =  -495.840988011     A.U. after    8 cycles
 SCF Done:  E(RB3LYP) =  -495.840988160     A.U. after    8 cycles
 SCF Done:  E(RB3LYP) =  -495.840988232     A.U. after    7 cycles
 SCF Done:  E(RB3LYP) =  -495.840988278     A.U. after    6 cycles
 Optimization completed.
    -- Stationary point found.

                         Standard orientation:
 ---------------------------------------------------------------------
 Center     Atomic      Atomic             Coordinates (Angstroms)
 Number     Number       Type             X           Y           Z
 ---------------------------------------------------------------------
      1          1           0       -3.153356   -1.997753   -0.030401
      2          6           0       -3.106329   -0.906610   -0.068776
      3          1           0       -3.745332   -0.522832    0.734140
      4          1           0       -3.506885   -0.561784   -1.027563
      5          6           0       -1.669319   -0.471987    0.196725
      6          8           0       -0.993926   -0.989160    1.077686
      7          7           0       -1.222251    0.551226   -0.598070
      8          1           0       -1.868515    0.917608   -1.282801
      9          6           0        0.094867    1.206390   -0.558101
     10          1           0        0.324216    1.467555   -1.600325
     11          6           0        0.042850    2.490461    0.277506
     12          1           0       -0.173831    2.249865    1.322046
     13          1           0        1.003524    3.007753    0.240940
     14          1           0       -0.739996    3.156441   -0.102347
     15          6           0        1.274746    0.314210   -0.090465
     16          8           0        2.160349    0.783307    0.609741
     17          7           0        1.332654   -0.939352   -0.630293
     18          1           0        0.458352   -1.324104   -0.957205
     19          6           0        2.301648   -1.900516   -0.123941
     20          1           0        3.245533   -1.382297    0.048720
     21          1           0        1.970131   -2.348166    0.821998
     22          1           0        2.451176   -2.690268   -0.865765
 ---------------------------------------------------------------------

 The electronic state is 1-A.
 Alpha  occ. eigenvalues --  -19.11614 -19.10529 -14.37312 -14.34723 -10.29681
 Alpha  occ. eigenvalues --  -10.27978 -10.24188 -10.20526 -10.20071 -10.17559
 Alpha  occ. eigenvalues --   -1.03842  -1.02353  -0.93173  -0.90717  -0.78074
 Alpha  occ. eigenvalues --   -0.73171  -0.70068  -0.64005  -0.59816  -0.56517
 Alpha  occ. eigenvalues --   -0.52643  -0.49908  -0.46586  -0.46468  -0.44707
 Alpha  occ. eigenvalues --   -0.43609  -0.41890  -0.41412  -0.40403  -0.39793
 Alpha  occ. eigenvalues --   -0.38191  -0.37301  -0.36462  -0.36149  -0.34988
 Alpha  occ. eigenvalues --   -0.26532  -0.25817  -0.24735  -0.23520
 Alpha virt. eigenvalues --    0.01923   0.02568   0.06250   0.10464   0.11045
 Alpha virt. eigenvalues --    0.13443   0.13797   0.14971   0.15387   0.16024
 Alpha virt. eigenvalues --    0.17315   0.17458   0.17861   0.18766   0.20066

 Mulliken atomic charges:
              1
     1  H    0.186766
     2  C   -0.537591
     3  H    0.190625
     4  H    0.143981
     5  C    0.577478
     6  O   -0.502486
     7  N   -0.605373
     8  H    0.325407
     9  C   -0.055634
    10  H    0.162901
    11  C   -0.422595
    12  H    0.174295
    13  H    0.174896
    14  H    0.124892
    15  C    0.625909
    16  O   -0.518584
    17  N   -0.571534
    18  H    0.326688
    19  C   -0.307978
    20  H    0.190205
    21  H    0.172323
    22  H    0.145412
 Sum of Mulliken atomic charges =   0.00000

 Dipole moment (field-independent basis, Debye):
    X=             -3.6517    Y=             -0.2015    Z=             -3.9402  Tot=              5.3759
 Quadrupole moment (field-independent basis, Debye-Ang):
   XX=            -57.8143   YY=            -56.6164   ZZ=            -61.2609
   XY=             -5.3049   XZ=              0.7932   YZ=              0.0811

 Normal termination of Gaussian 09 at Sat Feb 11 00:10:45 2017.
