 Gaussian 09, Revision A.02,
 Gaussian 09:  EM64L-G09RevA.02 11-Jun-2009

 ----------------------------------------------------------------------
 # b3lyp/6-31G* Opt=(ModRedundant, maxcycles=1000, calcfc) geom=nocrowd
 ----------------------------------------------------------------------

 ------------------
 Phi Psi fixed scan
 ------------------
 Symbolic Z-matrix:
 Charge =  0 Multiplicity = 1

 SCF Done:  E(RB3LYP) =  -495.822219493     A.U. after   15 cycles

  Exact polarizability:   0.000   0.000   0.000   0.000   0.000   0.000
 Approx polarizability: 110.474  10.550 112.758  10.657   6.310 114.861

 SCF Done:  E(RB3LYP) =  -495.828058827     A.U. after   12 cycles
 SCF Done:  E(RB3LYP) =  -495.836034611     A.U. after   13 cycles
 SCF Done:  E(RB3LYP) =  -495.839322482     A.U. after   13 cycles
 SCF Done:  E(RB3LYP) =  -495.839493773     A.U. after   13 cycles
 SCF Done:  E(RB3LYP) =  -495.840106050     A.U. after   12 cycles
 SCF Done:  E(RB3LYP) =  -495.840435317     A.U. after   14 cycles
 SCF Done:  E(RB3LYP) =  -495.840727480     A.U. after   13 cycles
 SCF Done:  E(RB3LYP) =  -495.840858387     A.U. after   12 cycles
 SCF Done:  E(RB3LYP) =  -495.840924086     A.U. after   11 cycles
 SCF Done:  E(RB3LYP) =  -495.840943127     A.U. after   12 cycles
 SCF Done:  E(RB3LYP) =  -495.840951794     A.U. after   11 cycles
 SCF Done:  E(RB3LYP) =  -495.840959120     A.U. after   10 cycles
 SCF Done:  E(RB3LYP) =  -495.840967288     A.U. after   10 cycles
 SCF Done:  E(RB3LYP) =  -495.840969483     A.U. after   10 cycles
 SCF Done:  E(RB3LYP) =  -495.840970021     A.U. after    8 cycles
 SCF Done:  E(RB3LYP) =  -495.840970095     A.U. after    8 cycles
 SCF Done:  E(RB3LYP) =  -495.840970097     A.U. after    6 cycles
 Optimization completed.
    -- Stationary point found.

                         Standard orientation:
 ---------------------------------------------------------------------
 Center     Atomic      Atomic             Coordinates (Angstroms)
 Number     Number       Type             X           Y           Z
 ---------------------------------------------------------------------
      1          1           0        3.482096   -1.526963   -0.746579
      2          6           0        3.087240   -0.984229    0.114947
      3          1           0        3.782085   -0.184007    0.389699
      4          1           0        3.020749   -1.688253    0.952651
      5          6           0        1.690176   -0.483706   -0.220361
      6          8           0        0.915294   -1.135516   -0.911483
      7          7           0        1.374133    0.749600    0.287055
      8          1           0        2.035287    1.144139    0.942154
      9          6           0        0.003284    1.282564    0.384556
     10          1           0       -0.039556    1.829789    1.330286
     11          6           0       -0.282321    2.253271   -0.770800
     12          1           0       -0.156269    1.762469   -1.741789
     13          1           0       -1.300521    2.650465   -0.708158
     14          1           0        0.421540    3.091695   -0.737127
     15          6           0       -1.051042    0.158327    0.577545
     16          8           0       -1.212723   -0.321231    1.692669
     17          7           0       -1.822691   -0.170125   -0.499610
     18          1           0       -1.378104   -0.035910   -1.397999
     19          6           0       -2.704412   -1.325905   -0.405133
     20          1           0       -3.263498   -1.266384    0.529753
     21          1           0       -3.401574   -1.313690   -1.247225
     22          1           0       -2.140449   -2.267623   -0.411794
 ---------------------------------------------------------------------

 The electronic state is 1-A.
 Alpha  occ. eigenvalues --  -19.11419 -19.10420 -14.36601 -14.34674 -10.29217
 Alpha  occ. eigenvalues --  -10.27734 -10.23950 -10.20472 -10.19493 -10.18807
 Alpha  occ. eigenvalues --   -1.03574  -1.02099  -0.92506  -0.90791  -0.78118
 Alpha  occ. eigenvalues --   -0.73119  -0.69389  -0.64806  -0.59226  -0.56112
 Alpha  occ. eigenvalues --   -0.52488  -0.49999  -0.46431  -0.45688  -0.44026
 Alpha  occ. eigenvalues --   -0.43612  -0.42014  -0.41288  -0.40264  -0.39894
 Alpha  occ. eigenvalues --   -0.38650  -0.37725  -0.36913  -0.35926  -0.34724
 Alpha  occ. eigenvalues --   -0.26712  -0.25881  -0.24546  -0.23105
 Alpha virt. eigenvalues --    0.01428   0.03130   0.06762   0.09387   0.11518
 Alpha virt. eigenvalues --    0.13152   0.14057   0.15401   0.15486   0.16322
 Alpha virt. eigenvalues --    0.17086   0.17647   0.18296   0.19052   0.20103

 Mulliken atomic charges:
              1
     1  H    0.187460
     2  C   -0.543948
     3  H    0.149198
     4  H    0.190778
     5  C    0.602115
     6  O   -0.520481
     7  N   -0.587768
     8  H    0.327266
     9  C   -0.041207
    10  H    0.167657
    11  C   -0.446401
    12  H    0.157193
    13  H    0.161721
    14  H    0.148239
    15  C    0.598894
    16  O   -0.518858
    17  N   -0.565341
    18  H    0.336432
    19  C   -0.306219
    20  H    0.185398
    21  H    0.146584
    22  H    0.171286
 Sum of Mulliken atomic charges =   0.00000

 Dipole moment (field-independent basis, Debye):
    X=              1.9690    Y=              2.3115    Z=             -0.9880  Tot=              3.1931
 Quadrupole moment (field-independent basis, Debye-Ang):
   XX=            -51.3916   YY=            -58.1038   ZZ=            -63.8218
   XY=              2.1184   XZ=              7.7642   YZ=              1.3403

 Normal termination of Gaussian 09 at Sat Feb 11 00:06:25 2017.
