 Gaussian 09, Revision A.02,
 Gaussian 09:  EM64L-G09RevA.02 11-Jun-2009

 ----------------------------------------------------------------------
 # b3lyp/6-31G* Opt=(ModRedundant, maxcycles=1000, calcfc) geom=nocrowd
 ----------------------------------------------------------------------

 ------------------
 Phi Psi fixed scan
 ------------------
 Symbolic Z-matrix:
 Charge =  0 Multiplicity = 1

 SCF Done:  E(RB3LYP) =  -495.813651674     A.U. after   15 cycles

  Exact polarizability:   0.000   0.000   0.000   0.000   0.000   0.000
 Approx polarizability: 108.212  12.681 114.490   4.522  12.010 115.748

 SCF Done:  E(RB3LYP) =  -495.823223493     A.U. after   13 cycles
 SCF Done:  E(RB3LYP) =  -495.833656914     A.U. after   15 cycles
 SCF Done:  E(RB3LYP) =  -495.830619632     A.U. after   14 cycles
 SCF Done:  E(RB3LYP) =  -495.835834483     A.U. after   13 cycles
 SCF Done:  E(RB3LYP) =  -495.837123405     A.U. after   12 cycles
 SCF Done:  E(RB3LYP) =  -495.839136965     A.U. after   13 cycles
 SCF Done:  E(RB3LYP) =  -495.840025682     A.U. after   12 cycles
 SCF Done:  E(RB3LYP) =  -495.840393351     A.U. after   12 cycles
 SCF Done:  E(RB3LYP) =  -495.839170793     A.U. after   12 cycles
 SCF Done:  E(RB3LYP) =  -495.840896729     A.U. after   11 cycles
 SCF Done:  E(RB3LYP) =  -495.840994533     A.U. after   12 cycles
 SCF Done:  E(RB3LYP) =  -495.841025620     A.U. after   11 cycles
 SCF Done:  E(RB3LYP) =  -495.841058014     A.U. after   12 cycles
 SCF Done:  E(RB3LYP) =  -495.841073102     A.U. after   11 cycles
 SCF Done:  E(RB3LYP) =  -495.841082242     A.U. after   10 cycles
 SCF Done:  E(RB3LYP) =  -495.841086551     A.U. after   10 cycles
 SCF Done:  E(RB3LYP) =  -495.841087090     A.U. after    7 cycles
 SCF Done:  E(RB3LYP) =  -495.841087300     A.U. after    7 cycles
 SCF Done:  E(RB3LYP) =  -495.841087392     A.U. after    7 cycles
 Optimization completed.
    -- Stationary point found.

                         Standard orientation:
 ---------------------------------------------------------------------
 Center     Atomic      Atomic             Coordinates (Angstroms)
 Number     Number       Type             X           Y           Z
 ---------------------------------------------------------------------
      1          1           0        3.584590   -1.515459   -0.472432
      2          6           0        3.124106   -0.917408    0.316705
      3          1           0        3.779283   -0.075937    0.564121
      4          1           0        3.026732   -1.552321    1.205148
      5          6           0        1.736997   -0.489610   -0.140213
      6          8           0        1.033238   -1.223540   -0.828608
      7          7           0        1.359622    0.767751    0.247077
      8          1           0        1.992226    1.233091    0.883880
      9          6           0       -0.020606    1.297927    0.272557
     10          1           0       -0.075161    1.926727    1.164185
     11          6           0       -0.291949    2.157514   -0.971496
     12          1           0       -0.191020    1.569372   -1.888546
     13          1           0       -1.303192    2.575960   -0.940751
     14          1           0        0.426436    2.983105   -1.021897
     15          6           0       -1.123155    0.233297    0.534371
     16          8           0       -1.545990    0.083142    1.675318
     17          7           0       -1.663433   -0.388929   -0.553802
     18          1           0       -0.995429   -0.556624   -1.298281
     19          6           0       -2.643568   -1.445752   -0.339659
     20          1           0       -3.405963   -1.087848    0.354146
     21          1           0       -3.110963   -1.694156   -1.296123
     22          1           0       -2.189799   -2.350291    0.086358
 ---------------------------------------------------------------------

 The electronic state is 1-A.
 Alpha  occ. eigenvalues --  -19.11968 -19.10706 -14.37045 -14.34337 -10.29760
 Alpha  occ. eigenvalues --  -10.27775 -10.24047 -10.20466 -10.19859 -10.18624
 Alpha  occ. eigenvalues --   -1.03920  -1.02313  -0.92899  -0.90630  -0.78270
 Alpha  occ. eigenvalues --   -0.73360  -0.69397  -0.64778  -0.59476  -0.55748
 Alpha  occ. eigenvalues --   -0.52646  -0.50157  -0.46664  -0.45878  -0.44164
 Alpha  occ. eigenvalues --   -0.43846  -0.42034  -0.41204  -0.40716  -0.40333
 Alpha  occ. eigenvalues --   -0.38625  -0.37545  -0.36526  -0.36045  -0.35262
 Alpha  occ. eigenvalues --   -0.27332  -0.26372  -0.24637  -0.23078
 Alpha virt. eigenvalues --    0.01228   0.02486   0.06304   0.10365   0.11433
 Alpha virt. eigenvalues --    0.13083   0.13882   0.15440   0.15712   0.16498
 Alpha virt. eigenvalues --    0.16883   0.17661   0.18096   0.18843   0.20448

 Mulliken atomic charges:
              1
     1  H    0.189311
     2  C   -0.542436
     3  H    0.151233
     4  H    0.189855
     5  C    0.599283
     6  O   -0.522475
     7  N   -0.591497
     8  H    0.328656
     9  C   -0.048401
    10  H    0.169947
    11  C   -0.433882
    12  H    0.159827
    13  H    0.161366
    14  H    0.144696
    15  C    0.585415
    16  O   -0.514617
    17  N   -0.567659
    18  H    0.349856
    19  C   -0.304280
    20  H    0.182692
    21  H    0.148700
    22  H    0.164411
 Sum of Mulliken atomic charges =   0.00000

 Dipole moment (field-independent basis, Debye):
    X=              2.5576    Y=              1.6468    Z=             -0.8136  Tot=              3.1489
 Quadrupole moment (field-independent basis, Debye-Ang):
   XX=            -53.3225   YY=            -57.5670   ZZ=            -64.4014
   XY=              3.5442   XZ=              8.4542   YZ=              0.2279

 Normal termination of Gaussian 09 at Sat Feb 11 00:12:26 2017.
