 Gaussian 09, Revision A.02,
 Gaussian 09:  EM64L-G09RevA.02 11-Jun-2009

 ----------------------------------------------------------------------
 # b3lyp/6-31G* Opt=(ModRedundant, maxcycles=1000, calcfc) geom=nocrowd
 ----------------------------------------------------------------------

 ------------------
 Phi Psi fixed scan
 ------------------
 Symbolic Z-matrix:
 Charge =  0 Multiplicity = 1

 SCF Done:  E(RB3LYP) =  -495.811086223     A.U. after   15 cycles

  Exact polarizability:   0.000   0.000   0.000   0.000   0.000   0.000
 Approx polarizability: 116.778  -4.921 120.083  17.010   6.769 103.246

 SCF Done:  E(RB3LYP) =  -495.821402036     A.U. after   13 cycles
 SCF Done:  E(RB3LYP) =  -495.830822596     A.U. after   15 cycles
 SCF Done:  E(RB3LYP) =  -495.836069280     A.U. after   13 cycles
 SCF Done:  E(RB3LYP) =  -495.811616584     A.U. after   15 cycles
 SCF Done:  E(RB3LYP) =  -495.836648608     A.U. after   13 cycles
 SCF Done:  E(RB3LYP) =  -495.837519842     A.U. after   11 cycles
 SCF Done:  E(RB3LYP) =  -495.838811796     A.U. after   16 cycles
 SCF Done:  E(RB3LYP) =  -495.839335745     A.U. after   12 cycles
 SCF Done:  E(RB3LYP) =  -495.839716629     A.U. after   12 cycles
 SCF Done:  E(RB3LYP) =  -495.840957148     A.U. after    8 cycles
 SCF Done:  E(RB3LYP) =  -495.840957327     A.U. after    7 cycles
 SCF Done:  E(RB3LYP) =  -495.840957467     A.U. after    7 cycles
 SCF Done:  E(RB3LYP) =  -495.840957760     A.U. after    7 cycles
 SCF Done:  E(RB3LYP) =  -495.840958287     A.U. after    7 cycles
 SCF Done:  E(RB3LYP) =  -495.840959694     A.U. after    8 cycles
 SCF Done:  E(RB3LYP) =  -495.840962748     A.U. after   10 cycles
 SCF Done:  E(RB3LYP) =  -495.840964318     A.U. after   10 cycles
 SCF Done:  E(RB3LYP) =  -495.840964330     A.U. after    7 cycles
 SCF Done:  E(RB3LYP) =  -495.840964318     A.U. after    6 cycles
 Optimization completed.
    -- Stationary point found.

                         Standard orientation:
 ---------------------------------------------------------------------
 Center     Atomic      Atomic             Coordinates (Angstroms)
 Number     Number       Type             X           Y           Z
 ---------------------------------------------------------------------
      1          1           0       -3.428812   -1.768704   -0.383886
      2          6           0       -3.270131   -0.722720   -0.107077
      3          1           0       -3.797490   -0.552704    0.837327
      4          1           0       -3.707799   -0.078267   -0.875668
      5          6           0       -1.780595   -0.502378    0.125096
      6          8           0       -1.145080   -1.242399    0.874731
      7          7           0       -1.240770    0.548524   -0.553758
      8          1           0       -1.885110    1.071860   -1.130589
      9          6           0        0.096208    1.169009   -0.474183
     10          1           0        0.327462    1.479757   -1.502107
     11          6           0        0.031592    2.421349    0.412967
     12          1           0       -0.218278    2.142615    1.441721
     13          1           0        0.999242    2.924833    0.417061
     14          1           0       -0.735266    3.112284    0.044569
     15          6           0        1.329485    0.309254   -0.082808
     16          8           0        2.327882    0.895473    0.319831
     17          7           0        1.326596   -1.014204   -0.411975
     18          1           0        0.435719   -1.478712   -0.262233
     19          6           0        2.509495   -1.805994   -0.093682
     20          1           0        3.394599   -1.307601   -0.493280
     21          1           0        2.649375   -1.931559    0.987946
     22          1           0        2.406838   -2.789750   -0.559102
 ---------------------------------------------------------------------

 The electronic state is 1-A.
 Alpha  occ. eigenvalues --  -19.12070 -19.10698 -14.37702 -14.34087 -10.30252
 Alpha  occ. eigenvalues --  -10.28070 -10.24552 -10.20394 -10.20261 -10.17967
 Alpha  occ. eigenvalues --   -1.04192  -1.02524  -0.93522  -0.90406  -0.78379
 Alpha  occ. eigenvalues --   -0.73402  -0.69843  -0.64404  -0.60120  -0.55812
 Alpha  occ. eigenvalues --   -0.52700  -0.50285  -0.47098  -0.46372  -0.44575
 Alpha  occ. eigenvalues --   -0.43682  -0.42183  -0.41470  -0.40962  -0.39957
 Alpha  occ. eigenvalues --   -0.38254  -0.37857  -0.36548  -0.35940  -0.34861
 Alpha  occ. eigenvalues --   -0.26899  -0.26327  -0.24885  -0.23710
 Alpha virt. eigenvalues --    0.01424   0.02301   0.05929   0.10984   0.11899
 Alpha virt. eigenvalues --    0.13500   0.13921   0.15121   0.15719   0.16123
 Alpha virt. eigenvalues --    0.16976   0.17572   0.17992   0.18802   0.20972

 Mulliken atomic charges:
              1
     1  H    0.188742
     2  C   -0.533688
     3  H    0.191537
     4  H    0.145385
     5  C    0.594010
     6  O   -0.527692
     7  N   -0.596753
     8  H    0.327861
     9  C   -0.052372
    10  H    0.174715
    11  C   -0.431664
    12  H    0.164938
    13  H    0.187436
    14  H    0.126291
    15  C    0.608258
    16  O   -0.520014
    17  N   -0.595388
    18  H    0.359152
    19  C   -0.302500
    20  H    0.179848
    21  H    0.164308
    22  H    0.147590
 Sum of Mulliken atomic charges =   0.00000

 Dipole moment (field-independent basis, Debye):
    X=             -3.7802    Y=              0.3962    Z=             -2.6344  Tot=              4.6247
 Quadrupole moment (field-independent basis, Debye-Ang):
   XX=            -58.0572   YY=            -57.9785   ZZ=            -60.7413
   XY=             -7.1660   XZ=              1.5019   YZ=             -0.2845

 Normal termination of Gaussian 09 at Sat Feb 11 00:09:44 2017.
