 Gaussian 09, Revision A.02,
 Gaussian 09:  EM64L-G09RevA.02 11-Jun-2009

 ----------------------------------------------------------------------
 # b3lyp/6-31G* Opt=(ModRedundant, maxcycles=1000, calcfc) geom=nocrowd
 ----------------------------------------------------------------------

 ------------------
 Phi Psi fixed scan
 ------------------
 Symbolic Z-matrix:
 Charge =  0 Multiplicity = 1

 SCF Done:  E(RB3LYP) =  -495.718556298     A.U. after   18 cycles

  Exact polarizability:   0.000   0.000   0.000   0.000   0.000   0.000
 Approx polarizability: 133.190   5.435 116.080  -5.352 -26.171 110.018

 SCF Done:  E(RB3LYP) =  -495.760388588     A.U. after   15 cycles
 SCF Done:  E(RB3LYP) =  -495.785780866     A.U. after   15 cycles
 SCF Done:  E(RB3LYP) =  -495.808233709     A.U. after   14 cycles
 SCF Done:  E(RB3LYP) =  -495.796722947     A.U. after   15 cycles
 SCF Done:  E(RB3LYP) =  -495.811962129     A.U. after   14 cycles
 SCF Done:  E(RB3LYP) =  -495.811633452     A.U. after   14 cycles
 SCF Done:  E(RB3LYP) =  -495.814874616     A.U. after   13 cycles
 SCF Done:  E(RB3LYP) =  -495.815935936     A.U. after   12 cycles
 SCF Done:  E(RB3LYP) =  -495.816980869     A.U. after   12 cycles
 SCF Done:  E(RB3LYP) =  -495.823122698     A.U. after   12 cycles
 SCF Done:  E(RB3LYP) =  -495.823453008     A.U. after   13 cycles
 SCF Done:  E(RB3LYP) =  -495.823638844     A.U. after   12 cycles
 SCF Done:  E(RB3LYP) =  -495.823964056     A.U. after   13 cycles
 SCF Done:  E(RB3LYP) =  -495.824098067     A.U. after   11 cycles
 SCF Done:  E(RB3LYP) =  -495.824145574     A.U. after   11 cycles
 SCF Done:  E(RB3LYP) =  -495.824152756     A.U. after   10 cycles
 SCF Done:  E(RB3LYP) =  -495.824153702     A.U. after    9 cycles
 SCF Done:  E(RB3LYP) =  -495.824153963     A.U. after    9 cycles
 SCF Done:  E(RB3LYP) =  -495.824154023     A.U. after    8 cycles
 Optimization completed.
    -- Stationary point found.

                         Standard orientation:
 ---------------------------------------------------------------------
 Center     Atomic      Atomic             Coordinates (Angstroms)
 Number     Number       Type             X           Y           Z
 ---------------------------------------------------------------------
      1          1           0       -4.001434   -1.290551   -0.339624
      2          6           0       -3.521773   -0.311002   -0.306977
      3          1           0       -3.935309    0.244377    0.543820
      4          1           0       -3.763393    0.240354   -1.222927
      5          6           0       -2.017987   -0.517794   -0.104858
      6          8           0       -1.576147   -1.527288    0.406385
      7          7           0       -1.266846    0.539871   -0.592079
      8          1           0       -1.831202    1.304487   -0.940637
      9          6           0        0.105672    0.990776   -0.322957
     10          1           0        0.439574    1.476580   -1.249040
     11          6           0        0.114499    2.038825    0.809435
     12          1           0       -0.185530    1.561485    1.746372
     13          1           0        1.116031    2.463986    0.937180
     14          1           0       -0.580565    2.856690    0.585435
     15          6           0        1.150425   -0.080925    0.065784
     16          8           0        1.040217   -0.818405    1.027821
     17          7           0        2.343414    0.079821   -0.602460
     18          1           0        2.329928    0.536815   -1.503732
     19          6           0        3.478336   -0.781335   -0.308298
     20          1           0        3.470075   -0.998958    0.760687
     21          1           0        3.432396   -1.734582   -0.851418
     22          1           0        4.405856   -0.264260   -0.570766
 ---------------------------------------------------------------------

 The electronic state is 1-A.
 Alpha  occ. eigenvalues --  -19.10627 -19.09690 -14.36130 -14.35626 -10.28351
 Alpha  occ. eigenvalues --  -10.27928 -10.24557 -10.21570 -10.18856 -10.18510
 Alpha  occ. eigenvalues --   -1.03033  -1.01575  -0.92057  -0.91460  -0.78088
 Alpha  occ. eigenvalues --   -0.72255  -0.70604  -0.64283  -0.59439  -0.56891
 Alpha  occ. eigenvalues --   -0.51273  -0.48905  -0.46873  -0.45728  -0.44172
 Alpha  occ. eigenvalues --   -0.43729  -0.42191  -0.41466  -0.40051  -0.38932
 Alpha  occ. eigenvalues --   -0.38919  -0.37662  -0.37011  -0.35701  -0.34371
 Alpha  occ. eigenvalues --   -0.25934  -0.24736  -0.24448  -0.22353
 Alpha virt. eigenvalues --    0.02337   0.03840   0.05480   0.08077   0.12299
 Alpha virt. eigenvalues --    0.12519   0.13522   0.15315   0.15902   0.16099
 Alpha virt. eigenvalues --    0.16455   0.17459   0.17995   0.18762   0.19824

 Mulliken atomic charges:
              1
     1  H    0.186874
     2  C   -0.548380
     3  H    0.174814
     4  H    0.146570
     5  C    0.584534
     6  O   -0.463363
     7  N   -0.599944
     8  H    0.315528
     9  C   -0.029700
    10  H    0.126542
    11  C   -0.442725
    12  H    0.190050
    13  H    0.155040
    14  H    0.136339
    15  C    0.609441
    16  O   -0.479974
    17  N   -0.590657
    18  H    0.320632
    19  C   -0.303974
    20  H    0.198689
    21  H    0.163639
    22  H    0.150024
 Sum of Mulliken atomic charges =   0.00000

 Dipole moment (field-independent basis, Debye):
    X=              0.7607    Y=              4.6632    Z=             -3.5886  Tot=              5.9332
 Quadrupole moment (field-independent basis, Debye-Ang):
   XX=            -47.4073   YY=            -62.4709   ZZ=            -59.5203
   XY=             -4.2637   XZ=             -2.2832   YZ=              1.6360

 Normal termination of Gaussian 09 at Sat Feb 11 00:01:45 2017.
