 Gaussian 09, Revision A.02,
 Gaussian 09:  EM64L-G09RevA.02 11-Jun-2009

 ----------------------------------------------------------------------
 # b3lyp/6-31G* Opt=(ModRedundant, maxcycles=1000, calcfc) geom=nocrowd
 ----------------------------------------------------------------------

 ------------------
 Phi Psi fixed scan
 ------------------
 Symbolic Z-matrix:
 Charge =  0 Multiplicity = 1

 SCF Done:  E(RB3LYP) =  -495.763698988     A.U. after   16 cycles

  Exact polarizability:   0.000   0.000   0.000   0.000   0.000   0.000
 Approx polarizability: 127.218   5.992 124.817  12.468 -11.367  96.747

 SCF Done:  E(RB3LYP) =  -495.785329612     A.U. after   13 cycles
 SCF Done:  E(RB3LYP) =  -495.808882370     A.U. after   13 cycles
 SCF Done:  E(RB3LYP) =  -495.827633930     A.U. after   13 cycles
 SCF Done:  E(RB3LYP) =  -495.828832508     A.U. after   15 cycles
 SCF Done:  E(RB3LYP) =  -495.835512369     A.U. after   15 cycles
 SCF Done:  E(RB3LYP) =  -495.839423032     A.U. after   15 cycles
 SCF Done:  E(RB3LYP) =  -495.831863402     A.U. after   15 cycles
 SCF Done:  E(RB3LYP) =  -495.839862244     A.U. after   13 cycles
 SCF Done:  E(RB3LYP) =  -495.836946345     A.U. after   14 cycles
 SCF Done:  E(RB3LYP) =  -495.842165688     A.U. after   10 cycles
 SCF Done:  E(RB3LYP) =  -495.842184071     A.U. after   10 cycles
 SCF Done:  E(RB3LYP) =  -495.842188124     A.U. after    9 cycles
 SCF Done:  E(RB3LYP) =  -495.842192876     A.U. after   10 cycles
 SCF Done:  E(RB3LYP) =  -495.842193640     A.U. after    8 cycles
 SCF Done:  E(RB3LYP) =  -495.842193899     A.U. after    7 cycles
 SCF Done:  E(RB3LYP) =  -495.842194095     A.U. after    7 cycles
 SCF Done:  E(RB3LYP) =  -495.842194510     A.U. after    7 cycles
 SCF Done:  E(RB3LYP) =  -495.842194905     A.U. after    7 cycles
 SCF Done:  E(RB3LYP) =  -495.842195063     A.U. after    7 cycles
 Optimization completed.
    -- Stationary point found.

                         Standard orientation:
 ---------------------------------------------------------------------
 Center     Atomic      Atomic             Coordinates (Angstroms)
 Number     Number       Type             X           Y           Z
 ---------------------------------------------------------------------
      1          1           0       -3.503374   -1.607236   -0.608429
      2          6           0       -3.318263   -0.618015   -0.179580
      3          1           0       -3.846749   -0.575184    0.777949
      4          1           0       -3.732724    0.143749   -0.846994
      5          6           0       -1.825094   -0.477386    0.088125
      6          8           0       -1.243229   -1.304078    0.792640
      7          7           0       -1.235991    0.598492   -0.500321
      8          1           0       -1.860965    1.176709   -1.045247
      9          6           0        0.123548    1.177983   -0.415096
     10          1           0        0.326229    1.562936   -1.422547
     11          6           0        0.107799    2.366187    0.562146
     12          1           0       -0.130067    2.020636    1.573761
     13          1           0        1.089557    2.841978    0.574927
     14          1           0       -0.647255    3.101987    0.263049
     15          6           0        1.373562    0.299111   -0.132864
     16          8           0        2.433485    0.895313    0.039804
     17          7           0        1.287745   -1.047458   -0.259551
     18          1           0        0.389794   -1.456039   -0.000442
     19          6           0        2.481512   -1.850830   -0.032535
     20          1           0        3.303524   -1.460126   -0.636098
     21          1           0        2.798699   -1.837698    1.018451
     22          1           0        2.270622   -2.881137   -0.330000
 ---------------------------------------------------------------------

 The electronic state is 1-A.
 Alpha  occ. eigenvalues --  -19.12409 -19.10260 -14.37919 -14.33913 -10.30538
 Alpha  occ. eigenvalues --  -10.27891 -10.24646 -10.20410 -10.20373 -10.18132
 Alpha  occ. eigenvalues --   -1.04394  -1.02220  -0.93701  -0.90300  -0.78508
 Alpha  occ. eigenvalues --   -0.73513  -0.69858  -0.64591  -0.60183  -0.55886
 Alpha  occ. eigenvalues --   -0.52846  -0.50493  -0.47129  -0.46338  -0.44518
 Alpha  occ. eigenvalues --   -0.43680  -0.42340  -0.41424  -0.41265  -0.40156
 Alpha  occ. eigenvalues --   -0.38288  -0.38035  -0.36606  -0.35964  -0.34545
 Alpha  occ. eigenvalues --   -0.26944  -0.26577  -0.24592  -0.23692
 Alpha virt. eigenvalues --    0.01334   0.02627   0.05686   0.11044   0.12190
 Alpha virt. eigenvalues --    0.13315   0.13830   0.15368   0.15851   0.16426
 Alpha virt. eigenvalues --    0.16753   0.17402   0.18153   0.19023   0.20709

 Mulliken atomic charges:
              1
     1  H    0.190049
     2  C   -0.532405
     3  H    0.192263
     4  H    0.145561
     5  C    0.600584
     6  O   -0.531323
     7  N   -0.598078
     8  H    0.329699
     9  C   -0.051277
    10  H    0.176560
    11  C   -0.436353
    12  H    0.162316
    13  H    0.191357
    14  H    0.128947
    15  C    0.606105
    16  O   -0.528335
    17  N   -0.611662
    18  H    0.375857
    19  C   -0.300206
    20  H    0.178717
    21  H    0.162593
    22  H    0.149033
 Sum of Mulliken atomic charges =   0.00000

 Dipole moment (field-independent basis, Debye):
    X=             -3.9272    Y=              0.5738    Z=             -1.9908  Tot=              4.4402
 Quadrupole moment (field-independent basis, Debye-Ang):
   XX=            -59.3686   YY=            -58.2437   ZZ=            -60.0639
   XY=             -8.1309   XZ=              2.7987   YZ=             -0.0211

 Normal termination of Gaussian 09 at Sat Feb 11 00:12:03 2017.
