 Gaussian 09, Revision A.02,
 Gaussian 09:  EM64L-G09RevA.02 11-Jun-2009

 ----------------------------------------------------------------------
 # b3lyp/6-31G* Opt=(ModRedundant, maxcycles=1000, calcfc) geom=nocrowd
 ----------------------------------------------------------------------

 ------------------
 Phi Psi fixed scan
 ------------------
 Symbolic Z-matrix:
 Charge =  0 Multiplicity = 1

 SCF Done:  E(RB3LYP) =  -495.751907495     A.U. after   17 cycles

  Exact polarizability:   0.000   0.000   0.000   0.000   0.000   0.000
 Approx polarizability: 134.346   7.023 125.351   4.993 -15.157  91.987

 SCF Done:  E(RB3LYP) =  -495.782559626     A.U. after   14 cycles
 SCF Done:  E(RB3LYP) =  -495.804183071     A.U. after   16 cycles
 SCF Done:  E(RB3LYP) =  -495.810124223     A.U. after   14 cycles
 SCF Done:  E(RB3LYP) =  -495.812750293     A.U. after   14 cycles
 SCF Done:  E(RB3LYP) =  -495.812504688     A.U. after   14 cycles
 SCF Done:  E(RB3LYP) =  -495.812752899     A.U. after   14 cycles
 SCF Done:  E(RB3LYP) =  -495.813335474     A.U. after   14 cycles
 SCF Done:  E(RB3LYP) =  -495.810338924     A.U. after   13 cycles
 SCF Done:  E(RB3LYP) =  -495.813572837     A.U. after   13 cycles
 SCF Done:  E(RB3LYP) =  -495.831166116     A.U. after   11 cycles
 SCF Done:  E(RB3LYP) =  -495.831305065     A.U. after   11 cycles
 SCF Done:  E(RB3LYP) =  -495.831447938     A.U. after   11 cycles
 SCF Done:  E(RB3LYP) =  -495.831561675     A.U. after   12 cycles
 SCF Done:  E(RB3LYP) =  -495.831580317     A.U. after   11 cycles
 SCF Done:  E(RB3LYP) =  -495.831586459     A.U. after   10 cycles
 SCF Done:  E(RB3LYP) =  -495.831598687     A.U. after    9 cycles
 SCF Done:  E(RB3LYP) =  -495.831601669     A.U. after   10 cycles
 SCF Done:  E(RB3LYP) =  -495.831602039     A.U. after    8 cycles
 SCF Done:  E(RB3LYP) =  -495.831602102     A.U. after    7 cycles
 Optimization completed.
    -- Stationary point found.

                         Standard orientation:
 ---------------------------------------------------------------------
 Center     Atomic      Atomic             Coordinates (Angstroms)
 Number     Number       Type             X           Y           Z
 ---------------------------------------------------------------------
      1          1           0       -3.623567   -1.464181    0.376174
      2          6           0       -3.002955   -1.020319   -0.403662
      3          1           0       -3.630541   -0.423009   -1.075483
      4          1           0       -2.541700   -1.825195   -0.988261
      5          6           0       -1.902773   -0.198738    0.245163
      6          8           0       -1.589573   -0.313906    1.415799
      7          7           0       -1.335223    0.783058   -0.580542
      8          1           0       -1.663093    0.685915   -1.535975
      9          6           0        0.109967    1.048899   -0.557690
     10          1           0        0.393217    1.328144   -1.579027
     11          6           0        0.396486    2.237346    0.383232
     12          1           0        0.143384    1.958939    1.409890
     13          1           0        1.441318    2.569053    0.350797
     14          1           0       -0.228658    3.087021    0.094338
     15          6           0        0.953007   -0.207921   -0.198875
     16          8           0        0.480721   -1.334571   -0.160960
     17          7           0        2.304834    0.012620   -0.170614
     18          1           0        2.636499    0.959339   -0.057839
     19          6           0        3.236456   -1.062986    0.134406
     20          1           0        3.382406   -1.195122    1.214536
     21          1           0        2.830706   -1.990083   -0.272438
     22          1           0        4.202446   -0.850436   -0.332771
 ---------------------------------------------------------------------

 The electronic state is 1-A.
 Alpha  occ. eigenvalues --  -19.11269 -19.10020 -14.36267 -14.34718 -10.28566
 Alpha  occ. eigenvalues --  -10.27710 -10.24225 -10.21835 -10.18681 -10.18090
 Alpha  occ. eigenvalues --   -1.03617  -1.01567  -0.92019  -0.91206  -0.77614
 Alpha  occ. eigenvalues --   -0.72232  -0.70342  -0.64335  -0.58698  -0.56450
 Alpha  occ. eigenvalues --   -0.51926  -0.49526  -0.45909  -0.45358  -0.44309
 Alpha  occ. eigenvalues --   -0.43658  -0.42534  -0.41267  -0.40008  -0.39226
 Alpha  occ. eigenvalues --   -0.38593  -0.37819  -0.37550  -0.35603  -0.33243
 Alpha  occ. eigenvalues --   -0.26755  -0.25138  -0.24435  -0.23141
 Alpha virt. eigenvalues --    0.02188   0.03056   0.06097   0.08118   0.11814
 Alpha virt. eigenvalues --    0.12989   0.14696   0.15472   0.16007   0.16498
 Alpha virt. eigenvalues --    0.16801   0.17234   0.18157   0.19199   0.19726

 Mulliken atomic charges:
              1
     1  H    0.183469
     2  C   -0.553259
     3  H    0.151056
     4  H    0.188396
     5  C    0.609205
     6  O   -0.486854
     7  N   -0.576344
     8  H    0.313667
     9  C   -0.072952
    10  H    0.159204
    11  C   -0.444937
    12  H    0.193050
    13  H    0.123586
    14  H    0.161515
    15  C    0.621835
    16  O   -0.510665
    17  N   -0.596117
    18  H    0.326239
    19  C   -0.303911
    20  H    0.164982
    21  H    0.197639
    22  H    0.151195
 Sum of Mulliken atomic charges =   0.00000

 Dipole moment (field-independent basis, Debye):
    X=              2.3129    Y=              2.4353    Z=             -3.2093  Tot=              4.6453
 Quadrupole moment (field-independent basis, Debye-Ang):
   XX=            -48.6102   YY=            -60.5212   ZZ=            -61.3474
   XY=              2.4013   XZ=              6.3449   YZ=             -0.1006

 Normal termination of Gaussian 09 at Sat Feb 11 00:10:17 2017.
