 Gaussian 09, Revision A.02,
 Gaussian 09:  EM64L-G09RevA.02 11-Jun-2009

 ----------------------------------------------------------------------
 # b3lyp/6-31G* Opt=(ModRedundant, maxcycles=1000, calcfc) geom=nocrowd
 ----------------------------------------------------------------------

 ------------------
 Phi Psi fixed scan
 ------------------
 Symbolic Z-matrix:
 Charge =  0 Multiplicity = 1

 SCF Done:  E(RB3LYP) =  -495.819231402     A.U. after   15 cycles

  Exact polarizability:   0.000   0.000   0.000   0.000   0.000   0.000
 Approx polarizability: 118.215   1.188 118.441  15.651   3.929 101.753

 SCF Done:  E(RB3LYP) =  -495.825409217     A.U. after   11 cycles
 SCF Done:  E(RB3LYP) =  -495.833934365     A.U. after   12 cycles
 SCF Done:  E(RB3LYP) =  -495.838011582     A.U. after   14 cycles
 SCF Done:  E(RB3LYP) =  -495.838767785     A.U. after   13 cycles
 SCF Done:  E(RB3LYP) =  -495.818741953     A.U. after   14 cycles
 SCF Done:  E(RB3LYP) =  -495.839332391     A.U. after   14 cycles
 SCF Done:  E(RB3LYP) =  -495.839715710     A.U. after   12 cycles
 SCF Done:  E(RB3LYP) =  -495.828417105     A.U. after   13 cycles
 SCF Done:  E(RB3LYP) =  -495.839808993     A.U. after   14 cycles
 SCF Done:  E(RB3LYP) =  -495.840146322     A.U. after   12 cycles
 SCF Done:  E(RB3LYP) =  -495.840311960     A.U. after   12 cycles
 SCF Done:  E(RB3LYP) =  -495.840339788     A.U. after   11 cycles
 SCF Done:  E(RB3LYP) =  -495.840373105     A.U. after   10 cycles
 SCF Done:  E(RB3LYP) =  -495.840449666     A.U. after   12 cycles
 SCF Done:  E(RB3LYP) =  -495.840484351     A.U. after   12 cycles
 SCF Done:  E(RB3LYP) =  -495.840490847     A.U. after   10 cycles
 SCF Done:  E(RB3LYP) =  -495.840492053     A.U. after    8 cycles
 SCF Done:  E(RB3LYP) =  -495.840492667     A.U. after    8 cycles
 SCF Done:  E(RB3LYP) =  -495.840492727     A.U. after    7 cycles
 Optimization completed.
    -- Stationary point found.

                         Standard orientation:
 ---------------------------------------------------------------------
 Center     Atomic      Atomic             Coordinates (Angstroms)
 Number     Number       Type             X           Y           Z
 ---------------------------------------------------------------------
      1          1           0        3.464873   -1.464252   -0.898663
      2          6           0        3.080278   -0.958351   -0.011241
      3          1           0        3.807210   -0.213626    0.330164
      4          1           0        2.953375   -1.705633    0.781425
      5          6           0        1.725843   -0.352877   -0.335185
      6          8           0        0.985549   -0.807074   -1.196823
      7          7           0        1.394209    0.774126    0.387434
      8          1           0        1.978328    0.951696    1.194494
      9          6           0       -0.010663    1.177539    0.546124
     10          1           0       -0.107734    1.566837    1.565689
     11          6           0       -0.360875    2.295495   -0.446289
     12          1           0       -0.253068    1.941485   -1.477462
     13          1           0       -1.380844    2.664756   -0.291398
     14          1           0        0.325786    3.137204   -0.314168
     15          6           0       -0.937756   -0.068821    0.522342
     16          8           0       -0.715694   -1.000605    1.284256
     17          7           0       -2.068276    0.016468   -0.237134
     18          1           0       -2.051556    0.656188   -1.018230
     19          6           0       -2.942092   -1.142197   -0.357357
     20          1           0       -3.083899   -1.575431    0.633912
     21          1           0       -3.908332   -0.823491   -0.757714
     22          1           0       -2.512928   -1.913185   -1.009980
 ---------------------------------------------------------------------

 The electronic state is 1-A.
 Alpha  occ. eigenvalues --  -19.10960 -19.09986 -14.35700 -14.35304 -10.28459
 Alpha  occ. eigenvalues --  -10.27741 -10.23832 -10.20923 -10.18880 -10.18815
 Alpha  occ. eigenvalues --   -1.03318  -1.01723  -0.91840  -0.91136  -0.77841
 Alpha  occ. eigenvalues --   -0.72752  -0.69656  -0.64638  -0.58628  -0.56567
 Alpha  occ. eigenvalues --   -0.52214  -0.50021  -0.45927  -0.45417  -0.43961
 Alpha  occ. eigenvalues --   -0.43400  -0.42175  -0.41363  -0.39801  -0.39329
 Alpha  occ. eigenvalues --   -0.38528  -0.38127  -0.37300  -0.35773  -0.33690
 Alpha  occ. eigenvalues --   -0.26137  -0.24911  -0.24628  -0.23540
 Alpha virt. eigenvalues --    0.01852   0.03740   0.07458   0.08946   0.11808
 Alpha virt. eigenvalues --    0.13071   0.14709   0.15082   0.15496   0.16065
 Alpha virt. eigenvalues --    0.16999   0.17513   0.18690   0.18992   0.19711

 Mulliken atomic charges:
              1
     1  H    0.185723
     2  C   -0.549792
     3  H    0.152020
     4  H    0.191772
     5  C    0.608734
     6  O   -0.507810
     7  N   -0.577443
     8  H    0.323803
     9  C   -0.041559
    10  H    0.164855
    11  C   -0.467144
    12  H    0.172136
    13  H    0.149082
    14  H    0.156559
    15  C    0.629341
    16  O   -0.533027
    17  N   -0.594993
    18  H    0.332871
    19  C   -0.303630
    20  H    0.189389
    21  H    0.146305
    22  H    0.172807
 Sum of Mulliken atomic charges =   0.00000

 Dipole moment (field-independent basis, Debye):
    X=              0.3195    Y=              3.0188    Z=              0.2510  Tot=              3.0460
 Quadrupole moment (field-independent basis, Debye-Ang):
   XX=            -48.3181   YY=            -59.7567   ZZ=            -62.2427
   XY=             -0.1629   XZ=              7.1716   YZ=              1.9547

 Normal termination of Gaussian 09 at Fri Feb 10 23:56:08 2017.
