 Gaussian 09, Revision A.02,
 Gaussian 09:  EM64L-G09RevA.02 11-Jun-2009

 ----------------------------------------------------------------------
 # b3lyp/6-31G* Opt=(ModRedundant, maxcycles=1000, calcfc) geom=nocrowd
 ----------------------------------------------------------------------

 ------------------
 Phi Psi fixed scan
 ------------------
 Symbolic Z-matrix:
 Charge =  0 Multiplicity = 1

 SCF Done:  E(RB3LYP) =  -495.808204547     A.U. after   15 cycles

  Exact polarizability:   0.000   0.000   0.000   0.000   0.000   0.000
 Approx polarizability: 122.297  -2.390 121.484  13.965   6.472  95.405

 SCF Done:  E(RB3LYP) =  -495.817509719     A.U. after   16 cycles
 SCF Done:  E(RB3LYP) =  -495.827938302     A.U. after   15 cycles
 SCF Done:  E(RB3LYP) =  -495.829927682     A.U. after   15 cycles
 SCF Done:  E(RB3LYP) =  -495.834544943     A.U. after   13 cycles
 SCF Done:  E(RB3LYP) =  -495.835646028     A.U. after   13 cycles
 SCF Done:  E(RB3LYP) =  -495.826424955     A.U. after   13 cycles
 SCF Done:  E(RB3LYP) =  -495.836044422     A.U. after   13 cycles
 SCF Done:  E(RB3LYP) =  -495.836632639     A.U. after   12 cycles
 SCF Done:  E(RB3LYP) =  -495.837259266     A.U. after   12 cycles
 SCF Done:  E(RB3LYP) =  -495.838384444     A.U. after   12 cycles
 SCF Done:  E(RB3LYP) =  -495.838453173     A.U. after   12 cycles
 SCF Done:  E(RB3LYP) =  -495.838487065     A.U. after   11 cycles
 SCF Done:  E(RB3LYP) =  -495.838513957     A.U. after   11 cycles
 SCF Done:  E(RB3LYP) =  -495.838535885     A.U. after   12 cycles
 SCF Done:  E(RB3LYP) =  -495.838539564     A.U. after    9 cycles
 SCF Done:  E(RB3LYP) =  -495.838540086     A.U. after    8 cycles
 SCF Done:  E(RB3LYP) =  -495.838540281     A.U. after    7 cycles
 SCF Done:  E(RB3LYP) =  -495.838540393     A.U. after    7 cycles
 SCF Done:  E(RB3LYP) =  -495.838540385     A.U. after    7 cycles
 Optimization completed.
    -- Stationary point found.

                         Standard orientation:
 ---------------------------------------------------------------------
 Center     Atomic      Atomic             Coordinates (Angstroms)
 Number     Number       Type             X           Y           Z
 ---------------------------------------------------------------------
      1          1           0       -3.540516   -1.415902    0.789007
      2          6           0       -3.083721   -0.943555   -0.082291
      3          1           0       -3.791256   -0.237655   -0.530991
      4          1           0       -2.858138   -1.722510   -0.820735
      5          6           0       -1.783228   -0.281869    0.335805
      6          8           0       -1.146545   -0.628131    1.319013
      7          7           0       -1.384292    0.787522   -0.450932
      8          1           0       -1.888051    0.855871   -1.326949
      9          6           0        0.041642    1.122062   -0.570624
     10          1           0        0.197611    1.449842   -1.605293
     11          6           0        0.395765    2.283208    0.371520
     12          1           0        0.294376    1.970065    1.415671
     13          1           0        1.411473    2.656706    0.195931
     14          1           0       -0.294094    3.115317    0.203379
     15          6           0        0.922848   -0.149720   -0.423426
     16          8           0        0.581683   -1.201022   -0.948894
     17          7           0        2.167503    0.034737    0.107957
     18          1           0        2.306832    0.823306    0.722410
     19          6           0        3.060851   -1.102484    0.279173
     20          1           0        3.010661   -1.721626   -0.617774
     21          1           0        4.082873   -0.738324    0.414946
     22          1           0        2.779707   -1.723539    1.139332
 ---------------------------------------------------------------------

 The electronic state is 1-A.
 Alpha  occ. eigenvalues --  -19.10647 -19.10275 -14.35692 -14.35277 -10.28123
 Alpha  occ. eigenvalues --  -10.27973 -10.23929 -10.21262 -10.18788 -10.18544
 Alpha  occ. eigenvalues --   -1.03263  -1.01738  -0.91584  -0.91411  -0.77739
 Alpha  occ. eigenvalues --   -0.72535  -0.69899  -0.64563  -0.58499  -0.56618
 Alpha  occ. eigenvalues --   -0.52103  -0.49917  -0.45754  -0.45411  -0.43983
 Alpha  occ. eigenvalues --   -0.43474  -0.42339  -0.41382  -0.39738  -0.39062
 Alpha  occ. eigenvalues --   -0.38706  -0.38128  -0.37404  -0.35677  -0.33410
 Alpha  occ. eigenvalues --   -0.26156  -0.24939  -0.24322  -0.23850
 Alpha virt. eigenvalues --    0.02002   0.03608   0.07291   0.08698   0.11886
 Alpha virt. eigenvalues --    0.13026   0.14523   0.15143   0.15910   0.16152
 Alpha virt. eigenvalues --    0.16910   0.17654   0.18455   0.19272   0.19603

 Mulliken atomic charges:
              1
     1  H    0.184542
     2  C   -0.551892
     3  H    0.151936
     4  H    0.192280
     5  C    0.609423
     6  O   -0.501395
     7  N   -0.574975
     8  H    0.320935
     9  C   -0.050163
    10  H    0.165148
    11  C   -0.465948
    12  H    0.179945
    13  H    0.139458
    14  H    0.160106
    15  C    0.633905
    16  O   -0.531246
    17  N   -0.601418
    18  H    0.332127
    19  C   -0.302554
    20  H    0.191348
    21  H    0.147524
    22  H    0.170915
 Sum of Mulliken atomic charges =   0.00000

 Dipole moment (field-independent basis, Debye):
    X=              0.6268    Y=              2.9932    Z=             -1.2517  Tot=              3.3044
 Quadrupole moment (field-independent basis, Debye-Ang):
   XX=            -47.6957   YY=            -60.3789   ZZ=            -61.6837
   XY=              0.9752   XZ=              7.0149   YZ=             -1.4611

 Normal termination of Gaussian 09 at Fri Feb 10 23:59:38 2017.
