 Gaussian 09, Revision A.02,
 Gaussian 09:  EM64L-G09RevA.02 11-Jun-2009

 ----------------------------------------------------------------------
 # b3lyp/6-31G* Opt=(ModRedundant, maxcycles=1000, calcfc) geom=nocrowd
 ----------------------------------------------------------------------

 ------------------
 Phi Psi fixed scan
 ------------------
 Symbolic Z-matrix:
 Charge =  0 Multiplicity = 1

 SCF Done:  E(RB3LYP) =  -495.797243544     A.U. after   16 cycles

  Exact polarizability:   0.000   0.000   0.000   0.000   0.000   0.000
 Approx polarizability: 109.968  -4.970 101.252  -1.579 -15.671 128.524

 SCF Done:  E(RB3LYP) =  -495.809846260     A.U. after   14 cycles
 SCF Done:  E(RB3LYP) =  -495.819703584     A.U. after   15 cycles
 SCF Done:  E(RB3LYP) =  -495.828881119     A.U. after   14 cycles
 SCF Done:  E(RB3LYP) =  -495.829839212     A.U. after   12 cycles
 SCF Done:  E(RB3LYP) =  -495.830988344     A.U. after   13 cycles
 SCF Done:  E(RB3LYP) =  -495.831074132     A.U. after   12 cycles
 SCF Done:  E(RB3LYP) =  -495.831115138     A.U. after   12 cycles
 SCF Done:  E(RB3LYP) =  -495.831422660     A.U. after   12 cycles
 SCF Done:  E(RB3LYP) =  -495.822863043     A.U. after   14 cycles
 SCF Done:  E(RB3LYP) =  -495.832176719     A.U. after   12 cycles
 SCF Done:  E(RB3LYP) =  -495.832272156     A.U. after   12 cycles
 SCF Done:  E(RB3LYP) =  -495.832293031     A.U. after   11 cycles
 SCF Done:  E(RB3LYP) =  -495.832312760     A.U. after   11 cycles
 SCF Done:  E(RB3LYP) =  -495.832338058     A.U. after   11 cycles
 SCF Done:  E(RB3LYP) =  -495.832362303     A.U. after   11 cycles
 SCF Done:  E(RB3LYP) =  -495.832375840     A.U. after   11 cycles
 SCF Done:  E(RB3LYP) =  -495.832379996     A.U. after   10 cycles
 SCF Done:  E(RB3LYP) =  -495.832380159     A.U. after    8 cycles
 SCF Done:  E(RB3LYP) =  -495.832380199     A.U. after    6 cycles
 Optimization completed.
    -- Stationary point found.

                         Standard orientation:
 ---------------------------------------------------------------------
 Center     Atomic      Atomic             Coordinates (Angstroms)
 Number     Number       Type             X           Y           Z
 ---------------------------------------------------------------------
      1          1           0       -3.615239   -1.795330   -0.032577
      2          6           0       -3.323017   -0.753180   -0.172538
      3          1           0       -3.812657   -0.154112    0.604917
      4          1           0       -3.679974   -0.403338   -1.147646
      5          6           0       -1.807957   -0.647593   -0.017450
      6          8           0       -1.167114   -1.443708    0.645596
      7          7           0       -1.246868    0.396027   -0.728451
      8          1           0       -1.919648    1.010917   -1.170486
      9          6           0        0.038266    1.072295   -0.484309
     10          1           0        0.401291    1.395262   -1.468614
     11          6           0       -0.150514    2.308058    0.406226
     12          1           0       -0.430574    1.992913    1.414270
     13          1           0        0.780676    2.881093    0.473457
     14          1           0       -0.927797    2.965020   -0.001995
     15          6           0        1.130274    0.175621    0.155592
     16          8           0        1.227887    0.026894    1.361857
     17          7           0        2.107694   -0.218755   -0.722419
     18          1           0        1.870888   -0.234654   -1.705673
     19          6           0        3.184581   -1.094422   -0.284253
     20          1           0        3.463354   -0.805082    0.729897
     21          1           0        2.883250   -2.149974   -0.269614
     22          1           0        4.044662   -0.973790   -0.949070
 ---------------------------------------------------------------------

 The electronic state is 1-A.
 Alpha  occ. eigenvalues --  -19.10454 -19.10343 -14.35976 -14.35854 -10.28439
 Alpha  occ. eigenvalues --  -10.28084 -10.24113 -10.21238 -10.18994 -10.18288
 Alpha  occ. eigenvalues --   -1.02986  -1.02002  -0.92218  -0.91294  -0.77803
 Alpha  occ. eigenvalues --   -0.72536  -0.70580  -0.63920  -0.59266  -0.56854
 Alpha  occ. eigenvalues --   -0.51284  -0.49189  -0.46852  -0.46029  -0.44136
 Alpha  occ. eigenvalues --   -0.43826  -0.41783  -0.41478  -0.39949  -0.39312
 Alpha  occ. eigenvalues --   -0.38626  -0.37525  -0.36794  -0.35488  -0.34803
 Alpha  occ. eigenvalues --   -0.25663  -0.25072  -0.24187  -0.23498
 Alpha virt. eigenvalues --    0.02394   0.03135   0.06310   0.08391   0.12193
 Alpha virt. eigenvalues --    0.12698   0.13695   0.15218   0.15625   0.16111
 Alpha virt. eigenvalues --    0.16912   0.17666   0.18531   0.18585   0.19620

 Mulliken atomic charges:
              1
     1  H    0.187787
     2  C   -0.546212
     3  H    0.179425
     4  H    0.149180
     5  C    0.586833
     6  O   -0.477365
     7  N   -0.596516
     8  H    0.315769
     9  C   -0.046683
    10  H    0.135625
    11  C   -0.443869
    12  H    0.192129
    13  H    0.156989
    14  H    0.128764
    15  C    0.639673
    16  O   -0.502248
    17  N   -0.591383
    18  H    0.323375
    19  C   -0.305686
    20  H    0.197461
    21  H    0.168040
    22  H    0.148911
 Sum of Mulliken atomic charges =   0.00000

 Dipole moment (field-independent basis, Debye):
    X=             -0.7699    Y=              2.3830    Z=             -4.6259  Tot=              5.2603
 Quadrupole moment (field-independent basis, Debye-Ang):
   XX=            -48.6377   YY=            -60.2116   ZZ=            -61.2852
   XY=             -4.8495   XZ=             -2.4458   YZ=              1.5702

 Normal termination of Gaussian 09 at Fri Feb 10 23:52:07 2017.
