 Gaussian 09, Revision A.02,
 Gaussian 09:  EM64L-G09RevA.02 11-Jun-2009

 -------------------
 #SP MP2/aug-cc-pVDZ
 -------------------

 -------------------------------
 Single Point calculation at MP2
 -------------------------------
 Symbolic Z-matrix:
 Charge =  0 Multiplicity = 1

                         Standard orientation:
 ---------------------------------------------------------------------
 Center     Atomic      Atomic             Coordinates (Angstroms)
 Number     Number       Type             X           Y           Z
 ---------------------------------------------------------------------
      1          1           0        4.119904   -1.087407   -0.317692
      2          6           0        3.086404   -1.344708   -0.081892
      3          1           0        3.055805   -1.924908    0.846908
      4          1           0        2.686405   -1.975008   -0.885492
      5          6           0        2.272604   -0.057808    0.017908
      6          8           0        2.689703    1.005192   -0.418492
      7          7           0        1.070504   -0.226408    0.675008
      8          1           0        0.805604   -1.201909    0.766508
      9          6           0       -0.121396    0.614891    0.583308
     10          1           0       -0.394197    0.939691    1.599708
     11          6           0        0.017303    1.873991   -0.291592
     12          1           0        0.224903    1.612991   -1.331992
     13          1           0       -0.919297    2.442091   -0.256592
     14          1           0        0.830303    2.507491    0.060008
     15          6           0       -1.276696   -0.279810    0.062708
     16          8           0       -1.072496   -1.396209   -0.403392
     17          7           0       -2.521996    0.248490    0.218308
     18          1           0       -2.606497    1.182090    0.594608
     19          6           0       -3.727096   -0.423411   -0.238092
     20          1           0       -3.442196   -1.428411   -0.551292
     21          1           0       -4.462296   -0.491511    0.571208
     22          1           0       -4.182396    0.099489   -1.088092
 ---------------------------------------------------------------------

 SCF Done:  E(RHF) =  -492.915903283     A.U. after   14 cycles
 E2 =    -0.1601076715D+01 EUMP2 =    -0.49451697999781D+03

 The electronic state is 1-A.
 Alpha  occ. eigenvalues --  -20.54379 -20.52603 -15.60623 -15.58621 -11.37023
 Alpha  occ. eigenvalues --  -11.35830 -11.30061 -11.27690 -11.23795 -11.23596
 Alpha  occ. eigenvalues --   -1.39838  -1.37776  -1.24439  -1.23167  -1.05632
 Alpha  occ. eigenvalues --   -0.98633  -0.96079  -0.88756  -0.80448  -0.75777
 Alpha  occ. eigenvalues --   -0.73075  -0.68585  -0.66343  -0.64137  -0.62946
 Alpha  occ. eigenvalues --   -0.62071  -0.59544  -0.58544  -0.56619  -0.55603
 Alpha  occ. eigenvalues --   -0.55317  -0.54204  -0.52576  -0.52153  -0.50232
 Alpha  occ. eigenvalues --   -0.43759  -0.41518  -0.40504  -0.39070
 Alpha virt. eigenvalues --    0.02574   0.04034   0.04263   0.04469   0.05790
 Alpha virt. eigenvalues --    0.06212   0.06424   0.06809   0.07338   0.08094
 Alpha virt. eigenvalues --    0.09077   0.09271   0.11167   0.11580   0.12971

 Mulliken atomic charges:
              1
     1  H   -0.070780
     2  C    0.301438
     3  H   -0.001059
     4  H    0.057395
     5  C    0.677711
     6  O   -0.800879
     7  N   -0.550069
     8  H    0.009555
     9  C   -0.157172
    10  H   -0.118668
    11  C    0.694869
    12  H    0.009158
    13  H   -0.179133
    14  H    0.046123
    15  C    1.186202
    16  O   -0.841712
    17  N   -0.522955
    18  H   -0.109372
    19  C    0.716005
    20  H   -0.142981
    21  H   -0.115071
    22  H   -0.088605
 Sum of Mulliken atomic charges =   0.00000

 Dipole moment (field-independent basis, Debye):
    X=             -3.7721    Y=              0.2521    Z=              1.9317  Tot=              4.2454
 Quadrupole moment (field-independent basis, Debye-Ang):
   XX=            -57.3673   YY=            -62.9441   ZZ=            -61.7285
   XY=            -12.8293   XZ=              0.6741   YZ=              0.3063

 Normal termination of Gaussian 09 at Sun Feb 12 16:18:40 2017.
