 Gaussian 09, Revision A.02,
 Gaussian 09:  EM64L-G09RevA.02 11-Jun-2009

 -------------------
 #SP MP2/aug-cc-pVDZ
 -------------------

 -------------------------------
 Single Point calculation at MP2
 -------------------------------
 Symbolic Z-matrix:
 Charge =  0 Multiplicity = 1

                         Standard orientation:
 ---------------------------------------------------------------------
 Center     Atomic      Atomic             Coordinates (Angstroms)
 Number     Number       Type             X           Y           Z
 ---------------------------------------------------------------------
      1          1           0        4.126315   -1.133657   -0.162494
      2          6           0        3.078817   -1.378267    0.018806
      3          1           0        2.992722   -1.954268    0.946806
      4          1           0        2.715823   -2.006770   -0.803594
      5          6           0        2.275405   -0.082175    0.066206
      6          8           0        2.716795    0.968030   -0.375794
      7          7           0        1.047306   -0.224786    0.680006
      8          1           0        0.783415   -1.193889    0.813306
      9          6           0       -0.127402    0.634803    0.536506
     10          1           0       -0.416206    0.992400    1.537206
     11          6           0        0.048986    1.864204   -0.372794
     12          1           0        0.290889    1.563907   -1.394694
     13          1           0       -0.892919    2.425095   -0.386894
     14          1           0        0.848780    2.510712   -0.014494
     15          6           0       -1.281294   -0.234608   -0.016294
     16          8           0       -1.075285   -1.215306   -0.721594
     17          7           0       -2.525398    0.165080    0.373706
     18          1           0       -2.607106    0.996279    0.942206
     19          6           0       -3.742292   -0.457332   -0.119794
     20          1           0       -3.451283   -1.360229   -0.657894
     21          1           0       -4.402189   -0.728538    0.711506
     22          1           0       -4.286998    0.205363   -0.803694
 ---------------------------------------------------------------------

 SCF Done:  E(RHF) =  -492.915505882     A.U. after   14 cycles
 E2 =    -0.1601058928D+01 EUMP2 =    -0.49451656481021D+03

 The electronic state is 1-A.
 Alpha  occ. eigenvalues --  -20.54167 -20.52632 -15.60641 -15.58927 -11.36850
 Alpha  occ. eigenvalues --  -11.35904 -11.30010 -11.27656 -11.23902 -11.23336
 Alpha  occ. eigenvalues --   -1.39641  -1.37842  -1.24378  -1.23278  -1.05652
 Alpha  occ. eigenvalues --   -0.98673  -0.96154  -0.88481  -0.80307  -0.76136
 Alpha  occ. eigenvalues --   -0.72980  -0.68722  -0.66376  -0.63607  -0.63215
 Alpha  occ. eigenvalues --   -0.62039  -0.59674  -0.58448  -0.56525  -0.55553
 Alpha  occ. eigenvalues --   -0.55321  -0.53929  -0.52581  -0.52158  -0.50241
 Alpha  occ. eigenvalues --   -0.43697  -0.41373  -0.40290  -0.39305
 Alpha virt. eigenvalues --    0.02535   0.03972   0.04201   0.04485   0.05812
 Alpha virt. eigenvalues --    0.06146   0.06407   0.06779   0.07530   0.08085
 Alpha virt. eigenvalues --    0.08860   0.09027   0.11044   0.11714   0.13124

 Mulliken atomic charges:
              1
     1  H   -0.068446
     2  C    0.299861
     3  H   -0.012861
     4  H    0.064126
     5  C    0.661193
     6  O   -0.800654
     7  N   -0.516002
     8  H   -0.009596
     9  C   -0.169295
    10  H   -0.189590
    11  C    0.698976
    12  H    0.017196
    13  H   -0.143204
    14  H    0.052501
    15  C    1.214659
    16  O   -0.865819
    17  N   -0.491127
    18  H   -0.113824
    19  C    0.724035
    20  H   -0.143109
    21  H   -0.122595
    22  H   -0.086424
 Sum of Mulliken atomic charges =   0.00000

 Dipole moment (field-independent basis, Debye):
    X=             -3.7623    Y=             -0.1170    Z=              2.7199  Tot=              4.6440
 Quadrupole moment (field-independent basis, Debye-Ang):
   XX=            -57.4854   YY=            -61.9688   ZZ=            -62.1499
   XY=            -12.1720   XZ=             -0.5828   YZ=             -0.5672

 Normal termination of Gaussian 09 at Sun Feb 12 16:19:01 2017.
