 Gaussian 09, Revision A.02,
 Gaussian 09:  EM64L-G09RevA.02 11-Jun-2009

 -------------------
 #SP MP2/aug-cc-pVDZ
 -------------------

 -------------------------------
 Single Point calculation at MP2
 -------------------------------
 Symbolic Z-matrix:
 Charge =  0 Multiplicity = 1

                         Standard orientation:
 ---------------------------------------------------------------------
 Center     Atomic      Atomic             Coordinates (Angstroms)
 Number     Number       Type             X           Y           Z
 ---------------------------------------------------------------------
      1          1           0       -3.647318   -1.683676    0.445395
      2          6           0       -3.102515   -1.248980   -0.394905
      3          1           0       -3.823111   -0.702774   -1.015305
      4          1           0       -2.669021   -2.051983   -1.001005
      5          6           0       -2.067307   -0.269188    0.152395
      6          8           0       -2.265602    0.366014    1.174595
      7          7           0       -0.913207   -0.193797   -0.605305
      8          1           0       -0.946911   -0.716497   -1.471305
      9          6           0        0.124901    0.854795   -0.593605
     10          1           0        0.237604    1.182794   -1.635905
     11          6           0       -0.196789    2.101998    0.238395
     12          1           0       -0.303391    1.868798    1.297395
     13          1           0        0.630716    2.801891    0.101395
     14          1           0       -1.125685    2.566905   -0.101105
     15          6           0        1.527197    0.316384   -0.217905
     16          8           0        2.494003    1.069577   -0.234605
     17          7           0        1.604387   -1.017316    0.042895
     18          1           0        0.727783   -1.504609    0.168895
     19          6           0        2.840782   -1.648626    0.467995
     20          1           0        3.661087   -0.980832    0.201195
     21          1           0        2.862281   -1.815226    1.552695
     22          1           0        2.972875   -2.610027   -0.039605
 ---------------------------------------------------------------------

 SCF Done:  E(RHF) =  -492.916224997     A.U. after   14 cycles
 E2 =    -0.1602181495D+01 EUMP2 =    -0.49451840649203D+03

 The electronic state is 1-A.
 Alpha  occ. eigenvalues --  -20.54113 -20.52795 -15.61040 -15.59596 -11.37619
 Alpha  occ. eigenvalues --  -11.35835 -11.30024 -11.26887 -11.25791 -11.22349
 Alpha  occ. eigenvalues --   -1.39571  -1.38253  -1.25389  -1.22687  -1.05759
 Alpha  occ. eigenvalues --   -0.99658  -0.96055  -0.88167  -0.80119  -0.77131
 Alpha  occ. eigenvalues --   -0.72619  -0.70300  -0.66782  -0.63246  -0.62433
 Alpha  occ. eigenvalues --   -0.62147  -0.60491  -0.59534  -0.57210  -0.55276
 Alpha  occ. eigenvalues --   -0.54881  -0.53892  -0.52173  -0.51997  -0.50007
 Alpha  occ. eigenvalues --   -0.44613  -0.42830  -0.39593  -0.39180
 Alpha virt. eigenvalues --    0.02217   0.03644   0.04105   0.04680   0.05556
 Alpha virt. eigenvalues --    0.06083   0.06351   0.06431   0.07479   0.08177
 Alpha virt. eigenvalues --    0.08368   0.09174   0.10850   0.12445   0.12523

 Mulliken atomic charges:
              1
     1  H   -0.004332
     2  C    0.390213
     3  H    0.048329
     4  H   -0.108016
     5  C    0.686056
     6  O   -0.814143
     7  N   -0.316504
     8  H   -0.069806
     9  C   -0.475038
    10  H   -0.004883
    11  C    0.722050
    12  H    0.026049
    13  H   -0.072844
    14  H   -0.015621
    15  C    1.032698
    16  O   -0.866993
    17  N   -0.482982
    18  H   -0.066766
    19  C    0.738707
    20  H   -0.135948
    21  H   -0.077095
    22  H   -0.133132
 Sum of Mulliken atomic charges =   0.00000

 Dipole moment (field-independent basis, Debye):
    X=             -1.9718    Y=             -4.2130    Z=             -2.9190  Tot=              5.4916
 Quadrupole moment (field-independent basis, Debye-Ang):
   XX=            -68.8153   YY=            -58.3858   ZZ=            -61.7502
   XY=             -3.2384   XZ=              9.2616   YZ=             -1.0293

 Normal termination of Gaussian 09 at Sun Feb 12 15:32:15 2017.
