 Gaussian 09, Revision A.02,
 Gaussian 09:  EM64L-G09RevA.02 11-Jun-2009

 -------------------
 #SP MP2/aug-cc-pVDZ
 -------------------

 -------------------------------
 Single Point calculation at MP2
 -------------------------------
 Symbolic Z-matrix:
 Charge =  0 Multiplicity = 1

                         Standard orientation:
 ---------------------------------------------------------------------
 Center     Atomic      Atomic             Coordinates (Angstroms)
 Number     Number       Type             X           Y           Z
 ---------------------------------------------------------------------
      1          1           0        3.998493   -0.894811    0.384986
      2          6           0        3.070592   -1.339908    0.009886
      3          1           0        2.741489   -2.108507    0.716186
      4          1           0        3.298390   -1.808908   -0.951014
      5          6           0        2.054195   -0.225804   -0.222814
      6          8           0        2.206198    0.591295   -1.122814
      7          7           0        0.998695   -0.235601    0.649786
      8          1           0        0.970393   -0.984901    1.327686
      9          6           0       -0.094501    0.737403    0.809286
     10          1           0       -0.144901    0.969303    1.879386
     11          6           0        0.073203    2.057902    0.053986
     12          1           0        0.142803    1.938202   -1.027514
     13          1           0       -0.780595    2.700505    0.295586
     14          1           0        0.989005    2.562899    0.370086
     15          6           0       -1.415304   -0.024193    0.547686
     16          8           0       -1.981306   -0.609291    1.465586
     17          7           0       -1.850304   -0.039391   -0.742114
     18          1           0       -1.274603    0.399007   -1.446714
     19          6           0       -3.001107   -0.815187   -1.170914
     20          1           0       -3.531408   -1.139086   -0.274514
     21          1           0       -3.668905   -0.204785   -1.788414
     22          1           0       -2.700510   -1.701288   -1.744314
 ---------------------------------------------------------------------

 SCF Done:  E(RHF) =  -492.916010568     A.U. after   14 cycles
 E2 =    -0.1601033844D+01 EUMP2 =    -0.49451704441147D+03

 The electronic state is 1-A.
 Alpha  occ. eigenvalues --  -20.53484 -20.53168 -15.60568 -15.59806 -11.37040
 Alpha  occ. eigenvalues --  -11.36141 -11.29939 -11.27005 -11.25051 -11.23763
 Alpha  occ. eigenvalues --   -1.38997  -1.38408  -1.24642  -1.23241  -1.06021
 Alpha  occ. eigenvalues --   -0.99424  -0.95699  -0.89581  -0.79990  -0.77448
 Alpha  occ. eigenvalues --   -0.72426  -0.69779  -0.66267  -0.64617  -0.62018
 Alpha  occ. eigenvalues --   -0.61983  -0.59590  -0.59037  -0.56916  -0.55826
 Alpha  occ. eigenvalues --   -0.55307  -0.54400  -0.52868  -0.52076  -0.51230
 Alpha  occ. eigenvalues --   -0.44177  -0.42162  -0.39524  -0.39033
 Alpha virt. eigenvalues --    0.03070   0.03743   0.04105   0.05079   0.05646
 Alpha virt. eigenvalues --    0.05777   0.06392   0.06702   0.07551   0.07726
 Alpha virt. eigenvalues --    0.08911   0.09560   0.11459   0.11846   0.12398

 Mulliken atomic charges:
              1
     1  H    0.050647
     2  C    0.411160
     3  H   -0.150473
     4  H    0.033259
     5  C    0.592477
     6  O   -0.827876
     7  N   -0.447745
     8  H   -0.081509
     9  C    0.221760
    10  H   -0.198241
    11  C    0.729379
    12  H    0.051538
    13  H   -0.092814
    14  H   -0.033486
    15  C    0.875192
    16  O   -0.877316
    17  N   -0.559397
    18  H   -0.085261
    19  C    0.727118
    20  H   -0.141527
    21  H   -0.111765
    22  H   -0.085119
 Sum of Mulliken atomic charges =   0.00000

 Dipole moment (field-independent basis, Debye):
    X=              0.4490    Y=             -0.7259    Z=             -0.4892  Tot=              0.9838
 Quadrupole moment (field-independent basis, Debye-Ang):
   XX=            -63.4152   YY=            -58.7889   ZZ=            -64.7257
   XY=             -7.7467   XZ=             14.4864   YZ=              3.8255

 Normal termination of Gaussian 09 at Sun Feb 12 16:53:02 2017.
