 Gaussian 09, Revision A.02,
 Gaussian 09:  EM64L-G09RevA.02 11-Jun-2009

 -------------------
 #SP MP2/aug-cc-pVDZ
 -------------------

 -------------------------------
 Single Point calculation at MP2
 -------------------------------
 Symbolic Z-matrix:
 Charge =  0 Multiplicity = 1

                         Standard orientation:
 ---------------------------------------------------------------------
 Center     Atomic      Atomic             Coordinates (Angstroms)
 Number     Number       Type             X           Y           Z
 ---------------------------------------------------------------------
      1          1           0       -3.612197   -1.739287   -0.104506
      2          6           0       -3.155394   -0.972988   -0.734006
      3          1           0       -3.927092   -0.231886   -0.973506
      4          1           0       -2.814796   -1.427389   -1.670306
      5          6           0       -2.040492   -0.294792    0.055594
      6          8           0       -2.117791   -0.135992    1.267594
      7          7           0       -0.964291    0.093504   -0.702706
      8          1           0       -1.024691   -0.107995   -1.691706
      9          6           0        0.118312    1.031301   -0.357606
     10          1           0        0.174115    1.754501   -1.178606
     11          6           0       -0.062185    1.819201    0.945194
     12          1           0       -0.070487    1.181702    1.828394
     13          1           0        0.769017    2.528799    1.019994
     14          1           0       -0.999483    2.381505    0.931594
     15          6           0        1.484310    0.310996   -0.414506
     16          8           0        2.383211    0.702893   -1.149306
     17          7           0        1.597807   -0.746104    0.438394
     18          1           0        0.776406   -1.023201    0.959494
     19          6           0        2.795404   -1.560508    0.529594
     20          1           0        3.558605   -1.088110   -0.090606
     21          1           0        3.153704   -1.614909    1.563994
     22          1           0        2.619200   -2.580007    0.164094
 ---------------------------------------------------------------------

 SCF Done:  E(RHF) =  -492.916900946     A.U. after   14 cycles
 E2 =    -0.1601376490D+01 EUMP2 =    -0.49451827743511D+03

 The electronic state is 1-A.
 Alpha  occ. eigenvalues --  -20.53880 -20.53296 -15.60870 -15.59268 -11.37494
 Alpha  occ. eigenvalues --  -11.35819 -11.29852 -11.26729 -11.25567 -11.23472
 Alpha  occ. eigenvalues --   -1.39326  -1.38396  -1.25069  -1.22717  -1.06067
 Alpha  occ. eigenvalues --   -0.99774  -0.95598  -0.89082  -0.79768  -0.77640
 Alpha  occ. eigenvalues --   -0.72419  -0.69916  -0.66580  -0.63753  -0.62258
 Alpha  occ. eigenvalues --   -0.62071  -0.59874  -0.59178  -0.57201  -0.56226
 Alpha  occ. eigenvalues --   -0.54670  -0.54396  -0.52787  -0.52121  -0.50929
 Alpha  occ. eigenvalues --   -0.44432  -0.42668  -0.39693  -0.38689
 Alpha virt. eigenvalues --    0.02704   0.03847   0.04250   0.04742   0.05629
 Alpha virt. eigenvalues --    0.05867   0.06378   0.06500   0.07636   0.07838
 Alpha virt. eigenvalues --    0.08991   0.09145   0.11117   0.11750   0.12306

 Mulliken atomic charges:
              1
     1  H    0.005247
     2  C    0.423728
     3  H    0.058590
     4  H   -0.107943
     5  C    0.600770
     6  O   -0.809451
     7  N   -0.221448
     8  H   -0.103989
     9  C   -0.035747
    10  H   -0.266308
    11  C    0.777427
    12  H    0.025915
    13  H   -0.089223
    14  H   -0.050093
    15  C    0.865720
    16  O   -0.820179
    17  N   -0.566331
    18  H   -0.067893
    19  C    0.724590
    20  H   -0.151337
    21  H   -0.101136
    22  H   -0.090911
 Sum of Mulliken atomic charges =   0.00000

 Dipole moment (field-independent basis, Debye):
    X=             -2.0210    Y=             -1.7927    Z=             -1.2013  Tot=              2.9565
 Quadrupole moment (field-independent basis, Debye-Ang):
   XX=            -66.5396   YY=            -57.5107   ZZ=            -64.4051
   XY=             -4.2082   XZ=             15.0693   YZ=              1.6355

 Normal termination of Gaussian 09 at Sun Feb 12 17:19:47 2017.
