 Gaussian 09, Revision A.02,
 Gaussian 09:  EM64L-G09RevA.02 11-Jun-2009

 -------------------
 #SP MP2/aug-cc-pVDZ
 -------------------

 -------------------------------
 Single Point calculation at MP2
 -------------------------------
 Symbolic Z-matrix:
 Charge =  0 Multiplicity = 1

                         Standard orientation:
 ---------------------------------------------------------------------
 Center     Atomic      Atomic             Coordinates (Angstroms)
 Number     Number       Type             X           Y           Z
 ---------------------------------------------------------------------
      1          1           0        3.489290   -1.877510   -0.030797
      2          6           0        3.129794   -1.088908    0.634203
      3          1           0        3.972298   -0.418212    0.838303
      4          1           0        2.805192   -1.533507    1.580503
      5          6           0        2.037998   -0.304803   -0.086497
      6          8           0        2.125500   -0.037203   -1.278997
      7          7           0        0.976400    0.048603    0.705503
      8          1           0        1.018199   -0.244497    1.672103
      9          6           0       -0.105395    1.009408    0.425403
     10          1           0       -0.155292    1.673508    1.295203
     11          6           0        0.074910    1.885207   -0.818197
     12          1           0        0.090607    1.319407   -1.748997
     13          1           0       -0.754887    2.600112   -0.846497
     14          1           0        1.012612    2.443803   -0.761597
     15          6           0       -1.454699    0.255915    0.473603
     16          8           0       -2.218598    0.378019    1.424203
     17          7           0       -1.705703   -0.532484   -0.610197
     18          1           0       -0.963903   -0.653187   -1.286897
     19          6           0       -2.871307   -1.394278   -0.696697
     20          1           0       -3.574705   -1.072774    0.072603
     21          1           0       -3.342907   -1.304475   -1.680997
     22          1           0       -2.614412   -2.447279   -0.522597
 ---------------------------------------------------------------------

 SCF Done:  E(RHF) =  -492.916494134     A.U. after   14 cycles
 E2 =    -0.1601121556D+01 EUMP2 =    -0.49451761568959D+03

 The electronic state is 1-A.
 Alpha  occ. eigenvalues --  -20.53616 -20.53466 -15.60799 -15.59392 -11.37334
 Alpha  occ. eigenvalues --  -11.35924 -11.29873 -11.26785 -11.25387 -11.23623
 Alpha  occ. eigenvalues --   -1.39156  -1.38490  -1.24889  -1.22885  -1.06057
 Alpha  occ. eigenvalues --   -0.99669  -0.95551  -0.89326  -0.79810  -0.77554
 Alpha  occ. eigenvalues --   -0.72354  -0.69878  -0.66439  -0.64197  -0.62188
 Alpha  occ. eigenvalues --   -0.61949  -0.59772  -0.59040  -0.57118  -0.56023
 Alpha  occ. eigenvalues --   -0.54953  -0.54365  -0.52763  -0.52079  -0.51251
 Alpha  occ. eigenvalues --   -0.44355  -0.42504  -0.39496  -0.38971
 Alpha virt. eigenvalues --    0.02876   0.03845   0.04145   0.04920   0.05637
 Alpha virt. eigenvalues --    0.05831   0.06375   0.06554   0.07649   0.07773
 Alpha virt. eigenvalues --    0.09030   0.09249   0.11247   0.11750   0.12249

 Mulliken atomic charges:
              1
     1  H    0.020334
     2  C    0.417763
     3  H    0.055003
     4  H   -0.127129
     5  C    0.598793
     6  O   -0.819560
     7  N   -0.332067
     8  H   -0.097634
     9  C    0.111968
    10  H   -0.256317
    11  C    0.776469
    12  H    0.017302
    13  H   -0.084288
    14  H   -0.040244
    15  C    0.820218
    16  O   -0.824396
    17  N   -0.551441
    18  H   -0.066513
    19  C    0.723812
    20  H   -0.140096
    21  H   -0.117476
    22  H   -0.084501
 Sum of Mulliken atomic charges =   0.00000

 Dipole moment (field-independent basis, Debye):
    X=              1.5133    Y=             -1.3534    Z=              0.4843  Tot=              2.0872
 Quadrupole moment (field-independent basis, Debye-Ang):
   XX=            -64.9656   YY=            -57.0274   ZZ=            -65.7534
   XY=              1.4941   XZ=             16.1101   YZ=             -0.6551

 Normal termination of Gaussian 09 at Sun Feb 12 17:19:39 2017.
