 Gaussian 09, Revision A.02,
 Gaussian 09:  EM64L-G09RevA.02 11-Jun-2009

 -------------------
 #SP MP2/aug-cc-pVDZ
 -------------------

 -------------------------------
 Single Point calculation at MP2
 -------------------------------
 Symbolic Z-matrix:
 Charge =  0 Multiplicity = 1

                         Standard orientation:
 ---------------------------------------------------------------------
 Center     Atomic      Atomic             Coordinates (Angstroms)
 Number     Number       Type             X           Y           Z
 ---------------------------------------------------------------------
      1          1           0        4.090590   -1.009057   -0.182891
      2          6           0        3.119892   -1.243763    0.256809
      3          1           0        3.237293   -1.414562    1.332709
      4          1           0        2.748297   -2.169465   -0.198891
      5          6           0        2.151885   -0.109568   -0.061191
      6          8           0        2.317081    0.630433   -1.018291
      7          7           0        1.111685   -0.003974    0.839809
      8          1           0        1.022189   -0.792275    1.468009
      9          6           0       -0.139620    0.715218    0.636209
     10          1           0       -0.497521    0.983916    1.641309
     11          6           0       -0.016527    2.018519   -0.169791
     12          1           0        0.242674    1.822521   -1.208791
     13          1           0       -0.971430    2.555114   -0.125591
     14          1           0        0.760269    2.657124    0.258609
     15          6           0       -1.191614   -0.233788    0.008209
     16          8           0       -0.877009   -1.177086   -0.703991
     17          7           0       -2.483816    0.057705    0.347209
     18          1           0       -2.661420    0.881704    0.904409
     19          6           0       -3.620312   -0.647002   -0.221291
     20          1           0       -3.230507   -1.520299   -0.745991
     21          1           0       -4.307110   -0.974406    0.566909
     22          1           0       -4.171215   -0.020905   -0.934391
 ---------------------------------------------------------------------

 SCF Done:  E(RHF) =  -492.916048915     A.U. after   14 cycles
 E2 =    -0.1600482253D+01 EUMP2 =    -0.49451653116784D+03

 The electronic state is 1-A.
 Alpha  occ. eigenvalues --  -20.53485 -20.52382 -15.60152 -15.59154 -11.36157
 Alpha  occ. eigenvalues --  -11.35746 -11.29900 -11.27265 -11.23857 -11.23262
 Alpha  occ. eigenvalues --   -1.39002  -1.37626  -1.23897  -1.23308  -1.05475
 Alpha  occ. eigenvalues --   -0.98576  -0.95842  -0.88245  -0.80036  -0.76660
 Alpha  occ. eigenvalues --   -0.71990  -0.69597  -0.65807  -0.62918  -0.62679
 Alpha  occ. eigenvalues --   -0.61907  -0.59326  -0.58449  -0.56341  -0.55608
 Alpha  occ. eigenvalues --   -0.55118  -0.53362  -0.53043  -0.50982  -0.50366
 Alpha  occ. eigenvalues --   -0.43661  -0.41332  -0.39716  -0.38861
 Alpha virt. eigenvalues --    0.02393   0.03710   0.04192   0.04554   0.05762
 Alpha virt. eigenvalues --    0.05961   0.06230   0.06891   0.07709   0.08159
 Alpha virt. eigenvalues --    0.08666   0.08855   0.11128   0.11498   0.13219

 Mulliken atomic charges:
              1
     1  H   -0.037182
     2  C    0.302179
     3  H   -0.042800
     4  H    0.072122
     5  C    0.692001
     6  O   -0.804401
     7  N   -0.440400
     8  H   -0.079739
     9  C   -0.270645
    10  H   -0.230667
    11  C    0.733042
    12  H    0.067269
    13  H   -0.122562
    14  H   -0.012531
    15  C    1.244971
    16  O   -0.849837
    17  N   -0.487106
    18  H   -0.120447
    19  C    0.742119
    20  H   -0.141271
    21  H   -0.119640
    22  H   -0.094475
 Sum of Mulliken atomic charges =   0.00000

 Dipole moment (field-independent basis, Debye):
    X=             -3.1113    Y=              0.4704    Z=              4.5207  Tot=              5.5081
 Quadrupole moment (field-independent basis, Debye-Ang):
   XX=            -53.5114   YY=            -61.1766   ZZ=            -63.0515
   XY=             -8.7214   XZ=              3.5579   YZ=             -0.5859

 Normal termination of Gaussian 09 at Tue Feb 14 04:46:56 2017.
