 Gaussian 09, Revision A.02,
 Gaussian 09:  EM64L-G09RevA.02 11-Jun-2009

 -------------------
 #SP MP2/aug-cc-pVDZ
 -------------------

 -------------------------------
 Single Point calculation at MP2
 -------------------------------
 Symbolic Z-matrix:
 Charge =  0 Multiplicity = 1

                         Standard orientation:
 ---------------------------------------------------------------------
 Center     Atomic      Atomic             Coordinates (Angstroms)
 Number     Number       Type             X           Y           Z
 ---------------------------------------------------------------------
      1          1           0       -3.333611   -1.794783   -0.652610
      2          6           0       -3.171508   -0.714984   -0.688710
      3          1           0       -3.968507   -0.240582   -0.104710
      4          1           0       -3.249707   -0.370784   -1.724810
      5          6           0       -1.831407   -0.398387   -0.044010
      6          8           0       -1.456209   -0.977688    0.977090
      7          7           0       -1.074905    0.543511   -0.676510
      8          1           0       -1.457304    0.968312   -1.509010
      9          6           0        0.090097    1.224607   -0.076110
     10          1           0        0.221099    2.131507   -0.672210
     11          6           0       -0.091002    1.640308    1.387990
     12          1           0       -0.227804    0.787908    2.052390
     13          1           0        0.793299    2.202106    1.706590
     14          1           0       -0.964600    2.294910    1.484190
     15          6           0        1.376995    0.420004   -0.374710
     16          8           0        2.199296    0.819102   -1.191610
     17          7           0        1.510392   -0.712996    0.369390
     18          1           0        0.680591   -1.031294    0.864790
     19          6           0        2.600989   -1.646899    0.151990
     20          1           0        3.420791   -1.103701   -0.320410
     21          1           0        2.939188   -2.059100    1.108090
     22          1           0        2.308487   -2.477298   -0.504910
 ---------------------------------------------------------------------

 SCF Done:  E(RHF) =  -492.922700902     A.U. after   14 cycles
 E2 =    -0.1603441944D+01 EUMP2 =    -0.49452614284551D+03

 The electronic state is 1-A.
 Alpha  occ. eigenvalues --  -20.54460 -20.52635 -15.61273 -15.57952 -11.37877
 Alpha  occ. eigenvalues --  -11.35151 -11.29699 -11.25892 -11.25784 -11.23586
 Alpha  occ. eigenvalues --   -1.39796  -1.37665  -1.25068  -1.21979  -1.06024
 Alpha  occ. eigenvalues --   -1.00141  -0.94789  -0.89029  -0.80513  -0.76770
 Alpha  occ. eigenvalues --   -0.71972  -0.70459  -0.65594  -0.63712  -0.62669
 Alpha  occ. eigenvalues --   -0.61289  -0.60030  -0.58591  -0.57527  -0.56655
 Alpha  occ. eigenvalues --   -0.54536  -0.53893  -0.52422  -0.51591  -0.50962
 Alpha  occ. eigenvalues --   -0.44190  -0.43572  -0.39409  -0.38157
 Alpha virt. eigenvalues --    0.02588   0.04024   0.04267   0.04528   0.05823
 Alpha virt. eigenvalues --    0.05873   0.06601   0.06714   0.07556   0.08173
 Alpha virt. eigenvalues --    0.08850   0.10025   0.10888   0.11734   0.11967

 Mulliken atomic charges:
              1
     1  H    0.019521
     2  C    0.457851
     3  H    0.058751
     4  H   -0.097907
     5  C    0.620712
     6  O   -0.871416
     7  N   -0.244167
     8  H   -0.118385
     9  C   -0.140922
    10  H   -0.230931
    11  C    0.834914
    12  H   -0.009884
    13  H   -0.057359
    14  H   -0.063945
    15  C    0.852180
    16  O   -0.817724
    17  N   -0.537928
    18  H   -0.035159
    19  C    0.745562
    20  H   -0.141749
    21  H   -0.136533
    22  H   -0.085479
 Sum of Mulliken atomic charges =   0.00000

 Dipole moment (field-independent basis, Debye):
    X=             -3.6999    Y=              0.3420    Z=             -0.3997  Tot=              3.7371
 Quadrupole moment (field-independent basis, Debye-Ang):
   XX=            -60.5635   YY=            -59.1196   ZZ=            -64.2868
   XY=             -7.7095   XZ=             11.7746   YZ=              3.3389

 Normal termination of Gaussian 09 at Tue Feb 14 05:30:16 2017.
