 Gaussian 09, Revision A.02,
 Gaussian 09:  EM64L-G09RevA.02 11-Jun-2009

 -------------------
 #SP MP2/aug-cc-pVDZ
 -------------------

 -------------------------------
 Single Point calculation at MP2
 -------------------------------
 Symbolic Z-matrix:
 Charge =  0 Multiplicity = 1

                         Standard orientation:
 ---------------------------------------------------------------------
 Center     Atomic      Atomic             Coordinates (Angstroms)
 Number     Number       Type             X           Y           Z
 ---------------------------------------------------------------------
      1          1           0       -3.493524   -1.727969    0.843194
      2          6           0       -3.111420   -1.281572   -0.076706
      3          1           0       -3.909615   -0.666065   -0.509006
      4          1           0       -2.864227   -2.074674   -0.790506
      5          6           0       -1.919713   -0.396083    0.271494
      6          8           0       -1.826007    0.177416    1.343894
      7          7           0       -0.954712   -0.321891   -0.716006
      8          1           0       -1.248815   -0.687189   -1.612906
      9          6           0        0.068598    0.744399   -0.794506
     10          1           0        0.365698    0.759197   -1.850806
     11          6           0       -0.415290    2.140104   -0.403706
     12          1           0       -0.659289    2.184806    0.656394
     13          1           0        0.376217    2.865697   -0.610006
     14          1           0       -1.300487    2.407812   -0.991106
     15          6           0        1.343694    0.341788   -0.009206
     16          8           0        1.832000    1.050584    0.857194
     17          7           0        1.942084   -0.804417   -0.466706
     18          1           0        1.353678   -1.436912   -0.993406
     19          6           0        3.080779   -1.382928    0.229794
     20          1           0        3.656286   -0.565733    0.666394
     21          1           0        2.776773   -2.061325    1.038394
     22          1           0        3.707874   -1.931733   -0.479306
 ---------------------------------------------------------------------

 SCF Done:  E(RHF) =  -492.914193755     A.U. after   14 cycles
 E2 =    -0.1601686221D+01 EUMP2 =    -0.49451587997568D+03

 The electronic state is 1-A.
 Alpha  occ. eigenvalues --  -20.53896 -20.53073 -15.60744 -15.59060 -11.36998
 Alpha  occ. eigenvalues --  -11.35542 -11.29870 -11.26493 -11.25470 -11.21971
 Alpha  occ. eigenvalues --   -1.39328  -1.38248  -1.24763  -1.22385  -1.05396
 Alpha  occ. eigenvalues --   -0.99421  -0.95618  -0.87484  -0.80322  -0.76734
 Alpha  occ. eigenvalues --   -0.71302  -0.70147  -0.65459  -0.64362  -0.62242
 Alpha  occ. eigenvalues --   -0.61312  -0.60391  -0.58980  -0.57016  -0.55516
 Alpha  occ. eigenvalues --   -0.54372  -0.52524  -0.52306  -0.51119  -0.50876
 Alpha  occ. eigenvalues --   -0.44336  -0.42540  -0.39630  -0.39054
 Alpha virt. eigenvalues --    0.01959   0.03655   0.03720   0.04586   0.05601
 Alpha virt. eigenvalues --    0.05931   0.06332   0.06467   0.07586   0.07849
 Alpha virt. eigenvalues --    0.08686   0.09481   0.10707   0.12237   0.12637

 Mulliken atomic charges:
              1
     1  H   -0.008085
     2  C    0.334460
     3  H    0.058528
     4  H   -0.083568
     5  C    0.669531
     6  O   -0.784920
     7  N   -0.439081
     8  H   -0.105530
     9  C   -0.224044
    10  H   -0.125238
    11  C    0.692663
    12  H    0.073764
    13  H   -0.089870
    14  H   -0.007312
    15  C    1.027905
    16  O   -0.779210
    17  N   -0.527124
    18  H   -0.067974
    19  C    0.746469
    20  H   -0.122176
    21  H   -0.082196
    22  H   -0.156993
 Sum of Mulliken atomic charges =   0.00000

 Dipole moment (field-independent basis, Debye):
    X=             -1.5116    Y=             -3.7820    Z=             -5.6774  Tot=              6.9872
 Quadrupole moment (field-independent basis, Debye-Ang):
   XX=            -58.3721   YY=            -58.6542   ZZ=            -64.0079
   XY=             -2.2347   XZ=              3.2627   YZ=             -2.2513

 Normal termination of Gaussian 09 at Tue Feb 14 05:32:00 2017.
