 Gaussian 09, Revision A.02,
 Gaussian 09:  EM64L-G09RevA.02 11-Jun-2009

 -------------------
 #SP MP2/aug-cc-pVDZ
 -------------------

 -------------------------------
 Single Point calculation at MP2
 -------------------------------
 Symbolic Z-matrix:
 Charge =  0 Multiplicity = 1

                         Standard orientation:
 ---------------------------------------------------------------------
 Center     Atomic      Atomic             Coordinates (Angstroms)
 Number     Number       Type             X           Y           Z
 ---------------------------------------------------------------------
      1          1           0       -3.566597   -1.682433    0.071999
      2          6           0       -3.228204   -0.791530   -0.460501
      3          1           0       -3.962710    0.004164   -0.287701
      4          1           0       -3.196803   -0.998630   -1.535401
      5          6           0       -1.881907   -0.362020    0.106499
      6          8           0       -1.573006   -0.563017    1.276799
      7          7           0       -1.032512    0.234787   -0.789901
      8          1           0       -1.388913    0.355084   -1.727901
      9          6           0        0.115981    1.091196   -0.446201
     10          1           0        0.291077    1.704097   -1.336501
     11          6           0       -0.134826    2.044594    0.732199
     12          1           0       -0.328622    1.490992    1.651999
     13          1           0        0.752569    2.668701    0.863599
     14          1           0       -0.994931    2.689087    0.521599
     15          6           0        1.454687    0.343406   -0.258101
     16          8           0        2.502082    0.981014   -0.281801
     17          7           0        1.385798   -1.007694   -0.113401
     18          1           0        0.482401   -1.395301    0.123999
     19          6           0        2.569104   -1.793085    0.195199
     20          1           0        3.438699   -1.247879   -0.173901
     21          1           0        2.688005   -1.948684    1.275499
     22          1           0        2.511211   -2.768186   -0.298701
 ---------------------------------------------------------------------

 SCF Done:  E(RHF) =  -492.921122713     A.U. after   14 cycles
 E2 =    -0.1602731317D+01 EUMP2 =    -0.49452385402972D+03

 The electronic state is 1-A.
 Alpha  occ. eigenvalues --  -20.54577 -20.52452 -15.61030 -15.58720 -11.37767
 Alpha  occ. eigenvalues --  -11.35424 -11.29872 -11.26116 -11.25994 -11.22865
 Alpha  occ. eigenvalues --   -1.39890  -1.37821  -1.25178  -1.22239  -1.05833
 Alpha  occ. eigenvalues --   -1.00004  -0.95311  -0.88390  -0.80298  -0.77365
 Alpha  occ. eigenvalues --   -0.72256  -0.70345  -0.65839  -0.62986  -0.62631
 Alpha  occ. eigenvalues --   -0.61645  -0.60258  -0.59361  -0.57558  -0.56046
 Alpha  occ. eigenvalues --   -0.54563  -0.54064  -0.52365  -0.51841  -0.49699
 Alpha  occ. eigenvalues --   -0.44194  -0.43494  -0.40021  -0.38268
 Alpha virt. eigenvalues --    0.02329   0.03904   0.04145   0.04577   0.05817
 Alpha virt. eigenvalues --    0.06121   0.06350   0.06636   0.07618   0.08232
 Alpha virt. eigenvalues --    0.09033   0.09134   0.11080   0.11867   0.12715

 Mulliken atomic charges:
              1
     1  H   -0.002161
     2  C    0.382596
     3  H    0.056984
     4  H   -0.074173
     5  C    0.615128
     6  O   -0.818078
     7  N   -0.045326
     8  H   -0.136678
     9  C   -0.578437
    10  H   -0.052076
    11  C    0.753053
    12  H    0.035090
    13  H   -0.057117
    14  H   -0.058362
    15  C    1.122813
    16  O   -0.892108
    17  N   -0.563965
    18  H   -0.070462
    19  C    0.748061
    20  H   -0.134456
    21  H   -0.080229
    22  H   -0.150098
 Sum of Mulliken atomic charges =   0.00000

 Dipole moment (field-independent basis, Debye):
    X=             -3.9206    Y=             -1.2455    Z=             -2.9785  Tot=              5.0788
 Quadrupole moment (field-independent basis, Debye-Ang):
   XX=            -63.7750   YY=            -58.5904   ZZ=            -62.4902
   XY=             -7.5197   XZ=              8.3577   YZ=              0.7288

 Normal termination of Gaussian 09 at Tue Feb 14 05:33:57 2017.
