 Gaussian 09, Revision A.02,
 Gaussian 09:  EM64L-G09RevA.02 11-Jun-2009

 -------------------
 #SP MP2/aug-cc-pVDZ
 -------------------

 -------------------------------
 Single Point calculation at MP2
 -------------------------------
 Symbolic Z-matrix:
 Charge =  0 Multiplicity = 1

                         Standard orientation:
 ---------------------------------------------------------------------
 Center     Atomic      Atomic             Coordinates (Angstroms)
 Number     Number       Type             X           Y           Z
 ---------------------------------------------------------------------
      1          1           0       -3.504809   -1.713505    0.759295
      2          6           0       -3.124308   -1.202906   -0.127305
      3          1           0       -3.905808   -0.522205   -0.486605
      4          1           0       -2.922909   -1.938406   -0.913405
      5          6           0       -1.890808   -0.398606    0.265395
      6          8           0       -1.730908    0.046593    1.389795
      7          7           0       -0.959308   -0.242307   -0.746805
      8          1           0       -1.304108   -0.487207   -1.667005
      9          6           0        0.068893    0.822392   -0.747305
     10          1           0        0.345393    0.932092   -1.804005
     11          6           0       -0.399206    2.181893   -0.228405
     12          1           0       -0.660906    2.129093    0.827695
     13          1           0        0.408794    2.906892   -0.350405
     14          1           0       -1.270806    2.520793   -0.799305
     15          6           0        1.369593    0.353991   -0.047905
     16          8           0        2.034293    1.105491    0.650595
     17          7           0        1.779892   -0.900209   -0.410205
     18          1           0        1.059791   -1.512108   -0.771605
     19          6           0        2.946191   -1.514610    0.203195
     20          1           0        3.654692   -0.722110    0.448095
     21          1           0        2.697591   -2.052709    1.127895
     22          1           0        3.409791   -2.212610   -0.500705
 ---------------------------------------------------------------------

 SCF Done:  E(RHF) =  -492.916747452     A.U. after   14 cycles
 E2 =    -0.1601898948D+01 EUMP2 =    -0.49451864640024D+03

 The electronic state is 1-A.
 Alpha  occ. eigenvalues --  -20.54298 -20.52906 -15.60883 -15.58838 -11.37275
 Alpha  occ. eigenvalues --  -11.35477 -11.29850 -11.26378 -11.25709 -11.21990
 Alpha  occ. eigenvalues --   -1.39661  -1.38133  -1.24973  -1.22235  -1.05451
 Alpha  occ. eigenvalues --   -0.99605  -0.95595  -0.87520  -0.80344  -0.76671
 Alpha  occ. eigenvalues --   -0.71461  -0.70245  -0.65717  -0.64108  -0.62361
 Alpha  occ. eigenvalues --   -0.61350  -0.60420  -0.59069  -0.57238  -0.55499
 Alpha  occ. eigenvalues --   -0.54326  -0.53072  -0.52116  -0.51273  -0.50632
 Alpha  occ. eigenvalues --   -0.44375  -0.42842  -0.39774  -0.38965
 Alpha virt. eigenvalues --    0.02035   0.03642   0.03781   0.04649   0.05637
 Alpha virt. eigenvalues --    0.06046   0.06332   0.06422   0.07628   0.07927
 Alpha virt. eigenvalues --    0.08564   0.09356   0.11131   0.12260   0.12510

 Mulliken atomic charges:
              1
     1  H   -0.006585
     2  C    0.326602
     3  H    0.056340
     4  H   -0.087358
     5  C    0.710199
     6  O   -0.804919
     7  N   -0.369563
     8  H   -0.085005
     9  C   -0.292820
    10  H   -0.093704
    11  C    0.711948
    12  H    0.042492
    13  H   -0.073438
    14  H   -0.014731
    15  C    0.981951
    16  O   -0.790981
    17  N   -0.520025
    18  H   -0.060407
    19  C    0.730660
    20  H   -0.127446
    21  H   -0.078226
    22  H   -0.154982
 Sum of Mulliken atomic charges =   0.00000

 Dipole moment (field-independent basis, Debye):
    X=             -2.3546    Y=             -3.4579    Z=             -5.2835  Tot=              6.7392
 Quadrupole moment (field-independent basis, Debye-Ang):
   XX=            -59.5599   YY=            -58.7011   ZZ=            -63.8364
   XY=             -3.5011   XZ=              3.8344   YZ=             -2.1179

 Normal termination of Gaussian 09 at Tue Feb 14 05:34:14 2017.
