 Gaussian 09, Revision A.02,
 Gaussian 09:  EM64L-G09RevA.02 11-Jun-2009

 -------------------
 #SP MP2/aug-cc-pVDZ
 -------------------

 -------------------------------
 Single Point calculation at MP2
 -------------------------------
 Symbolic Z-matrix:
 Charge =  0 Multiplicity = 1

                         Standard orientation:
 ---------------------------------------------------------------------
 Center     Atomic      Atomic             Coordinates (Angstroms)
 Number     Number       Type             X           Y           Z
 ---------------------------------------------------------------------
      1          1           0        4.059424   -1.123839   -0.082590
      2          6           0        3.058627   -1.345055    0.291910
      3          1           0        3.111531   -1.572054    1.362410
      4          1           0        2.684841   -2.234461   -0.229590
      5          6           0        2.147909   -0.162469   -0.022790
      6          8           0        2.383397    0.604434   -0.942390
      7          7           0        1.074707   -0.049686    0.838310
      8          1           0        0.946619   -0.838788    1.458810
      9          6           0       -0.142205    0.729095    0.626310
     10          1           0       -0.513309    0.978889    1.631410
     11          6           0        0.056675    2.046998   -0.136290
     12          1           0        0.343877    1.863603   -1.170090
     13          1           0       -0.882534    2.612084   -0.110290
     14          1           0        0.839065    2.647110    0.335610
     15          6           0       -1.206391   -0.144021   -0.080990
     16          8           0       -0.926880   -0.871017   -1.023590
     17          7           0       -2.462693   -0.048841    0.452210
     18          1           0       -2.621603    0.614057    1.197810
     19          6           0       -3.614683   -0.704459   -0.143190
     20          1           0       -3.238272   -1.413153   -0.882290
     21          1           0       -4.188574   -1.244268    0.617810
     22          1           0       -4.276894    0.012631   -0.644590
 ---------------------------------------------------------------------

 SCF Done:  E(RHF) =  -492.914722939     A.U. after   14 cycles
 E2 =    -0.1600919593D+01 EUMP2 =    -0.49451564253188D+03

 The electronic state is 1-A.
 Alpha  occ. eigenvalues --  -20.53298 -20.52361 -15.60315 -15.59375 -11.36094
 Alpha  occ. eigenvalues --  -11.35814 -11.29912 -11.27299 -11.23987 -11.22963
 Alpha  occ. eigenvalues --   -1.38894  -1.37629  -1.23991  -1.23316  -1.05456
 Alpha  occ. eigenvalues --   -0.98599  -0.95983  -0.88044  -0.80080  -0.76875
 Alpha  occ. eigenvalues --   -0.71916  -0.69624  -0.65792  -0.63194  -0.62514
 Alpha  occ. eigenvalues --   -0.61873  -0.59401  -0.58476  -0.56259  -0.55535
 Alpha  occ. eigenvalues --   -0.55142  -0.53306  -0.52540  -0.50995  -0.50442
 Alpha  occ. eigenvalues --   -0.43937  -0.41247  -0.39757  -0.38645
 Alpha virt. eigenvalues --    0.02264   0.03669   0.04097   0.04544   0.05837
 Alpha virt. eigenvalues --    0.05874   0.06153   0.06748   0.07806   0.08052
 Alpha virt. eigenvalues --    0.08629   0.08932   0.10942   0.11766   0.13130

 Mulliken atomic charges:
              1
     1  H   -0.033388
     2  C    0.303254
     3  H   -0.053895
     4  H    0.069178
     5  C    0.693772
     6  O   -0.792533
     7  N   -0.401400
     8  H   -0.087237
     9  C   -0.319804
    10  H   -0.303999
    11  C    0.750323
    12  H    0.076745
    13  H   -0.099744
    14  H   -0.012575
    15  C    1.276436
    16  O   -0.857745
    17  N   -0.480329
    18  H   -0.114235
    19  C    0.746192
    20  H   -0.142299
    21  H   -0.123860
    22  H   -0.092857
 Sum of Mulliken atomic charges =   0.00000

 Dipole moment (field-independent basis, Debye):
    X=             -3.1965    Y=             -0.2266    Z=              5.1699  Tot=              6.0825
 Quadrupole moment (field-independent basis, Debye-Ang):
   XX=            -54.5048   YY=            -59.8392   ZZ=            -63.5452
   XY=             -7.9408   XZ=              2.1679   YZ=             -0.8836

 Normal termination of Gaussian 09 at Tue Feb 14 04:28:43 2017.
