 Gaussian 09, Revision A.02,
 Gaussian 09:  EM64L-G09RevA.02 11-Jun-2009

 -------------------
 #SP MP2/aug-cc-pVDZ
 -------------------

 -------------------------------
 Single Point calculation at MP2
 -------------------------------
 Symbolic Z-matrix:
 Charge =  0 Multiplicity = 1

                         Standard orientation:
 ---------------------------------------------------------------------
 Center     Atomic      Atomic             Coordinates (Angstroms)
 Number     Number       Type             X           Y           Z
 ---------------------------------------------------------------------
      1          1           0       -3.936995   -0.904230   -0.446408
      2          6           0       -3.054991   -1.411323   -0.038808
      3          1           0       -2.751384   -2.196920   -0.738808
      4          1           0       -3.346487   -1.868925    0.909292
      5          6           0       -1.967999   -0.376114    0.238792
      6          8           0       -2.013706    0.356886    1.213192
      7          7           0       -0.954500   -0.354005   -0.693408
      8          1           0       -1.093895   -0.936307   -1.506708
      9          6           0        0.086292    0.684903   -0.819908
     10          1           0        0.405692    0.629506   -1.868808
     11          6           0       -0.386720    2.108699   -0.530808
     12          1           0       -0.620421    2.230297    0.524992
     13          1           0        0.408674    2.811106   -0.800108
     14          1           0       -1.275022    2.339492   -1.127708
     15          6           0        1.320295    0.317614    0.045792
     16          8           0        1.601390    0.903916    1.079292
     17          7           0        2.097103   -0.681080   -0.482208
     18          1           0        1.725507   -1.208683   -1.259608
     19          6           0        3.214808   -1.252971    0.250092
     20          1           0        3.533902   -0.516868    0.988992
     21          1           0        2.936716   -2.176573    0.775192
     22          1           0        4.043910   -1.467564   -0.431808
 ---------------------------------------------------------------------

 SCF Done:  E(RHF) =  -492.912013310     A.U. after   14 cycles
 E2 =    -0.1601752515D+01 EUMP2 =    -0.49451376582563D+03

 The electronic state is 1-A.
 Alpha  occ. eigenvalues --  -20.53126 -20.53014 -15.60567 -15.59542 -11.36609
 Alpha  occ. eigenvalues --  -11.35687 -11.29978 -11.26781 -11.25092 -11.21943
 Alpha  occ. eigenvalues --   -1.38808  -1.38159  -1.24571  -1.22709  -1.05391
 Alpha  occ. eigenvalues --   -0.99130  -0.95844  -0.87576  -0.80393  -0.77165
 Alpha  occ. eigenvalues --   -0.71466  -0.70047  -0.65186  -0.64565  -0.61973
 Alpha  occ. eigenvalues --   -0.61488  -0.60248  -0.58920  -0.56669  -0.55350
 Alpha  occ. eigenvalues --   -0.54558  -0.52625  -0.52044  -0.51134  -0.50839
 Alpha  occ. eigenvalues --   -0.44237  -0.41962  -0.39303  -0.38905
 Alpha virt. eigenvalues --    0.01822   0.03603   0.03730   0.04506   0.05578
 Alpha virt. eigenvalues --    0.05780   0.06309   0.06644   0.07416   0.07699
 Alpha virt. eigenvalues --    0.08878   0.09625   0.10389   0.12199   0.12541

 Mulliken atomic charges:
              1
     1  H    0.051985
     2  C    0.365509
     3  H   -0.127212
     4  H    0.014492
     5  C    0.652090
     6  O   -0.795670
     7  N   -0.396108
     8  H   -0.128200
     9  C   -0.202770
    10  H   -0.235657
    11  C    0.663480
    12  H    0.099439
    13  H   -0.086382
    14  H   -0.000977
    15  C    1.138624
    16  O   -0.786699
    17  N   -0.507375
    18  H   -0.109082
    19  C    0.740022
    20  H   -0.123917
    21  H   -0.082340
    22  H   -0.143253
 Sum of Mulliken atomic charges =   0.00000

 Dipole moment (field-independent basis, Debye):
    X=             -0.0859    Y=             -4.1083    Z=             -6.0748  Tot=              7.3340
 Quadrupole moment (field-independent basis, Debye-Ang):
   XX=            -57.9719   YY=            -58.4213   ZZ=            -63.7595
   XY=             -0.4184   XZ=              2.1063   YZ=             -2.0942

 Normal termination of Gaussian 09 at Tue Feb 14 05:34:40 2017.
