 Gaussian 09, Revision A.02,
 Gaussian 09:  EM64L-G09RevA.02 11-Jun-2009

 -------------------
 #SP MP2/aug-cc-pVDZ
 -------------------

 -------------------------------
 Single Point calculation at MP2
 -------------------------------
 Symbolic Z-matrix:
 Charge =  0 Multiplicity = 1

                         Standard orientation:
 ---------------------------------------------------------------------
 Center     Atomic      Atomic             Coordinates (Angstroms)
 Number     Number       Type             X           Y           Z
 ---------------------------------------------------------------------
      1          1           0       -4.011904   -0.663100    0.591796
      2          6           0       -3.098004   -1.155600    0.248596
      3          1           0       -3.262104   -1.555600   -0.756604
      4          1           0       -2.897904   -1.987700    0.932296
      5          6           0       -1.949004   -0.158000    0.337896
      6          8           0       -1.761204    0.508000    1.349796
      7          7           0       -1.176804   -0.075300   -0.791504
      8          1           0       -1.271204   -0.821200   -1.467304
      9          6           0        0.065196    0.697300   -0.928704
     10          1           0        0.201196    0.818300   -2.010104
     11          6           0        0.005496    2.098500   -0.316404
     12          1           0       -0.133604    2.076300    0.764596
     13          1           0        0.919496    2.646100   -0.572104
     14          1           0       -0.844204    2.644700   -0.737404
     15          6           0        1.243496   -0.223400   -0.527204
     16          8           0        1.432196   -1.258400   -1.159904
     17          7           0        2.015996    0.176500    0.517496
     18          1           0        1.714196    0.975500    1.055596
     19          6           0        3.100796   -0.638600    1.038296
     20          1           0        3.325296   -1.403000    0.293396
     21          1           0        3.990796   -0.024900    1.212596
     22          1           0        2.819796   -1.131800    1.977296
 ---------------------------------------------------------------------

 SCF Done:  E(RHF) =  -492.919090379     A.U. after   14 cycles
 E2 =    -0.1601314604D+01 EUMP2 =    -0.49452040498363D+03

 The electronic state is 1-A.
 Alpha  occ. eigenvalues --  -20.53107 -20.53019 -15.59957 -15.59858 -11.36602
 Alpha  occ. eigenvalues --  -11.36054 -11.29782 -11.26869 -11.24655 -11.23625
 Alpha  occ. eigenvalues --   -1.38860  -1.38123  -1.24051  -1.23371  -1.05732
 Alpha  occ. eigenvalues --   -0.99195  -0.95522  -0.89310  -0.80182  -0.76945
 Alpha  occ. eigenvalues --   -0.72153  -0.69949  -0.65480  -0.64699  -0.61765
 Alpha  occ. eigenvalues --   -0.61749  -0.59596  -0.58832  -0.56593  -0.55611
 Alpha  occ. eigenvalues --   -0.55142  -0.54656  -0.52780  -0.51430  -0.50821
 Alpha  occ. eigenvalues --   -0.43723  -0.42112  -0.39767  -0.38814
 Alpha virt. eigenvalues --    0.03162   0.03730   0.04201   0.04970   0.05673
 Alpha virt. eigenvalues --    0.05906   0.06293   0.07079   0.07593   0.07737
 Alpha virt. eigenvalues --    0.09095   0.09702   0.11027   0.11359   0.13412

 Mulliken atomic charges:
              1
     1  H    0.023277
     2  C    0.414206
     3  H   -0.130772
     4  H    0.051071
     5  C    0.598883
     6  O   -0.827185
     7  N   -0.448077
     8  H   -0.066942
     9  C   -0.103776
    10  H   -0.134852
    11  C    0.796761
    12  H    0.149591
    13  H   -0.062881
    14  H   -0.113005
    15  C    1.010059
    16  O   -0.899359
    17  N   -0.559306
    18  H   -0.092097
    19  C    0.741792
    20  H   -0.138038
    21  H   -0.133317
    22  H   -0.076033
 Sum of Mulliken atomic charges =   0.00000

 Dipole moment (field-independent basis, Debye):
    X=              0.0292    Y=              0.9872    Z=             -0.5102  Tot=              1.1116
 Quadrupole moment (field-independent basis, Debye-Ang):
   XX=            -55.4097   YY=            -61.5918   ZZ=            -64.5378
   XY=              8.6443   XZ=             10.6849   YZ=             -4.7277

 Normal termination of Gaussian 09 at Tue Feb 14 05:09:02 2017.
