 Gaussian 09, Revision A.02,
 Gaussian 09:  EM64L-G09RevA.02 11-Jun-2009

 -------------------
 #SP MP2/aug-cc-pVDZ
 -------------------

 -------------------------------
 Single Point calculation at MP2
 -------------------------------
 Symbolic Z-matrix:
 Charge =  0 Multiplicity = 1

                         Standard orientation:
 ---------------------------------------------------------------------
 Center     Atomic      Atomic             Coordinates (Angstroms)
 Number     Number       Type             X           Y           Z
 ---------------------------------------------------------------------
      1          1           0       -3.996906   -0.711086    0.784200
      2          6           0       -3.113907   -1.133589    0.299900
      3          1           0       -3.374608   -1.463888   -0.710400
      4          1           0       -2.799709   -2.008690    0.881100
      5          6           0       -2.000704   -0.092592    0.326300
      6          8           0       -1.862202    0.675808    1.270100
      7          7           0       -1.196404   -0.101794   -0.787200
      8          1           0       -1.234506   -0.938294   -1.355400
      9          6           0        0.071198    0.623002   -0.926300
     10          1           0        0.241498    0.684502   -2.009700
     11          6           0        0.040402    2.058202   -0.394500
     12          1           0       -0.063498    2.098903    0.690000
     13          1           0        0.948403    2.584100   -0.712300
     14          1           0       -0.816497    2.588405   -0.820000
     15          6           0        1.211195   -0.306101   -0.438200
     16          8           0        1.242492   -1.468201   -0.833400
     17          7           0        2.152997    0.237797    0.377600
     18          1           0        1.989799    1.161297    0.750100
     19          6           0        3.253195   -0.542107    0.920300
     20          1           0        3.324292   -1.461507    0.338100
     21          1           0        4.192196    0.015591    0.840600
     22          1           0        3.082794   -0.803106    1.972300
 ---------------------------------------------------------------------

 SCF Done:  E(RHF) =  -492.919050975     A.U. after   14 cycles
 E2 =    -0.1600990212D+01 EUMP2 =    -0.49452004118746D+03

 The electronic state is 1-A.
 Alpha  occ. eigenvalues --  -20.53164 -20.53019 -15.60081 -15.59473 -11.36323
 Alpha  occ. eigenvalues --  -11.36225 -11.29818 -11.27042 -11.24367 -11.23675
 Alpha  occ. eigenvalues --   -1.38933  -1.38082  -1.23869  -1.23488  -1.05660
 Alpha  occ. eigenvalues --   -0.99017  -0.95606  -0.89245  -0.80221  -0.76582
 Alpha  occ. eigenvalues --   -0.72206  -0.69792  -0.65514  -0.64691  -0.61872
 Alpha  occ. eigenvalues --   -0.61691  -0.59596  -0.58784  -0.56403  -0.55618
 Alpha  occ. eigenvalues --   -0.55252  -0.54616  -0.52859  -0.51310  -0.50652
 Alpha  occ. eigenvalues --   -0.43578  -0.42047  -0.39908  -0.38913
 Alpha virt. eigenvalues --    0.03068   0.03822   0.04233   0.04918   0.05681
 Alpha virt. eigenvalues --    0.05950   0.06198   0.06982   0.07574   0.07767
 Alpha virt. eigenvalues --    0.09383   0.09599   0.10738   0.11422   0.13479

 Mulliken atomic charges:
              1
     1  H   -0.008312
     2  C    0.370367
     3  H   -0.083093
     4  H    0.060730
     5  C    0.623872
     6  O   -0.817420
     7  N   -0.476714
     8  H   -0.042306
     9  C   -0.190944
    10  H   -0.106940
    11  C    0.833985
    12  H    0.135654
    13  H   -0.034601
    14  H   -0.130716
    15  C    1.001640
    16  O   -0.886056
    17  N   -0.520443
    18  H   -0.114215
    19  C    0.736142
    20  H   -0.136804
    21  H   -0.141489
    22  H   -0.072335
 Sum of Mulliken atomic charges =   0.00000

 Dipole moment (field-independent basis, Debye):
    X=              0.9226    Y=              1.0880    Z=             -0.9947  Tot=              1.7391
 Quadrupole moment (field-independent basis, Debye-Ang):
   XX=            -54.1036   YY=            -63.0239   ZZ=            -63.4822
   XY=              9.7915   XZ=              8.7856   YZ=             -4.3817

 Normal termination of Gaussian 09 at Tue Feb 14 05:12:31 2017.
