 Gaussian 09, Revision A.02,
 Gaussian 09:  EM64L-G09RevA.02 11-Jun-2009

 -------------------
 #SP MP2/aug-cc-pVDZ
 -------------------

 -------------------------------
 Single Point calculation at MP2
 -------------------------------
 Symbolic Z-matrix:
 Charge =  0 Multiplicity = 1

                         Standard orientation:
 ---------------------------------------------------------------------
 Center     Atomic      Atomic             Coordinates (Angstroms)
 Number     Number       Type             X           Y           Z
 ---------------------------------------------------------------------
      1          1           0        3.564599   -1.153999   -1.495795
      2          6           0        3.058700   -1.373700   -0.551395
      3          1           0        3.834701   -1.551598    0.200405
      4          1           0        2.462803   -2.284102   -0.668795
      5          6           0        2.248997   -0.147903   -0.140095
      6          8           0        2.758493    0.965299   -0.102395
      7          7           0        0.940097   -0.414106    0.165905
      8          1           0        0.679900   -1.384807    0.287805
      9          6           0       -0.055205    0.529591    0.694905
     10          1           0        0.057194    0.611591    1.784905
     11          6           0        0.041691    1.930491    0.081105
     12          1           0        0.031791    1.892491   -1.014695
     13          1           0       -0.799211    2.541489    0.429105
     14          1           0        0.976389    2.408194    0.369205
     15          6           0       -1.407303   -0.190313    0.479805
     16          8           0       -1.673801   -1.179714    1.157805
     17          7           0       -2.194305    0.255885   -0.534095
     18          1           0       -1.906907    1.076286   -1.045595
     19          6           0       -3.461703   -0.368519   -0.873595
     20          1           0       -3.596900   -1.218719   -0.204195
     21          1           0       -4.295705    0.330679   -0.741695
     22          1           0       -3.457802   -0.722519   -1.910995
 ---------------------------------------------------------------------

 SCF Done:  E(RHF) =  -492.916848014     A.U. after   14 cycles
 E2 =    -0.1602084987D+01 EUMP2 =    -0.49451893300104D+03

 The electronic state is 1-A.
 Alpha  occ. eigenvalues --  -20.53813 -20.52977 -15.60587 -15.60028 -11.36829
 Alpha  occ. eigenvalues --  -11.36570 -11.29945 -11.27526 -11.24658 -11.23627
 Alpha  occ. eigenvalues --   -1.39393  -1.38274  -1.24561  -1.23683  -1.05915
 Alpha  occ. eigenvalues --   -0.99209  -0.95988  -0.89651  -0.80157  -0.77684
 Alpha  occ. eigenvalues --   -0.72909  -0.68636  -0.66749  -0.65224  -0.62534
 Alpha  occ. eigenvalues --   -0.61876  -0.59255  -0.58917  -0.56646  -0.55939
 Alpha  occ. eigenvalues --   -0.55863  -0.54277  -0.53802  -0.52394  -0.50395
 Alpha  occ. eigenvalues --   -0.43714  -0.41962  -0.40169  -0.39302
 Alpha virt. eigenvalues --    0.02842   0.03733   0.04321   0.04688   0.05610
 Alpha virt. eigenvalues --    0.06027   0.06347   0.06904   0.06993   0.07927
 Alpha virt. eigenvalues --    0.09275   0.09817   0.10885   0.11657   0.13053

 Mulliken atomic charges:
              1
     1  H    0.027480
     2  C    0.401301
     3  H    0.051125
     4  H   -0.159804
     5  C    0.569452
     6  O   -0.852836
     7  N   -0.482081
     8  H   -0.070072
     9  C    0.304733
    10  H   -0.095930
    11  C    0.721519
    12  H    0.073400
    13  H   -0.082234
    14  H   -0.089352
    15  C    0.922183
    16  O   -0.926728
    17  N   -0.599527
    18  H   -0.106651
    19  C    0.737736
    20  H   -0.148504
    21  H   -0.093636
    22  H   -0.101574
 Sum of Mulliken atomic charges =   0.00000

 Dipole moment (field-independent basis, Debye):
    X=             -1.9913    Y=             -0.1701    Z=             -2.3182  Tot=              3.0608
 Quadrupole moment (field-independent basis, Debye-Ang):
   XX=            -63.4156   YY=            -61.8953   ZZ=            -61.8968
   XY=            -13.7747   XZ=              5.9775   YZ=              3.4079

 Normal termination of Gaussian 09 at Sun Feb 12 23:44:21 2017.
