 Gaussian 09, Revision A.02,
 Gaussian 09:  EM64L-G09RevA.02 11-Jun-2009

 -------------------
 #SP MP2/aug-cc-pVDZ
 -------------------

 -------------------------------
 Single Point calculation at MP2
 -------------------------------
 Symbolic Z-matrix:
 Charge =  0 Multiplicity = 1

                         Standard orientation:
 ---------------------------------------------------------------------
 Center     Atomic      Atomic             Coordinates (Angstroms)
 Number     Number       Type             X           Y           Z
 ---------------------------------------------------------------------
      1          1           0       -4.079410   -1.340598   -0.455394
      2          6           0       -3.163710   -1.358898    0.139206
      3          1           0       -2.672211   -2.330299    0.024706
      4          1           0       -3.444710   -1.236198    1.192206
      5          6           0       -2.281909   -0.191399   -0.283994
      6          8           0       -2.748108    0.876201   -0.659694
      7          7           0       -0.929409   -0.447400   -0.243994
      8          1           0       -0.656010   -1.247701    0.317406
      9          6           0        0.073792    0.626099   -0.212694
     10          1           0        0.152892    1.051099   -1.220794
     11          6           0       -0.237307    1.752499    0.788906
     12          1           0       -0.271008    1.343599    1.803106
     13          1           0        0.550993    2.513598    0.750406
     14          1           0       -1.192707    2.218100    0.546506
     15          6           0        1.388991   -0.049303    0.209006
     16          8           0        1.461990   -0.667803    1.267406
     17          7           0        2.412891    0.045096   -0.681494
     18          1           0        2.259692    0.563197   -1.534694
     19          6           0        3.731291   -0.512705   -0.430394
     20          1           0        3.687390   -1.033705    0.526706
     21          1           0        4.009890   -1.224005   -1.215994
     22          1           0        4.492891    0.274095   -0.377694
 ---------------------------------------------------------------------

 SCF Done:  E(RHF) =  -492.921748965     A.U. after   14 cycles
 E2 =    -0.1601889580D+01 EUMP2 =    -0.49452363854484D+03

 The electronic state is 1-A.
 Alpha  occ. eigenvalues --  -20.54093 -20.53223 -15.60989 -15.59423 -11.37042
 Alpha  occ. eigenvalues --  -11.36222 -11.29579 -11.27720 -11.24526 -11.22604
 Alpha  occ. eigenvalues --   -1.39680  -1.38357  -1.24582  -1.23492  -1.05391
 Alpha  occ. eigenvalues --   -0.99063  -0.96564  -0.88093  -0.80222  -0.77797
 Alpha  occ. eigenvalues --   -0.73100  -0.67406  -0.66446  -0.64150  -0.63199
 Alpha  occ. eigenvalues --   -0.62003  -0.60550  -0.58457  -0.56626  -0.56305
 Alpha  occ. eigenvalues --   -0.55623  -0.54542  -0.52302  -0.51659  -0.49772
 Alpha  occ. eigenvalues --   -0.43628  -0.42330  -0.40456  -0.39669
 Alpha virt. eigenvalues --    0.02735   0.03910   0.04390   0.04501   0.05692
 Alpha virt. eigenvalues --    0.05980   0.06318   0.06860   0.07843   0.08144
 Alpha virt. eigenvalues --    0.09013   0.09208   0.11337   0.12068   0.12703

 Mulliken atomic charges:
              1
     1  H   -0.012070
     2  C    0.330267
     3  H   -0.080583
     4  H    0.059430
     5  C    0.652288
     6  O   -0.846841
     7  N   -0.291433
     8  H    0.001679
     9  C   -0.182632
    10  H   -0.314025
    11  C    0.689539
    12  H    0.015520
    13  H   -0.073030
    14  H   -0.014535
    15  C    1.152819
    16  O   -0.866550
    17  N   -0.500783
    18  H   -0.107710
    19  C    0.727200
    20  H   -0.145580
    21  H   -0.103733
    22  H   -0.089237
 Sum of Mulliken atomic charges =   0.00000

 Dipole moment (field-independent basis, Debye):
    X=              2.7643    Y=             -1.0675    Z=             -1.5755  Tot=              3.3560
 Quadrupole moment (field-independent basis, Debye-Ang):
   XX=            -58.8558   YY=            -60.7435   ZZ=            -63.7948
   XY=             10.4856   XZ=            -11.0447   YZ=              1.7760

 Normal termination of Gaussian 09 at Sun Feb 12 23:02:40 2017.
