 Gaussian 09, Revision A.02,
 Gaussian 09:  EM64L-G09RevA.02 11-Jun-2009

 -------------------
 #SP MP2/aug-cc-pVDZ
 -------------------

 -------------------------------
 Single Point calculation at MP2
 -------------------------------
 Symbolic Z-matrix:
 Charge =  0 Multiplicity = 1

                         Standard orientation:
 ---------------------------------------------------------------------
 Center     Atomic      Atomic             Coordinates (Angstroms)
 Number     Number       Type             X           Y           Z
 ---------------------------------------------------------------------
      1          1           0       -4.015395   -1.504709   -0.165185
      2          6           0       -3.082295   -1.403407    0.392515
      3          1           0       -2.562493   -2.366806    0.414715
      4          1           0       -3.333295   -1.124308    1.423115
      5          6           0       -2.251297   -0.295706   -0.241785
      6          8           0       -2.760499    0.659093   -0.812285
      7          7           0       -0.886997   -0.476703   -0.152585
      8          1           0       -0.595495   -1.151202    0.547115
      9          6           0        0.065901    0.637899   -0.308485
     10          1           0        0.137101    0.871499   -1.377885
     11          6           0       -0.314901    1.909098    0.464015
     12          1           0       -0.327001    1.697498    1.536715
     13          1           0        0.430297    2.691600    0.279015
     14          1           0       -1.292802    2.268396    0.143215
     15          6           0        1.408202    0.109801    0.231015
     16          8           0        1.576103   -0.075298    1.432315
     17          7           0        2.335403   -0.203197   -0.715785
     18          1           0        2.109203   -0.027997   -1.684185
     19          6           0        3.648404   -0.733494   -0.389985
     20          1           0        3.688804   -0.859794    0.692615
     21          1           0        3.809606   -1.704094   -0.872785
     22          1           0        4.443703   -0.046293   -0.701885
 ---------------------------------------------------------------------

 SCF Done:  E(RHF) =  -492.919654886     A.U. after   14 cycles
 E2 =    -0.1602171370D+01 EUMP2 =    -0.49452182625662D+03

 The electronic state is 1-A.
 Alpha  occ. eigenvalues --  -20.54051 -20.53462 -15.60863 -15.59761 -11.36955
 Alpha  occ. eigenvalues --  -11.36431 -11.29592 -11.27656 -11.24737 -11.22241
 Alpha  occ. eigenvalues --   -1.39608  -1.38579  -1.24584  -1.23515  -1.05352
 Alpha  occ. eigenvalues --   -0.99129  -0.96602  -0.87902  -0.80013  -0.77992
 Alpha  occ. eigenvalues --   -0.73120  -0.67308  -0.66594  -0.64437  -0.62942
 Alpha  occ. eigenvalues --   -0.62086  -0.60615  -0.58587  -0.56767  -0.56199
 Alpha  occ. eigenvalues --   -0.55525  -0.54365  -0.52353  -0.51443  -0.49802
 Alpha  occ. eigenvalues --   -0.43661  -0.42348  -0.40688  -0.39629
 Alpha virt. eigenvalues --    0.02712   0.03775   0.04379   0.04602   0.05627
 Alpha virt. eigenvalues --    0.05984   0.06213   0.06884   0.07795   0.08138
 Alpha virt. eigenvalues --    0.09019   0.09232   0.11098   0.12110   0.12761

 Mulliken atomic charges:
              1
     1  H   -0.019403
     2  C    0.328316
     3  H   -0.068950
     4  H    0.059503
     5  C    0.645302
     6  O   -0.842079
     7  N   -0.327448
     8  H    0.001986
     9  C   -0.093137
    10  H   -0.308762
    11  C    0.657090
    12  H    0.022262
    13  H   -0.063620
    14  H   -0.003121
    15  C    1.065841
    16  O   -0.844347
    17  N   -0.479518
    18  H   -0.108908
    19  C    0.721067
    20  H   -0.147072
    21  H   -0.107914
    22  H   -0.087086
 Sum of Mulliken atomic charges =   0.00000

 Dipole moment (field-independent basis, Debye):
    X=              2.4353    Y=             -2.1026    Z=             -1.5110  Tot=              3.5545
 Quadrupole moment (field-independent basis, Debye-Ang):
   XX=            -60.8072   YY=            -59.2067   ZZ=            -64.5148
   XY=              6.4234   XZ=            -13.2912   YZ=              0.2861

 Normal termination of Gaussian 09 at Sun Feb 12 23:11:52 2017.
