 Gaussian 09, Revision A.02,
 Gaussian 09:  EM64L-G09RevA.02 11-Jun-2009

 -------------------
 #SP MP2/aug-cc-pVDZ
 -------------------

 -------------------------------
 Single Point calculation at MP2
 -------------------------------
 Symbolic Z-matrix:
 Charge =  0 Multiplicity = 1

                         Standard orientation:
 ---------------------------------------------------------------------
 Center     Atomic      Atomic             Coordinates (Angstroms)
 Number     Number       Type             X           Y           Z
 ---------------------------------------------------------------------
      1          1           0       -4.175406   -1.108557   -0.536988
      2          6           0       -3.273907   -1.227065    0.068612
      3          1           0       -2.830016   -2.208169   -0.126188
      4          1           0       -3.573907   -1.184162    1.122312
      5          6           0       -2.329997   -0.068773   -0.227688
      6          8           0       -2.740887    1.070931   -0.415988
      7          7           0       -1.004300   -0.410585   -0.293888
      8          1           0       -0.729708   -1.313787    0.081612
      9          6           0        0.081809    0.561006   -0.233388
     10          1           0        0.158913    1.076605   -1.199488
     11          6           0       -0.079582    1.613107    0.884912
     12          1           0       -0.110186    1.118407    1.861512
     13          1           0        0.766624    2.309400    0.876612
     14          1           0       -1.004577    2.170215    0.734612
     15          6           0        1.360402   -0.248706    0.043112
     16          8           0        1.325492   -1.294205    0.687812
     17          7           0        2.502706    0.282684   -0.466988
     18          1           0        2.437514    1.142085   -0.994088
     19          6           0        3.816901   -0.291627   -0.230788
     20          1           0        3.671593   -1.227026    0.310712
     21          1           0        4.326099   -0.498832   -1.178288
     22          1           0        4.443607    0.377667    0.370612
 ---------------------------------------------------------------------

 SCF Done:  E(RHF) =  -492.924757612     A.U. after   14 cycles
 E2 =    -0.1601476762D+01 EUMP2 =    -0.49452623437364D+03

 The electronic state is 1-A.
 Alpha  occ. eigenvalues --  -20.54449 -20.52687 -15.60947 -15.58854 -11.37265
 Alpha  occ. eigenvalues --  -11.35878 -11.29684 -11.27813 -11.24177 -11.23218
 Alpha  occ. eigenvalues --   -1.39979  -1.37888  -1.24684  -1.23361  -1.05539
 Alpha  occ. eigenvalues --   -0.98950  -0.96374  -0.88537  -0.80575  -0.77498
 Alpha  occ. eigenvalues --   -0.73088  -0.67687  -0.66261  -0.64066  -0.63514
 Alpha  occ. eigenvalues --   -0.61892  -0.60348  -0.58439  -0.56474  -0.56246
 Alpha  occ. eigenvalues --   -0.55748  -0.54766  -0.52400  -0.52191  -0.49591
 Alpha  occ. eigenvalues --   -0.43779  -0.41985  -0.40740  -0.39108
 Alpha virt. eigenvalues --    0.02729   0.04065   0.04275   0.04414   0.05754
 Alpha virt. eigenvalues --    0.05985   0.06524   0.06840   0.07696   0.07981
 Alpha virt. eigenvalues --    0.08995   0.09388   0.11215   0.12095   0.12732

 Mulliken atomic charges:
              1
     1  H    0.003449
     2  C    0.321032
     3  H   -0.110294
     4  H    0.058006
     5  C    0.559260
     6  O   -0.859440
     7  N   -0.280820
     8  H   -0.009657
     9  C   -0.343681
    10  H   -0.254829
    11  C    0.720526
    12  H   -0.000025
    13  H   -0.084652
    14  H    0.005917
    15  C    1.383813
    16  O   -0.898093
    17  N   -0.499551
    18  H   -0.110421
    19  C    0.723697
    20  H   -0.138264
    21  H   -0.097469
    22  H   -0.088502
 Sum of Mulliken atomic charges =   0.00000

 Dipole moment (field-independent basis, Debye):
    X=              3.2370    Y=              0.0368    Z=             -0.7557  Tot=              3.3242
 Quadrupole moment (field-independent basis, Debye-Ang):
   XX=            -57.1988   YY=            -63.7263   ZZ=            -61.9033
   XY=             14.0312   XZ=             -6.6224   YZ=              1.6128

 Normal termination of Gaussian 09 at Sun Feb 12 23:48:14 2017.
