 Gaussian 09, Revision A.02,
 Gaussian 09:  EM64L-G09RevA.02 11-Jun-2009

 -------------------
 #SP MP2/aug-cc-pVDZ
 -------------------

 -------------------------------
 Single Point calculation at MP2
 -------------------------------
 Symbolic Z-matrix:
 Charge =  0 Multiplicity = 1

                         Standard orientation:
 ---------------------------------------------------------------------
 Center     Atomic      Atomic             Coordinates (Angstroms)
 Number     Number       Type             X           Y           Z
 ---------------------------------------------------------------------
      1          1           0       -4.105290   -1.241138   -0.328997
      2          6           0       -3.251290   -1.214729    0.353803
      3          1           0       -2.755980   -2.190524    0.348703
      4          1           0       -3.642992   -1.023533    1.358603
      5          6           0       -2.342702   -0.057620   -0.046097
      6          8           0       -2.790213    1.073676   -0.213997
      7          7           0       -1.032099   -0.396607   -0.207097
      8          1           0       -0.732189   -1.354004   -0.055597
      9          6           0        0.081192    0.509405   -0.450997
     10          1           0        0.102989    0.793305   -1.515397
     11          6           0        0.013679    1.794604    0.394703
     12          1           0        0.144582    1.569605    1.458403
     13          1           0        0.784772    2.511812    0.088803
     14          1           0       -0.959326    2.264294    0.251703
     15          6           0        1.355101   -0.327682   -0.169197
     16          8           0        1.302413   -1.553983   -0.091197
     17          7           0        2.508494    0.372529   -0.021097
     18          1           0        2.475083    1.378929   -0.079297
     19          6           0        3.794500   -0.266758    0.204803
     20          1           0        3.622511   -1.341859    0.260603
     21          1           0        4.489898   -0.055451   -0.615797
     22          1           0        4.240697    0.076247    1.145103
 ---------------------------------------------------------------------

 SCF Done:  E(RHF) =  -492.921712120     A.U. after   14 cycles
 E2 =    -0.1601900216D+01 EUMP2 =    -0.49452361233637D+03

 The electronic state is 1-A.
 Alpha  occ. eigenvalues --  -20.54546 -20.52164 -15.60855 -15.58781 -11.37465
 Alpha  occ. eigenvalues --  -11.35791 -11.30127 -11.27801 -11.23986 -11.23613
 Alpha  occ. eigenvalues --   -1.40126  -1.37476  -1.24727  -1.23369  -1.05715
 Alpha  occ. eigenvalues --   -0.98821  -0.96099  -0.89414  -0.80927  -0.77131
 Alpha  occ. eigenvalues --   -0.73180  -0.67853  -0.66350  -0.65514  -0.62889
 Alpha  occ. eigenvalues --   -0.61763  -0.59660  -0.58582  -0.56590  -0.56209
 Alpha  occ. eigenvalues --   -0.55447  -0.54798  -0.53107  -0.52369  -0.49622
 Alpha  occ. eigenvalues --   -0.43881  -0.41410  -0.40858  -0.38697
 Alpha virt. eigenvalues --    0.02710   0.04036   0.04218   0.04446   0.05850
 Alpha virt. eigenvalues --    0.06039   0.06462   0.06550   0.07560   0.07927
 Alpha virt. eigenvalues --    0.09540   0.10387   0.11048   0.11905   0.13383

 Mulliken atomic charges:
              1
     1  H    0.035023
     2  C    0.383971
     3  H   -0.173782
     4  H    0.048007
     5  C    0.529176
     6  O   -0.874937
     7  N   -0.270999
     8  H   -0.042010
     9  C   -0.046903
    10  H   -0.054185
    11  C    0.702687
    12  H   -0.031513
    13  H   -0.076430
    14  H   -0.056148
    15  C    1.090218
    16  O   -0.890311
    17  N   -0.516661
    18  H   -0.115814
    19  C    0.714940
    20  H   -0.154548
    21  H   -0.101109
    22  H   -0.098673
 Sum of Mulliken atomic charges =   0.00000

 Dipole moment (field-independent basis, Debye):
    X=              3.5077    Y=              0.4748    Z=              0.5420  Tot=              3.5810
 Quadrupole moment (field-independent basis, Debye-Ang):
   XX=            -58.5335   YY=            -64.7479   ZZ=            -60.8007
   XY=             14.9624   XZ=             -1.8764   YZ=             -0.3886

 Normal termination of Gaussian 09 at Mon Feb 13 00:22:31 2017.
