 Gaussian 09, Revision A.02,
 Gaussian 09:  EM64L-G09RevA.02 11-Jun-2009

 -------------------
 #SP MP2/aug-cc-pVDZ
 -------------------

 -------------------------------
 Single Point calculation at MP2
 -------------------------------
 Symbolic Z-matrix:
 Charge =  0 Multiplicity = 1

                         Standard orientation:
 ---------------------------------------------------------------------
 Center     Atomic      Atomic             Coordinates (Angstroms)
 Number     Number       Type             X           Y           Z
 ---------------------------------------------------------------------
      1          1           0       -3.836804   -1.739514    0.179299
      2          6           0       -2.927904   -1.445412    0.708399
      3          1           0       -2.319803   -2.333711    0.908799
      4          1           0       -3.226005   -1.007313    1.668399
      5          6           0       -2.201106   -0.392511   -0.119401
      6          8           0       -2.800007    0.423788   -0.804501
      7          7           0       -0.825206   -0.459809   -0.058601
      8          1           0       -0.460805   -1.046308    0.682599
      9          6           0        0.053993    0.668592   -0.439001
     10          1           0        0.098993    0.701092   -1.535401
     11          6           0       -0.405110    2.030092    0.087999
     12          1           0       -0.400510    2.032192    1.181099
     13          1           0        0.291189    2.804993   -0.248501
     14          1           0       -1.404510    2.258590   -0.281401
     15          6           0        1.452893    0.332695    0.126799
     16          8           0        1.900092    0.856795    1.137899
     17          7           0        2.117295   -0.629704   -0.579601
     18          1           0        1.671995   -1.008205   -1.404001
     19          6           0        3.432295   -1.121002   -0.206401
     20          1           0        3.733695   -0.589202    0.697099
     21          1           0        3.410897   -2.197702   -0.000401
     22          1           0        4.165995   -0.927701   -0.997701
 ---------------------------------------------------------------------

 SCF Done:  E(RHF) =  -492.916811791     A.U. after   14 cycles
 E2 =    -0.1602347601D+01 EUMP2 =    -0.49451915939218D+03

 The electronic state is 1-A.
 Alpha  occ. eigenvalues --  -20.54174 -20.53690 -15.60505 -15.60379 -11.36901
 Alpha  occ. eigenvalues --  -11.36804 -11.29709 -11.27606 -11.25142 -11.21730
 Alpha  occ. eigenvalues --   -1.39639  -1.38881  -1.24983  -1.23279  -1.05403
 Alpha  occ. eigenvalues --   -0.99258  -0.96676  -0.87652  -0.79708  -0.78460
 Alpha  occ. eigenvalues --   -0.73214  -0.67255  -0.66928  -0.65117  -0.62647
 Alpha  occ. eigenvalues --   -0.62253  -0.60733  -0.59018  -0.57086  -0.55762
 Alpha  occ. eigenvalues --   -0.55392  -0.53870  -0.52586  -0.51469  -0.49785
 Alpha  occ. eigenvalues --   -0.43955  -0.42241  -0.41163  -0.39401
 Alpha virt. eigenvalues --    0.02475   0.03606   0.04283   0.04671   0.05530
 Alpha virt. eigenvalues --    0.05936   0.06374   0.06971   0.07392   0.08217
 Alpha virt. eigenvalues --    0.08678   0.09103   0.10915   0.11802   0.12911

 Mulliken atomic charges:
              1
     1  H   -0.005524
     2  C    0.321851
     3  H   -0.099694
     4  H    0.057331
     5  C    0.536086
     6  O   -0.836926
     7  N   -0.380370
     8  H    0.002284
     9  C   -0.014214
    10  H   -0.239707
    11  C    0.609354
    12  H    0.008730
    13  H   -0.064365
    14  H    0.019679
    15  C    1.085729
    16  O   -0.815853
    17  N   -0.470984
    18  H   -0.102337
    19  C    0.734642
    20  H   -0.148099
    21  H   -0.099655
    22  H   -0.097955
 Sum of Mulliken atomic charges =   0.00000

 Dipole moment (field-independent basis, Debye):
    X=              1.6595    Y=             -4.0113    Z=             -0.6275  Tot=              4.3862
 Quadrupole moment (field-independent basis, Debye-Ang):
   XX=            -66.3027   YY=            -59.0149   ZZ=            -62.8602
   XY=              0.2579   XZ=            -12.6571   YZ=             -2.0540

 Normal termination of Gaussian 09 at Mon Feb 13 00:07:01 2017.
