 Gaussian 09, Revision A.02,
 Gaussian 09:  EM64L-G09RevA.02 11-Jun-2009

 -------------------
 #SP MP2/aug-cc-pVDZ
 -------------------

 -------------------------------
 Single Point calculation at MP2
 -------------------------------
 Symbolic Z-matrix:
 Charge =  0 Multiplicity = 1

                         Standard orientation:
 ---------------------------------------------------------------------
 Center     Atomic      Atomic             Coordinates (Angstroms)
 Number     Number       Type             X           Y           Z
 ---------------------------------------------------------------------
      1          1           0        3.606378   -1.698331   -0.693801
      2          6           0        2.990479   -1.532327    0.193799
      3          1           0        3.668780   -1.426831    1.047599
      4          1           0        2.353474   -2.407522    0.357799
      5          6           0        2.220488   -0.227921    0.010599
      6          8           0        2.769495    0.781375   -0.408301
      7          7           0        0.893088   -0.297712    0.359899
      8          1           0        0.600882   -1.136710    0.842799
      9          6           0       -0.062805    0.819894    0.405699
     10          1           0        0.059199    1.376793    1.342299
     11          6           0        0.059702    1.797593   -0.773601
     12          1           0       -0.017702    1.279494   -1.735601
     13          1           0       -0.753793    2.528199   -0.709201
     14          1           0        1.018205    2.313187   -0.747201
     15          6           0       -1.488409    0.233504    0.473999
     16          8           0       -2.249407    0.502309    1.394799
     17          7           0       -1.831614   -0.556994   -0.585101
     18          1           0       -1.130015   -0.738299   -1.289301
     19          6           0       -3.143318   -1.163585   -0.724501
     20          1           0       -3.730816   -0.871181    0.146899
     21          1           0       -3.647716   -0.810882   -1.631801
     22          1           0       -3.074725   -2.257386   -0.762001
 ---------------------------------------------------------------------

 SCF Done:  E(RHF) =  -492.916300612     A.U. after   14 cycles
 E2 =    -0.1601833696D+01 EUMP2 =    -0.49451813430856D+03

 The electronic state is 1-A.
 Alpha  occ. eigenvalues --  -20.53886 -20.53653 -15.60814 -15.60148 -11.37216
 Alpha  occ. eigenvalues --  -11.36584 -11.29760 -11.27437 -11.25390 -11.23322
 Alpha  occ. eigenvalues --   -1.39370  -1.38874  -1.25343  -1.23168  -1.06053
 Alpha  occ. eigenvalues --   -0.99646  -0.96095  -0.89011  -0.79876  -0.78339
 Alpha  occ. eigenvalues --   -0.73219  -0.68722  -0.67378  -0.64178  -0.62872
 Alpha  occ. eigenvalues --   -0.62217  -0.59750  -0.59386  -0.57145  -0.56426
 Alpha  occ. eigenvalues --   -0.55364  -0.54534  -0.53489  -0.51947  -0.50707
 Alpha  occ. eigenvalues --   -0.44086  -0.41786  -0.40797  -0.39367
 Alpha virt. eigenvalues --    0.02417   0.03691   0.04401   0.04528   0.05545
 Alpha virt. eigenvalues --    0.06092   0.06137   0.06869   0.07048   0.07968
 Alpha virt. eigenvalues --    0.08410   0.09044   0.11095   0.11884   0.12865

 Mulliken atomic charges:
              1
     1  H    0.023416
     2  C    0.378570
     3  H    0.054305
     4  H   -0.151407
     5  C    0.656462
     6  O   -0.838567
     7  N   -0.328532
     8  H   -0.079283
     9  C    0.279696
    10  H   -0.253958
    11  C    0.744188
    12  H   -0.082031
    13  H   -0.059292
    14  H    0.000588
    15  C    0.728251
    16  O   -0.814423
    17  N   -0.581739
    18  H   -0.052278
    19  C    0.718710
    20  H   -0.150778
    21  H   -0.092583
    22  H   -0.099314
 Sum of Mulliken atomic charges =   0.00000

 Dipole moment (field-independent basis, Debye):
    X=             -0.2454    Y=             -4.0069    Z=             -1.7878  Tot=              4.3945
 Quadrupole moment (field-independent basis, Debye-Ang):
   XX=            -70.7458   YY=            -58.0732   ZZ=            -63.3809
   XY=             -3.9595   XZ=             11.3851   YZ=             -0.5446

 Normal termination of Gaussian 09 at Mon Feb 13 00:08:32 2017.
