 Gaussian 09, Revision A.02,
 Gaussian 09:  EM64L-G09RevA.02 11-Jun-2009

 -------------------
 #SP MP2/aug-cc-pVDZ
 -------------------

 -------------------------------
 Single Point calculation at MP2
 -------------------------------
 Symbolic Z-matrix:
 Charge =  0 Multiplicity = 1

                         Standard orientation:
 ---------------------------------------------------------------------
 Center     Atomic      Atomic             Coordinates (Angstroms)
 Number     Number       Type             X           Y           Z
 ---------------------------------------------------------------------
      1          1           0        3.571473   -1.605341   -0.982192
      2          6           0        2.999273   -1.544036   -0.052692
      3          1           0        3.718473   -1.534142    0.773508
      4          1           0        2.369066   -2.434331    0.039508
      5          6           0        2.224884   -0.229530   -0.047392
      6          8           0        2.765893    0.828266   -0.339492
      7          7           0        0.904183   -0.351219    0.308108
      8          1           0        0.622576   -1.245217    0.687908
      9          6           0       -0.055708    0.744389    0.520108
     10          1           0        0.066095    1.151988    1.531008
     11          6           0        0.071301    1.888988   -0.494992
     12          1           0        0.045298    1.526188   -1.528792
     13          1           0       -0.760493    2.587195   -0.351792
     14          1           0        1.016106    2.413580   -0.363192
     15          6           0       -1.465313    0.110100    0.522908
     16          8           0       -2.084915   -0.054695    1.567408
     17          7           0       -1.942916   -0.255096   -0.700992
     18          1           0       -1.350515   -0.117501   -1.506892
     19          6           0       -3.235321   -0.891385   -0.884092
     20          1           0       -3.721722   -0.927081    0.091508
     21          1           0       -3.859817   -0.317680   -1.578292
     22          1           0       -3.127930   -1.913186   -1.268492
 ---------------------------------------------------------------------

 SCF Done:  E(RHF) =  -492.915460113     A.U. after   14 cycles
 E2 =    -0.1601733824D+01 EUMP2 =    -0.49451719393686D+03

 The electronic state is 1-A.
 Alpha  occ. eigenvalues --  -20.53957 -20.53465 -15.60658 -15.60176 -11.37049
 Alpha  occ. eigenvalues --  -11.36619 -11.29817 -11.27419 -11.25194 -11.23506
 Alpha  occ. eigenvalues --   -1.39352  -1.38750  -1.25061  -1.23329  -1.06016
 Alpha  occ. eigenvalues --   -0.99532  -0.95996  -0.89290  -0.79846  -0.78236
 Alpha  occ. eigenvalues --   -0.73060  -0.68728  -0.67181  -0.64594  -0.62644
 Alpha  occ. eigenvalues --   -0.62144  -0.59623  -0.59122  -0.57033  -0.56260
 Alpha  occ. eigenvalues --   -0.55547  -0.54440  -0.53687  -0.52091  -0.50717
 Alpha  occ. eigenvalues --   -0.43975  -0.41917  -0.40621  -0.39251
 Alpha virt. eigenvalues --    0.02587   0.03656   0.04432   0.04602   0.05555
 Alpha virt. eigenvalues --    0.06040   0.06190   0.06881   0.07060   0.07849
 Alpha virt. eigenvalues --    0.08625   0.09419   0.11165   0.12034   0.12735

 Mulliken atomic charges:
              1
     1  H    0.025886
     2  C    0.390196
     3  H    0.053471
     4  H   -0.149195
     5  C    0.632748
     6  O   -0.844334
     7  N   -0.406857
     8  H   -0.080332
     9  C    0.397080
    10  H   -0.209493
    11  C    0.701040
    12  H   -0.055958
    13  H   -0.070133
    14  H    0.001057
    15  C    0.751486
    16  O   -0.845372
    17  N   -0.601792
    18  H   -0.065358
    19  C    0.721929
    20  H   -0.151598
    21  H   -0.100971
    22  H   -0.093499
 Sum of Mulliken atomic charges =   0.00000

 Dipole moment (field-independent basis, Debye):
    X=             -0.7138    Y=             -2.7685    Z=             -2.5484  Tot=              3.8299
 Quadrupole moment (field-independent basis, Debye-Ang):
   XX=            -68.7282   YY=            -58.1653   ZZ=            -64.0275
   XY=             -7.5162   XZ=             11.1683   YZ=              1.1261

 Normal termination of Gaussian 09 at Mon Feb 13 00:05:28 2017.
