 Gaussian 09, Revision A.02,
 Gaussian 09:  EM64L-G09RevA.02 11-Jun-2009

 -------------------
 #SP MP2/aug-cc-pVDZ
 -------------------

 -------------------------------
 Single Point calculation at MP2
 -------------------------------
 Symbolic Z-matrix:
 Charge =  0 Multiplicity = 1

                         Standard orientation:
 ---------------------------------------------------------------------
 Center     Atomic      Atomic             Coordinates (Angstroms)
 Number     Number       Type             X           Y           Z
 ---------------------------------------------------------------------
      1          1           0       -3.915224   -1.654380    0.076805
      2          6           0       -2.999622   -1.413485    0.620805
      3          1           0       -2.428527   -2.330689    0.798205
      4          1           0       -3.286520   -0.992684    1.592105
      5          6           0       -2.222616   -0.368390   -0.169595
      6          8           0       -2.778911    0.477613   -0.855195
      7          7           0       -0.850617   -0.477798   -0.077495
      8          1           0       -0.525820   -1.063200    0.683805
      9          6           0        0.058690    0.642197   -0.400795
     10          1           0        0.118190    0.716997   -1.493795
     11          6           0       -0.373303    1.994500    0.176205
     12          1           0       -0.364903    1.951400    1.268405
     13          1           0        0.335602    2.769696   -0.135595
     14          1           0       -1.368501    2.257905   -0.181595
     15          6           0        1.430487    0.248989    0.187005
     16          8           0        1.727889    0.490588    1.350905
     17          7           0        2.234683   -0.447615   -0.666095
     18          1           0        1.905082   -0.612513   -1.606495
     19          6           0        3.543080   -0.951223   -0.285895
     20          1           0        3.712082   -0.665824    0.753205
     21          1           0        3.586374   -2.043523   -0.370895
     22          1           0        4.331583   -0.516427   -0.911095
 ---------------------------------------------------------------------

 SCF Done:  E(RHF) =  -492.917831307     A.U. after   14 cycles
 E2 =    -0.1602351724D+01 EUMP2 =    -0.49452018303067D+03

 The electronic state is 1-A.
 Alpha  occ. eigenvalues --  -20.54099 -20.53597 -15.60677 -15.60116 -11.36906
 Alpha  occ. eigenvalues --  -11.36636 -11.29647 -11.27613 -11.24955 -11.21924
 Alpha  occ. eigenvalues --   -1.39603  -1.38747  -1.24729  -1.23438  -1.05363
 Alpha  occ. eigenvalues --   -0.99201  -0.96632  -0.87750  -0.79826  -0.78238
 Alpha  occ. eigenvalues --   -0.73157  -0.67269  -0.66772  -0.64786  -0.62752
 Alpha  occ. eigenvalues --   -0.62165  -0.60687  -0.58793  -0.56930  -0.55995
 Alpha  occ. eigenvalues --   -0.55434  -0.54134  -0.52453  -0.51400  -0.49764
 Alpha  occ. eigenvalues --   -0.43797  -0.42264  -0.41007  -0.39476
 Alpha virt. eigenvalues --    0.02624   0.03647   0.04342   0.04668   0.05560
 Alpha virt. eigenvalues --    0.05999   0.06213   0.06921   0.07637   0.08139
 Alpha virt. eigenvalues --    0.08869   0.09226   0.10930   0.11896   0.12790

 Mulliken atomic charges:
              1
     1  H   -0.011116
     2  C    0.324491
     3  H   -0.085039
     4  H    0.059279
     5  C    0.588663
     6  O   -0.840802
     7  N   -0.354604
     8  H    0.005076
     9  C   -0.035445
    10  H   -0.281617
    11  C    0.610046
    12  H    0.019658
    13  H   -0.054960
    14  H    0.013811
    15  C    1.065175
    16  O   -0.828676
    17  N   -0.466021
    18  H   -0.105456
    19  C    0.720755
    20  H   -0.148600
    21  H   -0.100924
    22  H   -0.093695
 Sum of Mulliken atomic charges =   0.00000

 Dipole moment (field-independent basis, Debye):
    X=              2.0521    Y=             -3.1727    Z=             -1.0815  Tot=              3.9302
 Quadrupole moment (field-independent basis, Debye-Ang):
   XX=            -63.4543   YY=            -58.8553   ZZ=            -63.9406
   XY=              2.4981   XZ=            -13.6938   YZ=             -1.3414

 Normal termination of Gaussian 09 at Mon Feb 13 00:26:37 2017.
