 Gaussian 09, Revision A.02,
 Gaussian 09:  EM64L-G09RevA.02 11-Jun-2009

 ----------------------------------------------------------------------
 # b3lyp/6-31G* Opt=(ModRedundant, maxcycles=1000, calcfc) geom=nocrowd
 ----------------------------------------------------------------------

 ------------------
 Phi Psi fixed scan
 ------------------
 Symbolic Z-matrix:
 Charge =  0 Multiplicity = 1

 SCF Done:  E(RB3LYP) =  -495.825961109     A.U. after   15 cycles

  Exact polarizability:   0.000   0.000   0.000   0.000   0.000   0.000
 Approx polarizability: 117.982   4.928 114.333  15.380  -5.705 103.996

 SCF Done:  E(RB3LYP) =  -495.831119476     A.U. after   12 cycles
 SCF Done:  E(RB3LYP) =  -495.838096734     A.U. after   12 cycles
 SCF Done:  E(RB3LYP) =  -495.840530134     A.U. after   12 cycles
 SCF Done:  E(RB3LYP) =  -495.841074039     A.U. after   13 cycles
 SCF Done:  E(RB3LYP) =  -495.836494605     A.U. after   14 cycles
 SCF Done:  E(RB3LYP) =  -495.839864726     A.U. after   12 cycles
 SCF Done:  E(RB3LYP) =  -495.841181955     A.U. after   12 cycles
 SCF Done:  E(RB3LYP) =  -495.841818892     A.U. after   12 cycles
 SCF Done:  E(RB3LYP) =  -495.842563370     A.U. after   12 cycles
 SCF Done:  E(RB3LYP) =  -495.842696208     A.U. after   12 cycles
 SCF Done:  E(RB3LYP) =  -495.843044586     A.U. after   11 cycles
 SCF Done:  E(RB3LYP) =  -495.843083367     A.U. after   12 cycles
 SCF Done:  E(RB3LYP) =  -495.843099133     A.U. after   12 cycles
 SCF Done:  E(RB3LYP) =  -495.843124018     A.U. after   11 cycles
 SCF Done:  E(RB3LYP) =  -495.843130170     A.U. after   10 cycles
 SCF Done:  E(RB3LYP) =  -495.843130993     A.U. after   10 cycles
 SCF Done:  E(RB3LYP) =  -495.843131304     A.U. after    7 cycles
 SCF Done:  E(RB3LYP) =  -495.843131380     A.U. after    7 cycles
 SCF Done:  E(RB3LYP) =  -495.843131423     A.U. after    6 cycles
 Optimization completed.
    -- Stationary point found.

                         Standard orientation:
 ---------------------------------------------------------------------
 Center     Atomic      Atomic             Coordinates (Angstroms)
 Number     Number       Type             X           Y           Z
 ---------------------------------------------------------------------
      1          1           0       -3.546103   -1.305548    0.940520
      2          6           0       -3.052958   -1.017976    0.010248
      3          1           0       -3.744919   -0.437510   -0.609160
      4          1           0       -2.784727   -1.931542   -0.534181
      5          6           0       -1.781498   -0.255937    0.337987
      6          8           0       -1.167106   -0.408490    1.384879
      7          7           0       -1.371213    0.648641   -0.621898
      8          1           0       -1.777297    0.503740   -1.537675
      9          6           0        0.029684    1.079890   -0.638179
     10          1           0        0.222935    1.441196   -1.655534
     11          6           0        0.258033    2.241467    0.339619
     12          1           0        0.117376    1.907319    1.371127
     13          1           0        1.259249    2.673230    0.223473
     14          1           0       -0.466770    3.035517    0.137548
     15          6           0        0.960614   -0.152421   -0.465487
     16          8           0        0.674882   -1.217190   -0.998360
     17          7           0        2.156315    0.068189    0.153146
     18          1           0        2.232058    0.869701    0.761780
     19          6           0        3.081436   -1.031995    0.382464
     20          1           0        3.067121   -1.682333   -0.493246
     21          1           0        4.089799   -0.633577    0.525674
     22          1           0        2.801484   -1.630727    1.258881
 ---------------------------------------------------------------------

 The electronic state is 1-A.
 Alpha  occ. eigenvalues --  -19.10855 -19.10371 -14.35700 -14.35336 -10.28243
 Alpha  occ. eigenvalues --  -10.27927 -10.23773 -10.21299 -10.18607 -10.18581
 Alpha  occ. eigenvalues --   -1.03301  -1.01923  -0.91631  -0.91467  -0.77701
 Alpha  occ. eigenvalues --   -0.72571  -0.69935  -0.64586  -0.58509  -0.56510
 Alpha  occ. eigenvalues --   -0.52349  -0.50116  -0.45644  -0.45599  -0.43993
 Alpha  occ. eigenvalues --   -0.43515  -0.42216  -0.41409  -0.39674  -0.39104
 Alpha  occ. eigenvalues --   -0.38691  -0.38215  -0.37384  -0.35378  -0.33831
 Alpha  occ. eigenvalues --   -0.26190  -0.25124  -0.24487  -0.23875
 Alpha virt. eigenvalues --    0.02101   0.03660   0.07255   0.08863   0.11889
 Alpha virt. eigenvalues --    0.12998   0.14538   0.15327   0.15891   0.16458
 Alpha virt. eigenvalues --    0.17015   0.17819   0.18461   0.19171   0.19584

 Mulliken atomic charges:
              1
     1  H    0.184268
     2  C   -0.550626
     3  H    0.153466
     4  H    0.192576
     5  C    0.605401
     6  O   -0.507484
     7  N   -0.566899
     8  H    0.326255
     9  C   -0.055807
    10  H    0.162691
    11  C   -0.471637
    12  H    0.188633
    13  H    0.138181
    14  H    0.161162
    15  C    0.633513
    16  O   -0.535047
    17  N   -0.599065
    18  H    0.333391
    19  C   -0.303616
    20  H    0.192566
    21  H    0.148591
    22  H    0.169486
 Sum of Mulliken atomic charges =   0.00000

 Dipole moment (field-independent basis, Debye):
    X=              0.5569    Y=              2.5306    Z=             -1.2062  Tot=              2.8581
 Quadrupole moment (field-independent basis, Debye-Ang):
   XX=            -48.4641   YY=            -60.1879   ZZ=            -61.6636
   XY=              2.2495   XZ=              7.1411   YZ=             -1.6135

 Normal termination of Gaussian 09 at Sat Feb 11 02:06:32 2017.
