 Gaussian 09, Revision A.02,
 Gaussian 09:  EM64L-G09RevA.02 11-Jun-2009

 ----------------------------------------------------------------------
 # b3lyp/6-31G* Opt=(ModRedundant, maxcycles=1000, calcfc) geom=nocrowd
 ----------------------------------------------------------------------

 ------------------
 Phi Psi fixed scan
 ------------------
 Symbolic Z-matrix:
 Charge =  0 Multiplicity = 1

 SCF Done:  E(RB3LYP) =  -495.780975669     A.U. after   17 cycles

  Exact polarizability:   0.000   0.000   0.000   0.000   0.000   0.000
 Approx polarizability: 122.663   8.549 114.206  -0.756 -22.163 105.391

 SCF Done:  E(RB3LYP) =  -495.800137922     A.U. after   14 cycles
 SCF Done:  E(RB3LYP) =  -495.810341743     A.U. after   16 cycles
 SCF Done:  E(RB3LYP) =  -495.821805632     A.U. after   13 cycles
 SCF Done:  E(RB3LYP) =  -495.823357476     A.U. after   12 cycles
 SCF Done:  E(RB3LYP) =  -495.803272408     A.U. after   14 cycles
 SCF Done:  E(RB3LYP) =  -495.824057455     A.U. after   14 cycles
 SCF Done:  E(RB3LYP) =  -495.824783127     A.U. after   12 cycles
 SCF Done:  E(RB3LYP) =  -495.825693794     A.U. after   12 cycles
 SCF Done:  E(RB3LYP) =  -495.826449294     A.U. after   13 cycles
 SCF Done:  E(RB3LYP) =  -495.833198672     A.U. after   10 cycles
 SCF Done:  E(RB3LYP) =  -495.833204634     A.U. after   10 cycles
 SCF Done:  E(RB3LYP) =  -495.833207499     A.U. after   10 cycles
 SCF Done:  E(RB3LYP) =  -495.833210795     A.U. after   10 cycles
 SCF Done:  E(RB3LYP) =  -495.833212269     A.U. after    9 cycles
 SCF Done:  E(RB3LYP) =  -495.833213202     A.U. after    9 cycles
 SCF Done:  E(RB3LYP) =  -495.833213677     A.U. after    8 cycles
 SCF Done:  E(RB3LYP) =  -495.833213783     A.U. after    7 cycles
 SCF Done:  E(RB3LYP) =  -495.833213775     A.U. after    7 cycles
 SCF Done:  E(RB3LYP) =  -495.833213753     A.U. after    7 cycles
 Optimization completed.
    -- Stationary point found.

                         Standard orientation:
 ---------------------------------------------------------------------
 Center     Atomic      Atomic             Coordinates (Angstroms)
 Number     Number       Type             X           Y           Z
 ---------------------------------------------------------------------
      1          1           0       -3.673090   -1.496805    0.185769
      2          6           0       -2.889877   -1.228463   -0.524757
      3          1           0       -3.346033   -0.873973   -1.456546
      4          1           0       -2.299659   -2.124774   -0.751279
      5          6           0       -1.980538   -0.187888    0.110776
      6          8           0       -1.951242    0.013078    1.310127
      7          7           0       -1.253617    0.583473   -0.809478
      8          1           0       -1.356743    0.217088   -1.750625
      9          6           0        0.138053    0.981296   -0.566200
     10          1           0        0.532648    1.297426   -1.538837
     11          6           0        0.203665    2.175645    0.406838
     12          1           0       -0.221220    1.883403    1.369226
     13          1           0        1.237411    2.508732    0.556018
     14          1           0       -0.379741    3.010204    0.006248
     15          6           0        1.026366   -0.173067   -0.032750
     16          8           0        0.599176   -1.138237    0.580568
     17          7           0        2.341837   -0.055647   -0.406114
     18          1           0        2.643507    0.810649   -0.830745
     19          6           0        3.368235   -0.956141    0.094097
     20          1           0        2.869688   -1.865462    0.432018
     21          1           0        4.075362   -1.203754   -0.704155
     22          1           0        3.921440   -0.524539    0.938475
 ---------------------------------------------------------------------

 The electronic state is 1-A.
 Alpha  occ. eigenvalues --  -19.11425 -19.10145 -14.36598 -14.34970 -10.28651
 Alpha  occ. eigenvalues --  -10.27864 -10.24154 -10.22051 -10.18248 -10.18028
 Alpha  occ. eigenvalues --   -1.03652  -1.01761  -0.92300  -0.91372  -0.77619
 Alpha  occ. eigenvalues --   -0.72308  -0.70624  -0.63928  -0.58935  -0.56312
 Alpha  occ. eigenvalues --   -0.52092  -0.49483  -0.46395  -0.45462  -0.44833
 Alpha  occ. eigenvalues --   -0.43685  -0.42099  -0.40904  -0.40324  -0.39245
 Alpha  occ. eigenvalues --   -0.38693  -0.37581  -0.37132  -0.35378  -0.33796
 Alpha  occ. eigenvalues --   -0.27375  -0.25528  -0.24308  -0.22761
 Alpha virt. eigenvalues --    0.01644   0.03799   0.05680   0.08160   0.11802
 Alpha virt. eigenvalues --    0.13063   0.14518   0.15402   0.15792   0.16124
 Alpha virt. eigenvalues --    0.17232   0.17498   0.18479   0.18784   0.19598

 Mulliken atomic charges:
              1
     1  H    0.184956
     2  C   -0.553004
     3  H    0.151796
     4  H    0.185038
     5  C    0.604899
     6  O   -0.477335
     7  N   -0.575993
     8  H    0.313116
     9  C   -0.073079
    10  H    0.136345
    11  C   -0.440663
    12  H    0.206644
    13  H    0.128647
    14  H    0.158084
    15  C    0.606411
    16  O   -0.497104
    17  N   -0.591598
    18  H    0.323261
    19  C   -0.310098
    20  H    0.204621
    21  H    0.154855
    22  H    0.160201
 Sum of Mulliken atomic charges =   0.00000

 Dipole moment (field-independent basis, Debye):
    X=              3.0415    Y=              1.3061    Z=             -4.4225  Tot=              5.5240
 Quadrupole moment (field-independent basis, Debye-Ang):
   XX=            -50.9519   YY=            -59.6398   ZZ=            -61.0891
   XY=              4.0768   XZ=              4.3868   YZ=              0.8770

 Normal termination of Gaussian 09 at Sat Feb 11 02:07:49 2017.
