 Gaussian 09, Revision A.02,
 Gaussian 09:  EM64L-G09RevA.02 11-Jun-2009

 ----------------------------------------------------------------------
 # b3lyp/6-31G* Opt=(ModRedundant, maxcycles=1000, calcfc) geom=nocrowd
 ----------------------------------------------------------------------

 ------------------
 Phi Psi fixed scan
 ------------------
 Symbolic Z-matrix:
 Charge =  0 Multiplicity = 1

 SCF Done:  E(RB3LYP) =  -495.835466289     A.U. after   15 cycles

  Exact polarizability:   0.000   0.000   0.000   0.000   0.000   0.000
 Approx polarizability: 105.365   5.609 110.902  14.975   2.832 119.754

 SCF Done:  E(RB3LYP) =  -495.838908827     A.U. after   12 cycles
 SCF Done:  E(RB3LYP) =  -495.842701784     A.U. after   12 cycles
 SCF Done:  E(RB3LYP) =  -495.843585706     A.U. after   12 cycles
 SCF Done:  E(RB3LYP) =  -495.834361256     A.U. after   16 cycles
 SCF Done:  E(RB3LYP) =  -495.839172179     A.U. after   16 cycles
 SCF Done:  E(RB3LYP) =  -495.841112764     A.U. after   13 cycles
 SCF Done:  E(RB3LYP) =  -495.841496081     A.U. after   12 cycles
 SCF Done:  E(RB3LYP) =  -495.841738878     A.U. after   12 cycles
 SCF Done:  E(RB3LYP) =  -495.842414809     A.U. after   12 cycles
 SCF Done:  E(RB3LYP) =  -495.842604865     A.U. after   14 cycles
 SCF Done:  E(RB3LYP) =  -495.843947547     A.U. after   13 cycles
 SCF Done:  E(RB3LYP) =  -495.844025751     A.U. after   12 cycles
 SCF Done:  E(RB3LYP) =  -495.844084731     A.U. after   12 cycles
 SCF Done:  E(RB3LYP) =  -495.844097902     A.U. after   11 cycles
 SCF Done:  E(RB3LYP) =  -495.844107187     A.U. after   12 cycles
 SCF Done:  E(RB3LYP) =  -495.844107917     A.U. after    9 cycles
 SCF Done:  E(RB3LYP) =  -495.844108787     A.U. after   10 cycles
 SCF Done:  E(RB3LYP) =  -495.844109381     A.U. after    9 cycles
 SCF Done:  E(RB3LYP) =  -495.844109608     A.U. after    7 cycles
 Optimization completed.
    -- Stationary point found.

                         Standard orientation:
 ---------------------------------------------------------------------
 Center     Atomic      Atomic             Coordinates (Angstroms)
 Number     Number       Type             X           Y           Z
 ---------------------------------------------------------------------
      1          1           0       -2.979650   -2.141505    0.154858
      2          6           0       -3.015168   -1.068999   -0.053619
      3          1           0       -3.735275   -0.624997    0.642273
      4          1           0       -3.374072   -0.912385   -1.075933
      5          6           0       -1.639620   -0.473090    0.215951
      6          8           0       -1.001646   -0.742197    1.224774
      7          7           0       -1.173054    0.384010   -0.749701
      8          1           0       -1.797880    0.631579   -1.504179
      9          6           0        0.062126    1.170653   -0.623943
     10          1           0        0.337209    1.454242   -1.648112
     11          6           0       -0.147278    2.434499    0.215497
     12          1           0       -0.432391    2.161904    1.235004
     13          1           0        0.777820    3.012554    0.266133
     14          1           0       -0.936394    3.054631   -0.224043
     15          6           0        1.254875    0.346786   -0.075068
     16          8           0        2.063239    0.843580    0.694523
     17          7           0        1.411307   -0.889511   -0.636654
     18          1           0        0.593690   -1.286094   -1.078769
     19          6           0        2.391124   -1.820849   -0.099474
     20          1           0        3.289033   -1.260632    0.164905
     21          1           0        2.021051   -2.328345    0.801071
     22          1           0        2.639990   -2.567507   -0.859162
 ---------------------------------------------------------------------

 The electronic state is 1-A.
 Alpha  occ. eigenvalues --  -19.11678 -19.10296 -14.37234 -14.34784 -10.29582
 Alpha  occ. eigenvalues --  -10.27745 -10.23941 -10.20673 -10.20087 -10.17354
 Alpha  occ. eigenvalues --   -1.03898  -1.02148  -0.93150  -0.90648  -0.77915
 Alpha  occ. eigenvalues --   -0.73157  -0.70147  -0.63945  -0.59697  -0.56516
 Alpha  occ. eigenvalues --   -0.52577  -0.49977  -0.46709  -0.46104  -0.44719
 Alpha  occ. eigenvalues --   -0.43623  -0.41822  -0.41314  -0.40377  -0.39853
 Alpha  occ. eigenvalues --   -0.38199  -0.37199  -0.36498  -0.35882  -0.34862
 Alpha  occ. eigenvalues --   -0.26848  -0.25549  -0.24515  -0.23564
 Alpha virt. eigenvalues --    0.01885   0.02843   0.06388   0.10126   0.11148
 Alpha virt. eigenvalues --    0.13444   0.13705   0.14995   0.15643   0.16026
 Alpha virt. eigenvalues --    0.17327   0.17511   0.18040   0.18637   0.19958

 Mulliken atomic charges:
              1
     1  H    0.187943
     2  C   -0.539391
     3  H    0.190240
     4  H    0.144238
     5  C    0.584703
     6  O   -0.495399
     7  N   -0.610819
     8  H    0.325140
     9  C   -0.055949
    10  H    0.160085
    11  C   -0.429236
    12  H    0.180522
    13  H    0.174361
    14  H    0.125006
    15  C    0.631247
    16  O   -0.519494
    17  N   -0.577745
    18  H    0.323664
    19  C   -0.305822
    20  H    0.191667
    21  H    0.169776
    22  H    0.145263
 Sum of Mulliken atomic charges =   0.00000

 Dipole moment (field-independent basis, Debye):
    X=             -3.4626    Y=             -0.8633    Z=             -4.4392  Tot=              5.6958
 Quadrupole moment (field-independent basis, Debye-Ang):
   XX=            -57.2624   YY=            -56.2731   ZZ=            -61.5420
   XY=             -4.7287   XZ=              0.8510   YZ=             -0.2857

 Normal termination of Gaussian 09 at Sat Feb 11 02:23:46 2017.
