 Gaussian 09, Revision A.02,
 Gaussian 09:  EM64L-G09RevA.02 11-Jun-2009

 ----------------------------------------------------------------------
 # b3lyp/6-31G* Opt=(ModRedundant, maxcycles=1000, calcfc) geom=nocrowd
 ----------------------------------------------------------------------

 ------------------
 Phi Psi fixed scan
 ------------------
 Symbolic Z-matrix:
 Charge =  0 Multiplicity = 1

 SCF Done:  E(RB3LYP) =  -495.670269802     A.U. after   16 cycles

  Exact polarizability:   0.000   0.000   0.000   0.000   0.000   0.000
 Approx polarizability: 138.313   5.795 126.986  -2.388 -19.666  95.906

 SCF Done:  E(RB3LYP) =  -495.709299296     A.U. after   14 cycles
 SCF Done:  E(RB3LYP) =  -495.766687917     A.U. after   14 cycles
 SCF Done:  E(RB3LYP) =  -495.809663454     A.U. after   16 cycles
 SCF Done:  E(RB3LYP) =  -495.811521332     A.U. after   12 cycles
 SCF Done:  E(RB3LYP) =  -495.813065256     A.U. after   11 cycles
 SCF Done:  E(RB3LYP) =  -495.823603217     A.U. after   16 cycles
 SCF Done:  E(RB3LYP) =  -495.829567258     A.U. after   15 cycles
 SCF Done:  E(RB3LYP) =  -495.829071687     A.U. after   12 cycles
 SCF Done:  E(RB3LYP) =  -495.829762986     A.U. after   12 cycles
 SCF Done:  E(RB3LYP) =  -495.846502377     A.U. after   11 cycles
 SCF Done:  E(RB3LYP) =  -495.846539581     A.U. after   12 cycles
 SCF Done:  E(RB3LYP) =  -495.846565373     A.U. after   11 cycles
 SCF Done:  E(RB3LYP) =  -495.846581643     A.U. after   11 cycles
 SCF Done:  E(RB3LYP) =  -495.846585387     A.U. after   10 cycles
 SCF Done:  E(RB3LYP) =  -495.846588394     A.U. after   10 cycles
 SCF Done:  E(RB3LYP) =  -495.846588910     A.U. after    7 cycles
 SCF Done:  E(RB3LYP) =  -495.846589406     A.U. after    7 cycles
 SCF Done:  E(RB3LYP) =  -495.846589885     A.U. after    9 cycles
 SCF Done:  E(RB3LYP) =  -495.846589983     A.U. after    7 cycles
 Optimization completed.
    -- Stationary point found.

                         Standard orientation:
 ---------------------------------------------------------------------
 Center     Atomic      Atomic             Coordinates (Angstroms)
 Number     Number       Type             X           Y           Z
 ---------------------------------------------------------------------
      1          1           0       -3.933549   -0.716777    0.373003
      2          6           0       -3.255155   -0.638380   -0.481353
      3          1           0       -3.629054    0.129991   -1.164834
      4          1           0       -3.265811   -1.605193   -0.994903
      5          6           0       -1.848998   -0.381080    0.041699
      6          8           0       -1.359401   -1.127071    0.893896
      7          7           0       -1.231031    0.715711   -0.471835
      8          1           0       -1.744086    1.192013   -1.200103
      9          6           0        0.141186    1.238658   -0.278113
     10          1           0        0.309584    1.908886   -1.123380
     11          6           0        0.215782    2.060036    1.025247
     12          1           0        0.018407    1.417084    1.888870
     13          1           0        1.212622    2.497562    1.128060
     14          1           0       -0.527227    2.864379    1.015205
     15          6           0        1.374159    0.297557   -0.326480
     16          8           0        2.434993    0.802942   -0.690597
     17          7           0        1.250709   -0.990273    0.054500
     18          1           0        0.377017   -1.278988    0.495150
     19          6           0        2.419062   -1.852895    0.107339
     20          1           0        3.007633   -1.733896   -0.805697
     21          1           0        3.068647   -1.613002    0.959219
     22          1           0        2.087123   -2.890466    0.194325
 ---------------------------------------------------------------------

 The electronic state is 1-A.
 Alpha  occ. eigenvalues --  -19.12674 -19.09712 -14.37934 -14.33963 -10.30600
 Alpha  occ. eigenvalues --  -10.27425 -10.24321 -10.20577 -10.20441 -10.18403
 Alpha  occ. eigenvalues --   -1.04521  -1.01718  -0.93643  -0.90240  -0.78533
 Alpha  occ. eigenvalues --   -0.73682  -0.69805  -0.64963  -0.59762  -0.56211
 Alpha  occ. eigenvalues --   -0.53383  -0.50712  -0.46779  -0.46111  -0.44261
 Alpha  occ. eigenvalues --   -0.43686  -0.42577  -0.41487  -0.41211  -0.40540
 Alpha  occ. eigenvalues --   -0.38628  -0.37876  -0.36506  -0.36206  -0.34207
 Alpha  occ. eigenvalues --   -0.27718  -0.26581  -0.24021  -0.23233
 Alpha virt. eigenvalues --    0.01004   0.03723   0.05103   0.11153   0.12005
 Alpha virt. eigenvalues --    0.12975   0.13905   0.15942   0.16464   0.16668
 Alpha virt. eigenvalues --    0.17061   0.17371   0.17887   0.18774   0.20195

 Mulliken atomic charges:
              1
     1  H    0.192954
     2  C   -0.532306
     3  H    0.147261
     4  H    0.190138
     5  C    0.605921
     6  O   -0.535236
     7  N   -0.595869
     8  H    0.333298
     9  C   -0.047943
    10  H    0.169286
    11  C   -0.442825
    12  H    0.170126
    13  H    0.178125
    14  H    0.144746
    15  C    0.590032
    16  O   -0.532891
    17  N   -0.615840
    18  H    0.386429
    19  C   -0.296572
    20  H    0.179191
    21  H    0.161620
    22  H    0.150356
 Sum of Mulliken atomic charges =   0.00000

 Dipole moment (field-independent basis, Debye):
    X=             -3.8213    Y=              0.3830    Z=             -1.0940  Tot=              3.9932
 Quadrupole moment (field-independent basis, Debye-Ang):
   XX=            -60.9686   YY=            -57.2976   ZZ=            -60.3162
   XY=             -7.6982   XZ=              7.8321   YZ=              1.2116

 Normal termination of Gaussian 09 at Sat Feb 11 02:28:11 2017.
