 Gaussian 09, Revision A.02,
 Gaussian 09:  EM64L-G09RevA.02 11-Jun-2009

 ----------------------------------------------------------------------
 # b3lyp/6-31G* Opt=(ModRedundant, maxcycles=1000, calcfc) geom=nocrowd
 ----------------------------------------------------------------------

 ------------------
 Phi Psi fixed scan
 ------------------
 Symbolic Z-matrix:
 Charge =  0 Multiplicity = 1

 SCF Done:  E(RB3LYP) =  -495.806599924     A.U. after   15 cycles

  Exact polarizability:   0.000   0.000   0.000   0.000   0.000   0.000
 Approx polarizability: 109.199   6.115 119.245  -0.399  21.886 111.466

 SCF Done:  E(RB3LYP) =  -495.818378544     A.U. after   16 cycles
 SCF Done:  E(RB3LYP) =  -495.833146207     A.U. after   13 cycles
 SCF Done:  E(RB3LYP) =  -495.837765192     A.U. after   13 cycles
 SCF Done:  E(RB3LYP) =  -495.841819028     A.U. after   13 cycles
 SCF Done:  E(RB3LYP) =  -495.836740980     A.U. after   13 cycles
 SCF Done:  E(RB3LYP) =  -495.842001061     A.U. after   13 cycles
 SCF Done:  E(RB3LYP) =  -495.843370231     A.U. after   12 cycles
 SCF Done:  E(RB3LYP) =  -495.844692240     A.U. after   15 cycles
 SCF Done:  E(RB3LYP) =  -495.840938225     A.U. after   15 cycles
 SCF Done:  E(RB3LYP) =  -495.846141027     A.U. after   11 cycles
 SCF Done:  E(RB3LYP) =  -495.846158854     A.U. after   11 cycles
 SCF Done:  E(RB3LYP) =  -495.846164673     A.U. after    9 cycles
 SCF Done:  E(RB3LYP) =  -495.846171054     A.U. after    9 cycles
 SCF Done:  E(RB3LYP) =  -495.846182411     A.U. after   10 cycles
 SCF Done:  E(RB3LYP) =  -495.846194329     A.U. after   15 cycles
 SCF Done:  E(RB3LYP) =  -495.846204317     A.U. after   10 cycles
 SCF Done:  E(RB3LYP) =  -495.846205120     A.U. after    9 cycles
 SCF Done:  E(RB3LYP) =  -495.846205266     A.U. after    9 cycles
 SCF Done:  E(RB3LYP) =  -495.846205310     A.U. after    7 cycles
 Optimization completed.
    -- Stationary point found.

                         Standard orientation:
 ---------------------------------------------------------------------
 Center     Atomic      Atomic             Coordinates (Angstroms)
 Number     Number       Type             X           Y           Z
 ---------------------------------------------------------------------
      1          1           0       -3.742010   -1.264322    0.222460
      2          6           0       -3.106848   -0.846767   -0.562280
      3          1           0       -3.638120   -0.030704   -1.061714
      4          1           0       -2.920015   -1.640893   -1.294135
      5          6           0       -1.782337   -0.426611    0.056925
      6          8           0       -1.231718   -1.130084    0.904668
      7          7           0       -1.295291    0.776556   -0.366062
      8          1           0       -1.796297    1.194817   -1.137980
      9          6           0        0.076167    1.303290   -0.178261
     10          1           0        0.199494    2.059882   -0.954935
     11          6           0        0.216989    1.962104    1.203264
     12          1           0        0.041769    1.236149    2.001597
     13          1           0        1.222812    2.376849    1.327115
     14          1           0       -0.511206    2.773272    1.309882
     15          6           0        1.237071    0.310751   -0.466217
     16          8           0        1.953030    0.500113   -1.446483
     17          7           0        1.474213   -0.654323    0.459547
     18          1           0        0.669522   -0.933159    1.017660
     19          6           0        2.529718   -1.629025    0.232542
     20          1           0        3.442303   -1.109302   -0.066524
     21          1           0        2.711044   -2.176242    1.161118
     22          1           0        2.273189   -2.344658   -0.560247
 ---------------------------------------------------------------------

 The electronic state is 1-A.
 Alpha  occ. eigenvalues --  -19.12631 -19.10264 -14.37580 -14.34066 -10.30332
 Alpha  occ. eigenvalues --  -10.27461 -10.24046 -10.20579 -10.20249 -10.18437
 Alpha  occ. eigenvalues --   -1.04398  -1.01969  -0.93340  -0.90393  -0.78411
 Alpha  occ. eigenvalues --   -0.73620  -0.69550  -0.64941  -0.59514  -0.55832
 Alpha  occ. eigenvalues --   -0.53055  -0.50645  -0.46928  -0.45840  -0.44195
 Alpha  occ. eigenvalues --   -0.43873  -0.42099  -0.41328  -0.41261  -0.40479
 Alpha  occ. eigenvalues --   -0.38635  -0.37413  -0.36629  -0.36005  -0.35269
 Alpha  occ. eigenvalues --   -0.28025  -0.26531  -0.24376  -0.22983
 Alpha virt. eigenvalues --    0.01069   0.02670   0.05842   0.11069   0.11583
 Alpha virt. eigenvalues --    0.12973   0.13841   0.15676   0.15837   0.16862
 Alpha virt. eigenvalues --    0.17018   0.17595   0.18168   0.18769   0.20086

 Mulliken atomic charges:
              1
     1  H    0.191935
     2  C   -0.537733
     3  H    0.151772
     4  H    0.189615
     5  C    0.601123
     6  O   -0.526851
     7  N   -0.591135
     8  H    0.332449
     9  C   -0.054470
    10  H    0.168916
    11  C   -0.439269
    12  H    0.171411
    13  H    0.162072
    14  H    0.147301
    15  C    0.580765
    16  O   -0.523368
    17  N   -0.587869
    18  H    0.372400
    19  C   -0.299593
    20  H    0.181586
    21  H    0.150743
    22  H    0.158200
 Sum of Mulliken atomic charges =   0.00000

 Dipole moment (field-independent basis, Debye):
    X=             -3.0316    Y=              0.7171    Z=              0.0547  Tot=              3.1158
 Quadrupole moment (field-independent basis, Debye-Ang):
   XX=            -57.0506   YY=            -57.0035   ZZ=            -63.4949
   XY=             -4.9620   XZ=              9.9800   YZ=              1.4548

 Normal termination of Gaussian 09 at Sat Feb 11 02:12:49 2017.
