 Gaussian 09, Revision A.02,
 Gaussian 09:  EM64L-G09RevA.02 11-Jun-2009

 ----------------------------------------------------------------------
 # b3lyp/6-31G* Opt=(ModRedundant, maxcycles=1000, calcfc) geom=nocrowd
 ----------------------------------------------------------------------

 ------------------
 Phi Psi fixed scan
 ------------------
 Symbolic Z-matrix:
 Charge =  0 Multiplicity = 1

 SCF Done:  E(RB3LYP) =  -495.833138858     A.U. after   15 cycles

  Exact polarizability:   0.000   0.000   0.000   0.000   0.000   0.000
 Approx polarizability: 102.157   2.083 106.001  11.431   5.509 127.654

 SCF Done:  E(RB3LYP) =  -495.836904699     A.U. after   12 cycles
 SCF Done:  E(RB3LYP) =  -495.841052509     A.U. after   12 cycles
 SCF Done:  E(RB3LYP) =  -495.842137922     A.U. after   13 cycles
 SCF Done:  E(RB3LYP) =  -495.839067884     A.U. after   15 cycles
 SCF Done:  E(RB3LYP) =  -495.841188421     A.U. after   13 cycles
 SCF Done:  E(RB3LYP) =  -495.842145867     A.U. after   14 cycles
 SCF Done:  E(RB3LYP) =  -495.842451916     A.U. after   12 cycles
 SCF Done:  E(RB3LYP) =  -495.820588003     A.U. after   15 cycles
 SCF Done:  E(RB3LYP) =  -495.842534796     A.U. after   14 cycles
 SCF Done:  E(RB3LYP) =  -495.842708759     A.U. after   11 cycles
 SCF Done:  E(RB3LYP) =  -495.842723720     A.U. after   10 cycles
 SCF Done:  E(RB3LYP) =  -495.842753988     A.U. after   10 cycles
 SCF Done:  E(RB3LYP) =  -495.842792518     A.U. after   11 cycles
 SCF Done:  E(RB3LYP) =  -495.842826845     A.U. after   12 cycles
 SCF Done:  E(RB3LYP) =  -495.842842391     A.U. after   12 cycles
 SCF Done:  E(RB3LYP) =  -495.842843895     A.U. after   10 cycles
 SCF Done:  E(RB3LYP) =  -495.842844468     A.U. after    9 cycles
 SCF Done:  E(RB3LYP) =  -495.842844897     A.U. after    8 cycles
 SCF Done:  E(RB3LYP) =  -495.842845096     A.U. after    9 cycles
 Optimization completed.
    -- Stationary point found.

                         Standard orientation:
 ---------------------------------------------------------------------
 Center     Atomic      Atomic             Coordinates (Angstroms)
 Number     Number       Type             X           Y           Z
 ---------------------------------------------------------------------
      1          1           0       -3.019977   -2.184863    0.275339
      2          6           0       -3.021671   -1.139409   -0.042029
      3          1           0       -3.749065   -0.606965    0.581299
      4          1           0       -3.346994   -1.077920   -1.085629
      5          6           0       -1.637424   -0.553126    0.202345
      6          8           0       -0.988756   -0.810340    1.206234
      7          7           0       -1.170556    0.274976   -0.790309
      8          1           0       -1.821183    0.536193   -1.519182
      9          6           0        0.018814    1.129179   -0.648124
     10          1           0        0.331098    1.378032   -1.669959
     11          6           0       -0.284625    2.412737    0.127700
     12          1           0       -0.573294    2.169471    1.153143
     13          1           0        0.601635    3.050867    0.171297
     14          1           0       -1.097568    2.965778   -0.356396
     15          6           0        1.203626    0.368819    0.001815
     16          8           0        1.815849    0.821393    0.954984
     17          7           0        1.615901   -0.729970   -0.707081
     18          1           0        0.925229   -1.144883   -1.319968
     19          6           0        2.616524   -1.626373   -0.146416
     20          1           0        3.385746   -1.020953    0.335011
     21          1           0        2.190313   -2.303989    0.605165
     22          1           0        3.068436   -2.215201   -0.949885
 ---------------------------------------------------------------------

 The electronic state is 1-A.
 Alpha  occ. eigenvalues --  -19.11557 -19.10266 -14.37000 -14.34875 -10.29396
 Alpha  occ. eigenvalues --  -10.27704 -10.23837 -10.20711 -10.19904 -10.17462
 Alpha  occ. eigenvalues --   -1.03768  -1.02101  -0.92976  -0.90663  -0.77833
 Alpha  occ. eigenvalues --   -0.73056  -0.70158  -0.63828  -0.59592  -0.56353
 Alpha  occ. eigenvalues --   -0.52225  -0.49796  -0.46519  -0.46187  -0.44693
 Alpha  occ. eigenvalues --   -0.43582  -0.41739  -0.41292  -0.40202  -0.39940
 Alpha  occ. eigenvalues --   -0.38158  -0.36990  -0.36506  -0.35808  -0.35054
 Alpha  occ. eigenvalues --   -0.26689  -0.25149  -0.24614  -0.23674
 Alpha virt. eigenvalues --    0.02054   0.02727   0.06622   0.09800   0.11419
 Alpha virt. eigenvalues --    0.13216   0.13630   0.14769   0.15715   0.16038
 Alpha virt. eigenvalues --    0.17270   0.17672   0.18081   0.18523   0.20094

 Mulliken atomic charges:
              1
     1  H    0.189360
     2  C   -0.541780
     3  H    0.187781
     4  H    0.145787
     5  C    0.589858
     6  O   -0.490152
     7  N   -0.605926
     8  H    0.322548
     9  C   -0.062306
    10  H    0.155797
    11  C   -0.429299
    12  H    0.184819
    13  H    0.167798
    14  H    0.123773
    15  C    0.633729
    16  O   -0.512545
    17  N   -0.581250
    18  H    0.321724
    19  C   -0.305832
    20  H    0.192522
    21  H    0.167857
    22  H    0.145736
 Sum of Mulliken atomic charges =   0.00000

 Dipole moment (field-independent basis, Debye):
    X=             -2.9646    Y=             -0.7277    Z=             -4.8450  Tot=              5.7264
 Quadrupole moment (field-independent basis, Debye-Ang):
   XX=            -54.9460   YY=            -56.8485   ZZ=            -62.0182
   XY=             -4.5430   XZ=              0.0990   YZ=             -0.0857

 Normal termination of Gaussian 09 at Sat Feb 11 02:22:52 2017.
