 Gaussian 09, Revision A.02,
 Gaussian 09:  EM64L-G09RevA.02 11-Jun-2009

 ----------------------------------------------------------------------
 # b3lyp/6-31G* Opt=(ModRedundant, maxcycles=1000, calcfc) geom=nocrowd
 ----------------------------------------------------------------------

 ------------------
 Phi Psi fixed scan
 ------------------
 Symbolic Z-matrix:
 Charge =  0 Multiplicity = 1

 SCF Done:  E(RB3LYP) =  -495.765231447     A.U. after   16 cycles

  Exact polarizability:   0.000   0.000   0.000   0.000   0.000   0.000
 Approx polarizability: 118.204  -0.574 123.493  -3.638 -22.863 104.262

 SCF Done:  E(RB3LYP) =  -495.787718062     A.U. after   13 cycles
 SCF Done:  E(RB3LYP) =  -495.815237721     A.U. after   14 cycles
 SCF Done:  E(RB3LYP) =  -495.822997224     A.U. after   14 cycles
 SCF Done:  E(RB3LYP) =  -495.835933992     A.U. after   13 cycles
 SCF Done:  E(RB3LYP) =  -495.838513451     A.U. after   15 cycles
 SCF Done:  E(RB3LYP) =  -495.840441886     A.U. after   14 cycles
 SCF Done:  E(RB3LYP) =  -495.842304355     A.U. after   13 cycles
 SCF Done:  E(RB3LYP) =  -495.845028587     A.U. after   12 cycles
 SCF Done:  E(RB3LYP) =  -495.846014704     A.U. after   12 cycles
 SCF Done:  E(RB3LYP) =  -495.846698727     A.U. after   11 cycles
 SCF Done:  E(RB3LYP) =  -495.846711096     A.U. after   10 cycles
 SCF Done:  E(RB3LYP) =  -495.846722422     A.U. after   10 cycles
 SCF Done:  E(RB3LYP) =  -495.846727390     A.U. after   11 cycles
 SCF Done:  E(RB3LYP) =  -495.846733542     A.U. after    9 cycles
 SCF Done:  E(RB3LYP) =  -495.846744474     A.U. after   11 cycles
 SCF Done:  E(RB3LYP) =  -495.846745014     A.U. after   10 cycles
 SCF Done:  E(RB3LYP) =  -495.846748451     A.U. after   10 cycles
 SCF Done:  E(RB3LYP) =  -495.846748597     A.U. after    7 cycles
 SCF Done:  E(RB3LYP) =  -495.846748659     A.U. after    7 cycles
 Optimization completed.
    -- Stationary point found.

                         Standard orientation:
 ---------------------------------------------------------------------
 Center     Atomic      Atomic             Coordinates (Angstroms)
 Number     Number       Type             X           Y           Z
 ---------------------------------------------------------------------
      1          1           0       -3.861703   -1.005344    0.230067
      2          6           0       -3.181372   -0.722432   -0.577402
      3          1           0       -3.622473    0.101165   -1.147096
      4          1           0       -3.077614   -1.590653   -1.237234
      5          6           0       -1.821270   -0.402042    0.025469
      6          8           0       -1.312868   -1.162572    0.851965
      7          7           0       -1.265942    0.772736   -0.383661
      8          1           0       -1.766752    1.243890   -1.124092
      9          6           0        0.109913    1.283920   -0.178029
     10          1           0        0.249267    2.042595   -0.949457
     11          6           0        0.234500    1.940580    1.208850
     12          1           0        0.055892    1.206106    1.999165
     13          1           0        1.238653    2.357022    1.339808
     14          1           0       -0.496323    2.749428    1.314739
     15          6           0        1.303352    0.317732   -0.414222
     16          8           0        2.189032    0.666575   -1.192697
     17          7           0        1.369984   -0.804886    0.336823
     18          1           0        0.515313   -1.107136    0.803115
     19          6           0        2.476212   -1.732564    0.172070
     20          1           0        3.423136   -1.187682    0.201655
     21          1           0        2.449842   -2.459173    0.987765
     22          1           0        2.427148   -2.268350   -0.785132
 ---------------------------------------------------------------------

 The electronic state is 1-A.
 Alpha  occ. eigenvalues --  -19.12746 -19.09915 -14.37818 -14.33916 -10.30536
 Alpha  occ. eigenvalues --  -10.27340 -10.24152 -10.20583 -10.20381 -10.18509
 Alpha  occ. eigenvalues --   -1.04514  -1.01743  -0.93541  -0.90241  -0.78522
 Alpha  occ. eigenvalues --   -0.73706  -0.69647  -0.65018  -0.59641  -0.56016
 Alpha  occ. eigenvalues --   -0.53246  -0.50720  -0.46896  -0.45937  -0.44275
 Alpha  occ. eigenvalues --   -0.43701  -0.42225  -0.41471  -0.41359  -0.40589
 Alpha  occ. eigenvalues --   -0.38662  -0.37501  -0.36735  -0.36067  -0.34848
 Alpha  occ. eigenvalues --   -0.28044  -0.26563  -0.24012  -0.23029
 Alpha virt. eigenvalues --    0.01013   0.03250   0.05409   0.11089   0.11818
 Alpha virt. eigenvalues --    0.12898   0.13832   0.15680   0.16147   0.16771
 Alpha virt. eigenvalues --    0.17002   0.17593   0.17986   0.18762   0.19905

 Mulliken atomic charges:
              1
     1  H    0.192670
     2  C   -0.534336
     3  H    0.149376
     4  H    0.190156
     5  C    0.603386
     6  O   -0.530031
     7  N   -0.594604
     8  H    0.333314
     9  C   -0.053807
    10  H    0.169161
    11  C   -0.441638
    12  H    0.173133
    13  H    0.166563
    14  H    0.147561
    15  C    0.583518
    16  O   -0.527682
    17  N   -0.601021
    18  H    0.381567
    19  C   -0.296271
    20  H    0.178839
    21  H    0.150731
    22  H    0.159412
 Sum of Mulliken atomic charges =   0.00000

 Dipole moment (field-independent basis, Debye):
    X=             -3.4346    Y=              0.5915    Z=             -0.2455  Tot=              3.4938
 Quadrupole moment (field-independent basis, Debye-Ang):
   XX=            -58.8936   YY=            -57.1724   ZZ=            -62.1739
   XY=             -6.4194   XZ=              9.7511   YZ=              1.7573

 Normal termination of Gaussian 09 at Sat Feb 11 02:17:09 2017.
