 Gaussian 09, Revision A.02,
 Gaussian 09:  EM64L-G09RevA.02 11-Jun-2009

 ----------------------------------------------------------------------
 # b3lyp/6-31G* Opt=(ModRedundant, maxcycles=1000, calcfc) geom=nocrowd
 ----------------------------------------------------------------------

 ------------------
 Phi Psi fixed scan
 ------------------
 Symbolic Z-matrix:
 Charge =  0 Multiplicity = 1

 SCF Done:  E(RB3LYP) =  -495.795634980     A.U. after   17 cycles

  Exact polarizability:   0.000   0.000   0.000   0.000   0.000   0.000
 Approx polarizability: 122.535   9.853 116.832   3.352 -18.196 100.271

 SCF Done:  E(RB3LYP) =  -495.808193007     A.U. after   13 cycles
 SCF Done:  E(RB3LYP) =  -495.825476697     A.U. after   13 cycles
 SCF Done:  E(RB3LYP) =  -495.825771614     A.U. after   15 cycles
 SCF Done:  E(RB3LYP) =  -495.828392579     A.U. after   13 cycles
 SCF Done:  E(RB3LYP) =  -495.829591306     A.U. after   13 cycles
 SCF Done:  E(RB3LYP) =  -495.826637041     A.U. after   13 cycles
 SCF Done:  E(RB3LYP) =  -495.830467525     A.U. after   13 cycles
 SCF Done:  E(RB3LYP) =  -495.824845918     A.U. after   14 cycles
 SCF Done:  E(RB3LYP) =  -495.830503295     A.U. after   13 cycles
 SCF Done:  E(RB3LYP) =  -495.834486636     A.U. after   13 cycles
 SCF Done:  E(RB3LYP) =  -495.834561665     A.U. after   12 cycles
 SCF Done:  E(RB3LYP) =  -495.835668208     A.U. after   12 cycles
 SCF Done:  E(RB3LYP) =  -495.836145274     A.U. after   11 cycles
 SCF Done:  E(RB3LYP) =  -495.836186969     A.U. after   11 cycles
 SCF Done:  E(RB3LYP) =  -495.836209566     A.U. after   11 cycles
 SCF Done:  E(RB3LYP) =  -495.836216876     A.U. after   10 cycles
 SCF Done:  E(RB3LYP) =  -495.836223783     A.U. after   10 cycles
 SCF Done:  E(RB3LYP) =  -495.836226293     A.U. after   10 cycles
 SCF Done:  E(RB3LYP) =  -495.836227387     A.U. after    9 cycles
 Optimization completed.
    -- Stationary point found.

                         Standard orientation:
 ---------------------------------------------------------------------
 Center     Atomic      Atomic             Coordinates (Angstroms)
 Number     Number       Type             X           Y           Z
 ---------------------------------------------------------------------
      1          1           0       -3.675098   -1.410967    0.363829
      2          6           0       -2.951011   -1.143621   -0.407278
      3          1           0       -3.476173   -0.734080   -1.277970
      4          1           0       -2.419369   -2.050200   -0.720042
      5          6           0       -1.943174   -0.167120    0.175756
      6          8           0       -1.777860   -0.025768    1.374048
      7          7           0       -1.281806    0.621866   -0.774184
      8          1           0       -1.449037    0.284960   -1.716681
      9          6           0        0.122974    0.991560   -0.589200
     10          1           0        0.488364    1.306063   -1.574021
     11          6           0        0.251688    2.178922    0.385914
     12          1           0       -0.119686    1.885622    1.369749
     13          1           0        1.290107    2.517165    0.481537
     14          1           0       -0.349790    3.017293    0.022130
     15          6           0        0.996753   -0.211089   -0.134905
     16          8           0        0.535094   -1.298690    0.176538
     17          7           0        2.342471    0.010059   -0.266254
     18          1           0        2.658514    0.955887   -0.429097
     19          6           0        3.329991   -0.967594    0.162412
     20          1           0        2.842365   -1.942949    0.179543
     21          1           0        4.166416   -0.990938   -0.543466
     22          1           0        3.717538   -0.751997    1.166676
 ---------------------------------------------------------------------

 The electronic state is 1-A.
 Alpha  occ. eigenvalues --  -19.11474 -19.10076 -14.36487 -14.34851 -10.28626
 Alpha  occ. eigenvalues --  -10.27776 -10.24074 -10.21991 -10.18232 -10.18066
 Alpha  occ. eigenvalues --   -1.03683  -1.01692  -0.92233  -0.91337  -0.77576
 Alpha  occ. eigenvalues --   -0.72229  -0.70498  -0.64104  -0.58829  -0.56309
 Alpha  occ. eigenvalues --   -0.52162  -0.49564  -0.46258  -0.45315  -0.44611
 Alpha  occ. eigenvalues --   -0.43670  -0.42214  -0.41061  -0.40148  -0.39246
 Alpha  occ. eigenvalues --   -0.38614  -0.37576  -0.37444  -0.35361  -0.33649
 Alpha  occ. eigenvalues --   -0.27067  -0.25387  -0.24435  -0.23027
 Alpha virt. eigenvalues --    0.02107   0.03470   0.05900   0.08162   0.11830
 Alpha virt. eigenvalues --    0.13036   0.15225   0.15292   0.15818   0.16359
 Alpha virt. eigenvalues --    0.17096   0.17369   0.18612   0.19335   0.19519

 Mulliken atomic charges:
              1
     1  H    0.183241
     2  C   -0.553782
     3  H    0.151198
     4  H    0.189137
     5  C    0.608661
     6  O   -0.487436
     7  N   -0.571747
     8  H    0.315352
     9  C   -0.079013
    10  H    0.147754
    11  C   -0.442976
    12  H    0.204316
    13  H    0.123869
    14  H    0.159651
    15  C    0.614722
    16  O   -0.505545
    17  N   -0.592352
    18  H    0.324552
    19  C   -0.308521
    20  H    0.203193
    21  H    0.154091
    22  H    0.161635
 Sum of Mulliken atomic charges =   0.00000

 Dipole moment (field-independent basis, Debye):
    X=              2.7764    Y=              1.7118    Z=             -3.7243  Tot=              4.9506
 Quadrupole moment (field-independent basis, Debye-Ang):
   XX=            -49.8109   YY=            -60.2008   ZZ=            -61.0934
   XY=              3.9340   XZ=              5.3072   YZ=              0.3033

 Normal termination of Gaussian 09 at Sat Feb 11 02:04:03 2017.
