 Gaussian 09, Revision A.02,
 Gaussian 09:  EM64L-G09RevA.02 11-Jun-2009

 ----------------------------------------------------------------------
 # b3lyp/6-31G* Opt=(ModRedundant, maxcycles=1000, calcfc) geom=nocrowd
 ----------------------------------------------------------------------

 ------------------
 Phi Psi fixed scan
 ------------------
 Symbolic Z-matrix:
 Charge =  0 Multiplicity = 1

 SCF Done:  E(RB3LYP) =  -495.808952443     A.U. after   16 cycles

  Exact polarizability:   0.000   0.000   0.000   0.000   0.000   0.000
 Approx polarizability: 108.806  -1.189  95.393  -4.267 -12.937 133.903

 SCF Done:  E(RB3LYP) =  -495.817705824     A.U. after   14 cycles
 SCF Done:  E(RB3LYP) =  -495.825787738     A.U. after   14 cycles
 SCF Done:  E(RB3LYP) =  -495.820589045     A.U. after   14 cycles
 SCF Done:  E(RB3LYP) =  -495.828692362     A.U. after   14 cycles
 SCF Done:  E(RB3LYP) =  -495.829466050     A.U. after   12 cycles
 SCF Done:  E(RB3LYP) =  -495.830579450     A.U. after   13 cycles
 SCF Done:  E(RB3LYP) =  -495.831107369     A.U. after   13 cycles
 SCF Done:  E(RB3LYP) =  -495.831048023     A.U. after   12 cycles
 SCF Done:  E(RB3LYP) =  -495.831108386     A.U. after   12 cycles
 SCF Done:  E(RB3LYP) =  -495.831671957     A.U. after   14 cycles
 SCF Done:  E(RB3LYP) =  -495.831765711     A.U. after   13 cycles
 SCF Done:  E(RB3LYP) =  -495.831800209     A.U. after   11 cycles
 SCF Done:  E(RB3LYP) =  -495.831771841     A.U. after   12 cycles
 SCF Done:  E(RB3LYP) =  -495.831822259     A.U. after   12 cycles
 SCF Done:  E(RB3LYP) =  -495.831826681     A.U. after    9 cycles
 SCF Done:  E(RB3LYP) =  -495.831827902     A.U. after    9 cycles
 SCF Done:  E(RB3LYP) =  -495.831828548     A.U. after   10 cycles
 SCF Done:  E(RB3LYP) =  -495.831828755     A.U. after    9 cycles
 SCF Done:  E(RB3LYP) =  -495.831828791     A.U. after    7 cycles
 Optimization completed.
    -- Stationary point found.

                         Standard orientation:
 ---------------------------------------------------------------------
 Center     Atomic      Atomic             Coordinates (Angstroms)
 Number     Number       Type             X           Y           Z
 ---------------------------------------------------------------------
      1          1           0       -2.568749   -2.327101   -0.557484
      2          6           0       -2.994516   -1.327755   -0.404401
      3          1           0       -3.792309   -1.410038    0.335708
      4          1           0       -3.416470   -0.986186   -1.356188
      5          6           0       -1.920293   -0.390254    0.144679
      6          8           0       -1.750560   -0.226244    1.338832
      7          7           0       -1.199187    0.263007   -0.838436
      8          1           0       -1.382395   -0.063359   -1.777808
      9          6           0        0.101771    0.941042   -0.678935
     10          1           0        0.477467    1.079063   -1.698968
     11          6           0       -0.079408    2.313293   -0.016721
     12          1           0       -0.438301    2.170934    1.004445
     13          1           0        0.873166    2.853463    0.020632
     14          1           0       -0.804515    2.909320   -0.579518
     15          6           0        1.149655    0.138509    0.138035
     16          8           0        1.162879    0.095717    1.356053
     17          7           0        2.134382   -0.427209   -0.635538
     18          1           0        2.025664   -0.425789   -1.639365
     19          6           0        3.202197   -1.228797   -0.063079
     20          1           0        3.233057   -1.013655    1.005919
     21          1           0        3.028570   -2.304315   -0.199461
     22          1           0        4.163477   -0.964937   -0.516653
 ---------------------------------------------------------------------

 The electronic state is 1-A.
 Alpha  occ. eigenvalues --  -19.10651 -19.10301 -14.36343 -14.35962 -10.28246
 Alpha  occ. eigenvalues --  -10.28175 -10.24163 -10.21763 -10.18930 -10.17175
 Alpha  occ. eigenvalues --   -1.03052  -1.02052  -0.92240  -0.91481  -0.77669
 Alpha  occ. eigenvalues --   -0.72449  -0.70726  -0.63694  -0.59175  -0.56871
 Alpha  occ. eigenvalues --   -0.52428  -0.49418  -0.46460  -0.45789  -0.44475
 Alpha  occ. eigenvalues --   -0.44209  -0.41551  -0.40808  -0.40151  -0.39130
 Alpha  occ. eigenvalues --   -0.38795  -0.37113  -0.35934  -0.35575  -0.34661
 Alpha  occ. eigenvalues --   -0.27008  -0.25062  -0.24442  -0.22530
 Alpha virt. eigenvalues --    0.02114   0.03375   0.05101   0.08799   0.11913
 Alpha virt. eigenvalues --    0.12863   0.13806   0.15165   0.15724   0.16682
 Alpha virt. eigenvalues --    0.16993   0.17748   0.18438   0.18850   0.19885

 Mulliken atomic charges:
              1
     1  H    0.174988
     2  C   -0.547356
     3  H    0.189541
     4  H    0.149828
     5  C    0.585954
     6  O   -0.469844
     7  N   -0.595246
     8  H    0.314605
     9  C   -0.046179
    10  H    0.125389
    11  C   -0.439502
    12  H    0.210937
    13  H    0.144435
    14  H    0.140950
    15  C    0.624837
    16  O   -0.489083
    17  N   -0.598879
    18  H    0.316436
    19  C   -0.309573
    20  H    0.207060
    21  H    0.156936
    22  H    0.153766
 Sum of Mulliken atomic charges =   0.00000

 Dipole moment (field-independent basis, Debye):
    X=              1.1291    Y=             -1.0430    Z=             -6.4087  Tot=              6.5905
 Quadrupole moment (field-independent basis, Debye-Ang):
   XX=            -53.4140   YY=            -57.1367   ZZ=            -61.8918
   XY=             -0.4141   XZ=              1.0080   YZ=              1.2115

 Normal termination of Gaussian 09 at Sat Feb 11 02:26:23 2017.
