 Gaussian 09, Revision A.02,
 Gaussian 09:  EM64L-G09RevA.02 11-Jun-2009

 ----------------------------------------------------------------------
 # b3lyp/6-31G* Opt=(ModRedundant, maxcycles=1000, calcfc) geom=nocrowd
 ----------------------------------------------------------------------

 ------------------
 Phi Psi fixed scan
 ------------------
 Symbolic Z-matrix:
 Charge =  0 Multiplicity = 1

 SCF Done:  E(RB3LYP) =  -495.794267368     A.U. after   14 cycles

  Exact polarizability:   0.000   0.000   0.000   0.000   0.000   0.000
 Approx polarizability: 121.456   9.685 120.231   8.519 -13.064 100.465

 SCF Done:  E(RB3LYP) =  -495.810718082     A.U. after   12 cycles
 SCF Done:  E(RB3LYP) =  -495.829449351     A.U. after   13 cycles
 SCF Done:  E(RB3LYP) =  -495.836831483     A.U. after   14 cycles
 SCF Done:  E(RB3LYP) =  -495.840283500     A.U. after   12 cycles
 SCF Done:  E(RB3LYP) =  -495.842238125     A.U. after   13 cycles
 SCF Done:  E(RB3LYP) =  -495.843496641     A.U. after   12 cycles
 SCF Done:  E(RB3LYP) =  -495.843327640     A.U. after   14 cycles
 SCF Done:  E(RB3LYP) =  -495.843512674     A.U. after   13 cycles
 SCF Done:  E(RB3LYP) =  -495.844264255     A.U. after   12 cycles
 SCF Done:  E(RB3LYP) =  -495.844955329     A.U. after   12 cycles
 SCF Done:  E(RB3LYP) =  -495.844985617     A.U. after   11 cycles
 SCF Done:  E(RB3LYP) =  -495.844931422     A.U. after   12 cycles
 SCF Done:  E(RB3LYP) =  -495.845000391     A.U. after   11 cycles
 SCF Done:  E(RB3LYP) =  -495.845004908     A.U. after   10 cycles
 SCF Done:  E(RB3LYP) =  -495.845006157     A.U. after   10 cycles
 SCF Done:  E(RB3LYP) =  -495.845006342     A.U. after    8 cycles
 SCF Done:  E(RB3LYP) =  -495.845006549     A.U. after    8 cycles
 SCF Done:  E(RB3LYP) =  -495.845006745     A.U. after    7 cycles
 SCF Done:  E(RB3LYP) =  -495.845006863     A.U. after    7 cycles
 Optimization completed.
    -- Stationary point found.

                         Standard orientation:
 ---------------------------------------------------------------------
 Center     Atomic      Atomic             Coordinates (Angstroms)
 Number     Number       Type             X           Y           Z
 ---------------------------------------------------------------------
      1          1           0       -3.351682   -1.737519   -0.605892
      2          6           0       -3.263383   -0.688743   -0.307082
      3          1           0       -3.898541   -0.547328    0.572951
      4          1           0       -3.634880   -0.054410   -1.117573
      5          6           0       -1.819616   -0.416492    0.091374
      6          8           0       -1.275694   -1.085497    0.972717
      7          7           0       -1.209699    0.593969   -0.583388
      8          1           0       -1.768888    1.047498   -1.292017
      9          6           0        0.128573    1.193683   -0.403052
     10          1           0        0.338882    1.699101   -1.351127
     11          6           0        0.088731    2.250977    0.716610
     12          1           0       -0.165412    1.777286    1.670562
     13          1           0        1.068219    2.725219    0.806120
     14          1           0       -0.664631    3.015396    0.498113
     15          6           0        1.380967    0.299354   -0.201806
     16          8           0        2.464172    0.877125   -0.167533
     17          7           0        1.249982   -1.050214   -0.190649
     18          1           0        0.363357   -1.402977    0.165821
     19          6           0        2.434636   -1.872560    0.013506
     20          1           0        3.223881   -1.544751   -0.666053
     21          1           0        2.820278   -1.800311    1.039005
     22          1           0        2.180178   -2.913821   -0.200414
 ---------------------------------------------------------------------

 The electronic state is 1-A.
 Alpha  occ. eigenvalues --  -19.12386 -19.10168 -14.37843 -14.34089 -10.30439
 Alpha  occ. eigenvalues --  -10.27744 -10.24443 -10.20509 -10.20399 -10.18054
 Alpha  occ. eigenvalues --   -1.04399  -1.02130  -0.93591  -0.90373  -0.78408
 Alpha  occ. eigenvalues --   -0.73552  -0.69823  -0.64737  -0.59898  -0.56009
 Alpha  occ. eigenvalues --   -0.53203  -0.50548  -0.46759  -0.46324  -0.44299
 Alpha  occ. eigenvalues --   -0.43867  -0.42412  -0.41320  -0.41250  -0.40202
 Alpha  occ. eigenvalues --   -0.38352  -0.38150  -0.36347  -0.36088  -0.34272
 Alpha  occ. eigenvalues --   -0.27240  -0.26612  -0.24571  -0.23486
 Alpha virt. eigenvalues --    0.01093   0.02949   0.05526   0.11164   0.11971
 Alpha virt. eigenvalues --    0.13226   0.13978   0.15836   0.16226   0.16474
 Alpha virt. eigenvalues --    0.16867   0.17388   0.18021   0.18952   0.20682

 Mulliken atomic charges:
              1
     1  H    0.189488
     2  C   -0.532354
     3  H    0.192288
     4  H    0.146167
     5  C    0.598793
     6  O   -0.533958
     7  N   -0.594241
     8  H    0.331228
     9  C   -0.046956
    10  H    0.171768
    11  C   -0.440832
    12  H    0.168107
    13  H    0.186977
    14  H    0.135227
    15  C    0.602854
    16  O   -0.528537
    17  N   -0.611500
    18  H    0.374297
    19  C   -0.300670
    20  H    0.180523
    21  H    0.162429
    22  H    0.148901
 Sum of Mulliken atomic charges =   0.00000

 Dipole moment (field-independent basis, Debye):
    X=             -3.9018    Y=              0.1919    Z=             -2.0906  Tot=              4.4308
 Quadrupole moment (field-independent basis, Debye-Ang):
   XX=            -60.2942   YY=            -57.4499   ZZ=            -60.0764
   XY=             -7.5480   XZ=              4.7657   YZ=              0.1933

 Normal termination of Gaussian 09 at Sat Feb 11 01:59:32 2017.
