 Gaussian 09, Revision A.02,
 Gaussian 09:  EM64L-G09RevA.02 11-Jun-2009

 ----------------------------------------------------------------------
 # b3lyp/6-31G* Opt=(ModRedundant, maxcycles=1000, calcfc) geom=nocrowd
 ----------------------------------------------------------------------

 ------------------
 Phi Psi fixed scan
 ------------------
 Symbolic Z-matrix:
 Charge =  0 Multiplicity = 1

 SCF Done:  E(RB3LYP) =  -495.828788813     A.U. after   15 cycles

  Exact polarizability:   0.000   0.000   0.000   0.000   0.000   0.000
 Approx polarizability: 110.826   4.373 107.985  16.132   4.930 117.576

 SCF Done:  E(RB3LYP) =  -495.834088775     A.U. after   12 cycles
 SCF Done:  E(RB3LYP) =  -495.840523728     A.U. after   13 cycles
 SCF Done:  E(RB3LYP) =  -495.842944245     A.U. after   13 cycles
 SCF Done:  E(RB3LYP) =  -495.841567148     A.U. after   15 cycles
 SCF Done:  E(RB3LYP) =  -495.842441243     A.U. after   13 cycles
 SCF Done:  E(RB3LYP) =  -495.843084755     A.U. after   12 cycles
 SCF Done:  E(RB3LYP) =  -495.843516235     A.U. after   12 cycles
 SCF Done:  E(RB3LYP) =  -495.842265819     A.U. after   13 cycles
 SCF Done:  E(RB3LYP) =  -495.843682367     A.U. after   12 cycles
 SCF Done:  E(RB3LYP) =  -495.843934529     A.U. after   12 cycles
 SCF Done:  E(RB3LYP) =  -495.843989916     A.U. after   12 cycles
 SCF Done:  E(RB3LYP) =  -495.844007848     A.U. after   10 cycles
 SCF Done:  E(RB3LYP) =  -495.844013310     A.U. after   10 cycles
 SCF Done:  E(RB3LYP) =  -495.844016141     A.U. after   10 cycles
 SCF Done:  E(RB3LYP) =  -495.844018167     A.U. after   10 cycles
 SCF Done:  E(RB3LYP) =  -495.844018545     A.U. after    8 cycles
 Optimization completed.
    -- Stationary point found.

                         Standard orientation:
 ---------------------------------------------------------------------
 Center     Atomic      Atomic             Coordinates (Angstroms)
 Number     Number       Type             X           Y           Z
 ---------------------------------------------------------------------
      1          1           0        3.467704   -1.439439   -0.893375
      2          6           0        3.005865   -1.094235    0.034065
      3          1           0        3.707767   -0.450385    0.573739
      4          1           0        2.795696   -1.974258    0.653382
      5          6           0        1.694951   -0.400793   -0.297699
      6          8           0        0.973854   -0.764629   -1.220475
      7          7           0        1.375361    0.672406    0.496240
      8          1           0        1.899729    0.765873    1.355566
      9          6           0        0.010315    1.219367    0.513815
     10          1           0       -0.091674    1.738492    1.471702
     11          6           0       -0.186263    2.231073   -0.622635
     12          1           0        0.003888    1.767152   -1.595467
     13          1           0       -1.200952    2.642828   -0.611159
     14          1           0        0.522128    3.057416   -0.507434
     15          6           0       -1.023279    0.064102    0.600591
     16          8           0       -1.038352   -0.647745    1.597835
     17          7           0       -1.925301   -0.048885   -0.414981
     18          1           0       -1.636805    0.326795   -1.307623
     19          6           0       -2.823142   -1.194254   -0.454299
     20          1           0       -3.222686   -1.358661    0.547443
     21          1           0       -3.644702   -0.984791   -1.144722
     22          1           0       -2.305209   -2.108245   -0.772769
 ---------------------------------------------------------------------

 The electronic state is 1-A.
 Alpha  occ. eigenvalues --  -19.11360 -19.10288 -14.36171 -14.35079 -10.28922
 Alpha  occ. eigenvalues --  -10.27684 -10.23771 -10.20819 -10.19264 -10.18564
 Alpha  occ. eigenvalues --   -1.03514  -1.02035  -0.92175  -0.91046  -0.77912
 Alpha  occ. eigenvalues --   -0.72969  -0.69602  -0.64761  -0.58800  -0.56346
 Alpha  occ. eigenvalues --   -0.52519  -0.50292  -0.46129  -0.45585  -0.44068
 Alpha  occ. eigenvalues --   -0.43575  -0.41932  -0.41400  -0.40026  -0.39523
 Alpha  occ. eigenvalues --   -0.38651  -0.38070  -0.37119  -0.35600  -0.34485
 Alpha  occ. eigenvalues --   -0.26655  -0.25565  -0.24706  -0.23261
 Alpha virt. eigenvalues --    0.01621   0.03325   0.07239   0.09359   0.11613
 Alpha virt. eigenvalues --    0.13014   0.14581   0.15257   0.15386   0.16250
 Alpha virt. eigenvalues --    0.17263   0.17668   0.18641   0.18872   0.20050

 Mulliken atomic charges:
              1
     1  H    0.186569
     2  C   -0.545003
     3  H    0.151706
     4  H    0.191127
     5  C    0.602709
     6  O   -0.521489
     7  N   -0.574039
     8  H    0.329558
     9  C   -0.044484
    10  H    0.163698
    11  C   -0.466575
    12  H    0.173256
    13  H    0.155304
    14  H    0.154618
    15  C    0.608568
    16  O   -0.529412
    17  N   -0.575960
    18  H    0.339119
    19  C   -0.305365
    20  H    0.188098
    21  H    0.148002
    22  H    0.169993
 Sum of Mulliken atomic charges =   0.00000

 Dipole moment (field-independent basis, Debye):
    X=              1.1412    Y=              2.0934    Z=             -0.2809  Tot=              2.4008
 Quadrupole moment (field-independent basis, Debye-Ang):
   XX=            -50.8850   YY=            -58.3571   ZZ=            -63.3950
   XY=             -0.0881   XZ=              8.2440   YZ=              1.8501

 Normal termination of Gaussian 09 at Sat Feb 11 02:08:54 2017.
