 Gaussian 09, Revision A.02,
 Gaussian 09:  EM64L-G09RevA.02 11-Jun-2009

 ----------------------------------------------------------------------
 # b3lyp/6-31G* Opt=(ModRedundant, maxcycles=1000, calcfc) geom=nocrowd
 ----------------------------------------------------------------------

 ------------------
 Phi Psi fixed scan
 ------------------
 Symbolic Z-matrix:
 Charge =  0 Multiplicity = 1

 SCF Done:  E(RB3LYP) =  -495.779976562     A.U. after   18 cycles

  Exact polarizability:   0.000   0.000   0.000   0.000   0.000   0.000
 Approx polarizability: 120.391   6.159 108.854  -4.029 -23.876 113.612

 SCF Done:  E(RB3LYP) =  -495.799176743     A.U. after   14 cycles
 SCF Done:  E(RB3LYP) =  -495.814315132     A.U. after   15 cycles
 SCF Done:  E(RB3LYP) =  -495.817823946     A.U. after   14 cycles
 SCF Done:  E(RB3LYP) =  -495.814017603     A.U. after   15 cycles
 SCF Done:  E(RB3LYP) =  -495.819440277     A.U. after   14 cycles
 SCF Done:  E(RB3LYP) =  -495.820812613     A.U. after   12 cycles
 SCF Done:  E(RB3LYP) =  -495.822056068     A.U. after   12 cycles
 SCF Done:  E(RB3LYP) =  -495.822285542     A.U. after   13 cycles
 SCF Done:  E(RB3LYP) =  -495.822046827     A.U. after   13 cycles
 SCF Done:  E(RB3LYP) =  -495.829470311     A.U. after   14 cycles
 SCF Done:  E(RB3LYP) =  -495.830722846     A.U. after   13 cycles
 SCF Done:  E(RB3LYP) =  -495.830946634     A.U. after   12 cycles
 SCF Done:  E(RB3LYP) =  -495.831027120     A.U. after   12 cycles
 SCF Done:  E(RB3LYP) =  -495.831060633     A.U. after   12 cycles
 SCF Done:  E(RB3LYP) =  -495.831073220     A.U. after   10 cycles
 SCF Done:  E(RB3LYP) =  -495.831075117     A.U. after    8 cycles
 SCF Done:  E(RB3LYP) =  -495.831075644     A.U. after    9 cycles
 SCF Done:  E(RB3LYP) =  -495.831075953     A.U. after    9 cycles
 SCF Done:  E(RB3LYP) =  -495.831076005     A.U. after    7 cycles
 Optimization completed.
    -- Stationary point found.

                         Standard orientation:
 ---------------------------------------------------------------------
 Center     Atomic      Atomic             Coordinates (Angstroms)
 Number     Number       Type             X           Y           Z
 ---------------------------------------------------------------------
      1          1           0       -2.315690   -2.187304   -0.798430
      2          6           0       -2.897902   -1.282360   -0.584315
      3          1           0       -3.700923   -1.541395    0.107127
      4          1           0       -3.328657   -0.924804   -1.526998
      5          6           0       -1.999260   -0.242271    0.073716
      6          8           0       -2.017789   -0.026987    1.269902
      7          7           0       -1.230169    0.496968   -0.833230
      8          1           0       -1.302083    0.114252   -1.770279
      9          6           0        0.141275    0.963414   -0.568678
     10          1           0        0.541239    1.253397   -1.546999
     11          6           0        0.122634    2.200404    0.349323
     12          1           0       -0.309559    1.925647    1.313612
     13          1           0        1.137074    2.585076    0.506380
     14          1           0       -0.489268    2.988017   -0.100981
     15          6           0        1.069711   -0.101287    0.066174
     16          8           0        0.741142   -0.838173    0.981223
     17          7           0        2.311685   -0.150269   -0.518141
     18          1           0        2.540259    0.526793   -1.231884
     19          6           0        3.383936   -0.978854    0.006403
     20          1           0        2.939305   -1.665049    0.728462
     21          1           0        3.856204   -1.554218   -0.797414
     22          1           0        4.152302   -0.380296    0.512256
 ---------------------------------------------------------------------

 The electronic state is 1-A.
 Alpha  occ. eigenvalues --  -19.11045 -19.10315 -14.36569 -14.35258 -10.28508
 Alpha  occ. eigenvalues --  -10.28011 -10.24213 -10.21975 -10.18538 -10.17744
 Alpha  occ. eigenvalues --   -1.03390  -1.01910  -0.92222  -0.91461  -0.77673
 Alpha  occ. eigenvalues --   -0.72403  -0.70696  -0.63804  -0.59044  -0.56404
 Alpha  occ. eigenvalues --   -0.52128  -0.49434  -0.46448  -0.45698  -0.44855
 Alpha  occ. eigenvalues --   -0.43772  -0.41844  -0.40799  -0.40390  -0.39094
 Alpha  occ. eigenvalues --   -0.38852  -0.37455  -0.36704  -0.35356  -0.34122
 Alpha  occ. eigenvalues --   -0.27430  -0.25439  -0.24375  -0.22461
 Alpha virt. eigenvalues --    0.01627   0.03889   0.05354   0.08410   0.11823
 Alpha virt. eigenvalues --    0.13109   0.14163   0.15365   0.15876   0.16131
 Alpha virt. eigenvalues --    0.16873   0.17713   0.17952   0.18733   0.20027

 Mulliken atomic charges:
              1
     1  H    0.178198
     2  C   -0.551827
     3  H    0.187326
     4  H    0.154290
     5  C    0.596063
     6  O   -0.466655
     7  N   -0.581351
     8  H    0.312607
     9  C   -0.059306
    10  H    0.124948
    11  C   -0.441092
    12  H    0.209690
    13  H    0.134829
    14  H    0.154311
    15  C    0.607292
    16  O   -0.493940
    17  N   -0.596385
    18  H    0.321927
    19  C   -0.311657
    20  H    0.207175
    21  H    0.155088
    22  H    0.158468
 Sum of Mulliken atomic charges =   0.00000

 Dipole moment (field-independent basis, Debye):
    X=              2.8278    Y=              0.7534    Z=             -5.2891  Tot=              6.0447
 Quadrupole moment (field-independent basis, Debye-Ang):
   XX=            -51.7954   YY=            -58.8075   ZZ=            -61.2583
   XY=              3.3837   XZ=              2.9449   YZ=              1.3681

 Normal termination of Gaussian 09 at Sat Feb 11 02:09:17 2017.
