 Gaussian 09, Revision A.02,
 Gaussian 09:  EM64L-G09RevA.02 11-Jun-2009

 ----------------------------------------------------------------------
 # b3lyp/6-31G* Opt=(ModRedundant, maxcycles=1000, calcfc) geom=nocrowd
 ----------------------------------------------------------------------

 ------------------
 Phi Psi fixed scan
 ------------------
 Symbolic Z-matrix:
 Charge =  0 Multiplicity = 1

 SCF Done:  E(RB3LYP) =  -495.821199359     A.U. after   15 cycles

  Exact polarizability:   0.000   0.000   0.000   0.000   0.000   0.000
 Approx polarizability: 106.342   9.954 113.109   4.936  17.794 117.610

 SCF Done:  E(RB3LYP) =  -495.828933896     A.U. after   14 cycles
 SCF Done:  E(RB3LYP) =  -495.836187275     A.U. after   14 cycles
 SCF Done:  E(RB3LYP) =  -495.838994812     A.U. after   14 cycles
 SCF Done:  E(RB3LYP) =  -495.838160568     A.U. after   13 cycles
 SCF Done:  E(RB3LYP) =  -495.840204685     A.U. after   13 cycles
 SCF Done:  E(RB3LYP) =  -495.841441387     A.U. after   12 cycles
 SCF Done:  E(RB3LYP) =  -495.843258010     A.U. after   13 cycles
 SCF Done:  E(RB3LYP) =  -495.844021181     A.U. after   13 cycles
 SCF Done:  E(RB3LYP) =  -495.844527798     A.U. after   12 cycles
 SCF Done:  E(RB3LYP) =  -495.843555652     A.U. after   12 cycles
 SCF Done:  E(RB3LYP) =  -495.844967423     A.U. after   13 cycles
 SCF Done:  E(RB3LYP) =  -495.845036262     A.U. after   11 cycles
 SCF Done:  E(RB3LYP) =  -495.845043679     A.U. after   10 cycles
 SCF Done:  E(RB3LYP) =  -495.845048819     A.U. after   10 cycles
 SCF Done:  E(RB3LYP) =  -495.845053870     A.U. after   10 cycles
 SCF Done:  E(RB3LYP) =  -495.845056586     A.U. after    9 cycles
 SCF Done:  E(RB3LYP) =  -495.845057664     A.U. after   10 cycles
 SCF Done:  E(RB3LYP) =  -495.845058076     A.U. after    8 cycles
 SCF Done:  E(RB3LYP) =  -495.845058068     A.U. after    7 cycles
 Optimization completed.
    -- Stationary point found.

                         Standard orientation:
 ---------------------------------------------------------------------
 Center     Atomic      Atomic             Coordinates (Angstroms)
 Number     Number       Type             X           Y           Z
 ---------------------------------------------------------------------
      1          1           0        3.611226   -1.451638   -0.367377
      2          6           0        3.038748   -0.995907    0.443547
      3          1           0        3.650740   -0.234044    0.936560
      4          1           0        2.808997   -1.782021    1.172184
      5          6           0        1.736825   -0.451530   -0.123635
      6          8           0        1.120173   -1.051394   -1.002375
      7          7           0        1.331120    0.751167    0.386556
      8          1           0        1.842870    1.077689    1.195076
      9          6           0       -0.032736    1.305599    0.249231
     10          1           0       -0.139124    2.014457    1.073011
     11          6           0       -0.186558    2.050021   -1.084456
     12          1           0       -0.008736    1.383471   -1.932503
     13          1           0       -1.193758    2.468724   -1.177760
     14          1           0        0.539384    2.868187   -1.140066
     15          6           0       -1.157593    0.269672    0.526652
     16          8           0       -1.652614    0.206985    1.647919
     17          7           0       -1.613310   -0.450955   -0.536332
     18          1           0       -0.910562   -0.639068   -1.244836
     19          6           0       -2.617745   -1.482225   -0.318081
     20          1           0       -3.428639   -1.068139    0.283855
     21          1           0       -3.011572   -1.803610   -1.285790
     22          1           0       -2.211610   -2.353995    0.212183
 ---------------------------------------------------------------------

 The electronic state is 1-A.
 Alpha  occ. eigenvalues --  -19.12295 -19.10541 -14.37189 -14.34360 -10.29945
 Alpha  occ. eigenvalues --  -10.27603 -10.23937 -10.20620 -10.20001 -10.18381
 Alpha  occ. eigenvalues --   -1.04144  -1.02187  -0.93009  -0.90615  -0.78237
 Alpha  occ. eigenvalues --   -0.73441  -0.69500  -0.64845  -0.59321  -0.55804
 Alpha  occ. eigenvalues --   -0.52836  -0.50507  -0.46814  -0.45725  -0.44209
 Alpha  occ. eigenvalues --   -0.43898  -0.42002  -0.41257  -0.40927  -0.40223
 Alpha  occ. eigenvalues --   -0.38638  -0.37538  -0.36518  -0.36007  -0.35316
 Alpha  occ. eigenvalues --   -0.27765  -0.26378  -0.24671  -0.23031
 Alpha virt. eigenvalues --    0.01213   0.02382   0.06328   0.10789   0.11364
 Alpha virt. eigenvalues --    0.12996   0.13939   0.15528   0.15675   0.16628
 Alpha virt. eigenvalues --    0.17225   0.17645   0.18257   0.18876   0.20533

 Mulliken atomic charges:
              1
     1  H    0.190411
     2  C   -0.540773
     3  H    0.152703
     4  H    0.189554
     5  C    0.598990
     6  O   -0.525053
     7  N   -0.585903
     8  H    0.331306
     9  C   -0.052010
    10  H    0.167892
    11  C   -0.439856
    12  H    0.167667
    13  H    0.159960
    14  H    0.147706
    15  C    0.580077
    16  O   -0.519203
    17  N   -0.575622
    18  H    0.360768
    19  C   -0.302103
    20  H    0.182872
    21  H    0.150186
    22  H    0.160431
 Sum of Mulliken atomic charges =   0.00000

 Dipole moment (field-independent basis, Debye):
    X=              2.5113    Y=              0.9691    Z=             -0.3227  Tot=              2.7111
 Quadrupole moment (field-independent basis, Debye-Ang):
   XX=            -54.9280   YY=            -56.9476   ZZ=            -64.4443
   XY=              3.1683   XZ=              9.6114   YZ=             -0.4178

 Normal termination of Gaussian 09 at Sat Feb 11 02:09:46 2017.
