 Gaussian 09, Revision A.02,
 Gaussian 09:  EM64L-G09RevA.02 11-Jun-2009

 ----------------------------------------------------------------------
 # b3lyp/6-31G* Opt=(ModRedundant, maxcycles=1000, calcfc) geom=nocrowd
 ----------------------------------------------------------------------

 ------------------
 Phi Psi fixed scan
 ------------------
 Symbolic Z-matrix:
 Charge =  0 Multiplicity = 1

 SCF Done:  E(RB3LYP) =  -495.826547466     A.U. after   15 cycles

  Exact polarizability:   0.000   0.000   0.000   0.000   0.000   0.000
 Approx polarizability: 107.665   9.223 108.026  11.435  10.922 120.678

 SCF Done:  E(RB3LYP) =  -495.832450783     A.U. after   12 cycles
 SCF Done:  E(RB3LYP) =  -495.839660409     A.U. after   13 cycles
 SCF Done:  E(RB3LYP) =  -495.841492867     A.U. after   13 cycles
 SCF Done:  E(RB3LYP) =  -495.842743642     A.U. after   13 cycles
 SCF Done:  E(RB3LYP) =  -495.822479699     A.U. after   14 cycles
 SCF Done:  E(RB3LYP) =  -495.843189698     A.U. after   14 cycles
 SCF Done:  E(RB3LYP) =  -495.843676700     A.U. after   12 cycles
 SCF Done:  E(RB3LYP) =  -495.838446095     A.U. after   13 cycles
 SCF Done:  E(RB3LYP) =  -495.843715914     A.U. after   13 cycles
 SCF Done:  E(RB3LYP) =  -495.844083331     A.U. after   11 cycles
 SCF Done:  E(RB3LYP) =  -495.844091441     A.U. after   10 cycles
 SCF Done:  E(RB3LYP) =  -495.844093939     A.U. after    9 cycles
 SCF Done:  E(RB3LYP) =  -495.844096788     A.U. after   10 cycles
 SCF Done:  E(RB3LYP) =  -495.844098671     A.U. after   10 cycles
 SCF Done:  E(RB3LYP) =  -495.844098922     A.U. after    8 cycles
 SCF Done:  E(RB3LYP) =  -495.844099045     A.U. after    7 cycles
 SCF Done:  E(RB3LYP) =  -495.844099218     A.U. after    7 cycles
 SCF Done:  E(RB3LYP) =  -495.844099386     A.U. after    8 cycles
 SCF Done:  E(RB3LYP) =  -495.844099422     A.U. after    7 cycles
 Optimization completed.
    -- Stationary point found.

                         Standard orientation:
 ---------------------------------------------------------------------
 Center     Atomic      Atomic             Coordinates (Angstroms)
 Number     Number       Type             X           Y           Z
 ---------------------------------------------------------------------
      1          1           0        3.504921   -1.515184   -0.643774
      2          6           0        3.004415   -1.091455    0.229566
      3          1           0        3.680077   -0.392485    0.732709
      4          1           0        2.779848   -1.913786    0.918976
      5          6           0        1.700451   -0.449391   -0.216607
      6          8           0        1.013446   -0.927097   -1.115024
      7          7           0        1.358339    0.705926    0.436450
      8          1           0        1.888587    0.921688    1.269774
      9          6           0        0.000329    1.277875    0.381277
     10          1           0       -0.093787    1.896570    1.277375
     11          6           0       -0.168557    2.163554   -0.860438
     12          1           0        0.025328    1.600486   -1.778057
     13          1           0       -1.180452    2.578289   -0.908598
     14          1           0        0.547205    2.991259   -0.823664
     15          6           0       -1.084781    0.185097    0.581954
     16          8           0       -1.328305   -0.213741    1.715534
     17          7           0       -1.775906   -0.220107   -0.521439
     18          1           0       -1.257433   -0.163675   -1.388803
     19          6           0       -2.713603   -1.328409   -0.406525
     20          1           0       -3.337735   -1.171440    0.474530
     21          1           0       -3.344374   -1.356933   -1.298984
     22          1           0       -2.199866   -2.292441   -0.296000
 ---------------------------------------------------------------------

 The electronic state is 1-A.
 Alpha  occ. eigenvalues --  -19.11768 -19.10513 -14.36667 -14.34754 -10.29402
 Alpha  occ. eigenvalues --  -10.27680 -10.23845 -10.20702 -10.19626 -10.18462
 Alpha  occ. eigenvalues --   -1.03774  -1.02199  -0.92564  -0.90868  -0.78053
 Alpha  occ. eigenvalues --   -0.73191  -0.69534  -0.64802  -0.59062  -0.56051
 Alpha  occ. eigenvalues --   -0.52650  -0.50350  -0.46495  -0.45648  -0.44180
 Alpha  occ. eigenvalues --   -0.43743  -0.41903  -0.41328  -0.40425  -0.39861
 Alpha  occ. eigenvalues --   -0.38689  -0.37792  -0.36841  -0.35745  -0.34992
 Alpha  occ. eigenvalues --   -0.27214  -0.26029  -0.24731  -0.23101
 Alpha virt. eigenvalues --    0.01384   0.02763   0.06832   0.09941   0.11442
 Alpha virt. eigenvalues --    0.13003   0.14194   0.15385   0.15485   0.16381
 Alpha virt. eigenvalues --    0.17303   0.17681   0.18448   0.18899   0.20439

 Mulliken atomic charges:
              1
     1  H    0.188301
     2  C   -0.543382
     3  H    0.152334
     4  H    0.190019
     5  C    0.599481
     6  O   -0.524254
     7  N   -0.580318
     8  H    0.330304
     9  C   -0.047086
    10  H    0.165856
    11  C   -0.451047
    12  H    0.166819
    13  H    0.159322
    14  H    0.150524
    15  C    0.590604
    16  O   -0.521558
    17  N   -0.568474
    18  H    0.346848
    19  C   -0.304592
    20  H    0.185523
    21  H    0.149156
    22  H    0.165618
 Sum of Mulliken atomic charges =   0.00000

 Dipole moment (field-independent basis, Debye):
    X=              1.8745    Y=              1.4984    Z=             -0.4923  Tot=              2.4497
 Quadrupole moment (field-independent basis, Debye-Ang):
   XX=            -52.8043   YY=            -57.4226   ZZ=            -64.3060
   XY=              1.4444   XZ=              8.9207   YZ=              0.9525

 Normal termination of Gaussian 09 at Sat Feb 11 02:23:12 2017.
