 Gaussian 09, Revision A.02,
 Gaussian 09:  EM64L-G09RevA.02 11-Jun-2009

 ----------------------------------------------------------------------
 # b3lyp/6-31G* Opt=(ModRedundant, maxcycles=1000, calcfc) geom=nocrowd
 ----------------------------------------------------------------------

 ------------------
 Phi Psi fixed scan
 ------------------
 Symbolic Z-matrix:
 Charge =  0 Multiplicity = 1

 SCF Done:  E(RB3LYP) =  -495.828243345     A.U. after   15 cycles

  Exact polarizability:   0.000   0.000   0.000   0.000   0.000   0.000
 Approx polarizability: 114.625  -0.902 111.249  17.167   3.687 110.624

 SCF Done:  E(RB3LYP) =  -495.833703536     A.U. after   12 cycles
 SCF Done:  E(RB3LYP) =  -495.840355141     A.U. after   12 cycles
 SCF Done:  E(RB3LYP) =  -495.842719817     A.U. after   13 cycles
 SCF Done:  E(RB3LYP) =  -495.841515239     A.U. after   13 cycles
 SCF Done:  E(RB3LYP) =  -495.842748751     A.U. after   13 cycles
 SCF Done:  E(RB3LYP) =  -495.843197749     A.U. after   12 cycles
 SCF Done:  E(RB3LYP) =  -495.838801479     A.U. after   13 cycles
 SCF Done:  E(RB3LYP) =  -495.843463415     A.U. after   13 cycles
 SCF Done:  E(RB3LYP) =  -495.843728859     A.U. after   12 cycles
 SCF Done:  E(RB3LYP) =  -495.843828398     A.U. after   12 cycles
 SCF Done:  E(RB3LYP) =  -495.843886661     A.U. after   12 cycles
 SCF Done:  E(RB3LYP) =  -495.843903054     A.U. after   10 cycles
 SCF Done:  E(RB3LYP) =  -495.843912008     A.U. after   10 cycles
 SCF Done:  E(RB3LYP) =  -495.843916025     A.U. after   10 cycles
 SCF Done:  E(RB3LYP) =  -495.843918070     A.U. after   10 cycles
 SCF Done:  E(RB3LYP) =  -495.843918258     A.U. after    7 cycles
 SCF Done:  E(RB3LYP) =  -495.843918449     A.U. after    8 cycles
 SCF Done:  E(RB3LYP) =  -495.843918518     A.U. after    8 cycles
 Optimization completed.
    -- Stationary point found.

                         Standard orientation:
 ---------------------------------------------------------------------
 Center     Atomic      Atomic             Coordinates (Angstroms)
 Number     Number       Type             X           Y           Z
 ---------------------------------------------------------------------
      1          1           0        3.488921   -1.355934   -0.988646
      2          6           0        3.032818   -1.048033   -0.045733
      3          1           0        3.740694   -0.434516    0.521144
      4          1           0        2.813006   -1.950748    0.536896
      5          6           0        1.729772   -0.325375   -0.339851
      6          8           0        1.035927   -0.582955   -1.316048
      7          7           0        1.380692    0.655776    0.559591
      8          1           0        1.859490    0.625336    1.450028
      9          6           0       -0.003024    1.143869    0.602530
     10          1           0       -0.140730    1.572336    1.601505
     11          6           0       -0.226498    2.248154   -0.438887
     12          1           0       -0.070620    1.861422   -1.450519
     13          1           0       -1.234709    2.669965   -0.358289
     14          1           0        0.490887    3.058076   -0.275874
     15          6           0       -0.980665   -0.061851    0.556559
     16          8           0       -0.822444   -0.994256    1.334996
     17          7           0       -2.050132    0.036306   -0.282798
     18          1           0       -1.965645    0.669762   -1.064515
     19          6           0       -2.957005   -1.091073   -0.441866
     20          1           0       -3.136660   -1.531517    0.539889
     21          1           0       -3.902683   -0.738412   -0.862730
     22          1           0       -2.536118   -1.866800   -1.094538
 ---------------------------------------------------------------------

 The electronic state is 1-A.
 Alpha  occ. eigenvalues --  -19.11099 -19.10194 -14.35721 -14.35394 -10.28549
 Alpha  occ. eigenvalues --  -10.27753 -10.23737 -10.21038 -10.18929 -10.18595
 Alpha  occ. eigenvalues --   -1.03362  -1.01929  -0.91865  -0.91242  -0.77803
 Alpha  occ. eigenvalues --   -0.72771  -0.69749  -0.64685  -0.58602  -0.56511
 Alpha  occ. eigenvalues --   -0.52417  -0.50244  -0.45836  -0.45562  -0.43996
 Alpha  occ. eigenvalues --   -0.43518  -0.42059  -0.41426  -0.39779  -0.39288
 Alpha  occ. eigenvalues --   -0.38536  -0.38314  -0.37283  -0.35496  -0.34087
 Alpha  occ. eigenvalues --   -0.26300  -0.25173  -0.24701  -0.23554
 Alpha virt. eigenvalues --    0.01870   0.03648   0.07439   0.09087   0.11782
 Alpha virt. eigenvalues --    0.12990   0.14773   0.15152   0.15585   0.16222
 Alpha virt. eigenvalues --    0.17100   0.17797   0.18603   0.18951   0.19736

 Mulliken atomic charges:
              1
     1  H    0.185351
     2  C   -0.547739
     3  H    0.152703
     4  H    0.191963
     5  C    0.604527
     6  O   -0.514610
     7  N   -0.569186
     8  H    0.328386
     9  C   -0.047820
    10  H    0.162709
    11  C   -0.473592
    12  H    0.181289
    13  H    0.147303
    14  H    0.158279
    15  C    0.625553
    16  O   -0.535111
    17  N   -0.590663
    18  H    0.335993
    19  C   -0.304603
    20  H    0.190595
    21  H    0.147945
    22  H    0.170729
 Sum of Mulliken atomic charges =   0.00000

 Dipole moment (field-independent basis, Debye):
    X=              0.3040    Y=              2.4617    Z=              0.3639  Tot=              2.5070
 Quadrupole moment (field-independent basis, Debye-Ang):
   XX=            -49.3395   YY=            -59.4211   ZZ=            -62.4005
   XY=             -1.3264   XZ=              7.6702   YZ=              2.0358

 Normal termination of Gaussian 09 at Sat Feb 11 02:07:15 2017.
