 Gaussian 09, Revision A.02,
 Gaussian 09:  EM64L-G09RevA.02 11-Jun-2009

 ----------------------------------------------------------------------
 # b3lyp/6-31G* Opt=(ModRedundant, maxcycles=1000, calcfc) geom=nocrowd
 ----------------------------------------------------------------------

 ------------------
 Phi Psi fixed scan
 ------------------
 Symbolic Z-matrix:
 Charge =  0 Multiplicity = 1

 SCF Done:  E(RB3LYP) =  -495.811647365     A.U. after   15 cycles

  Exact polarizability:   0.000   0.000   0.000   0.000   0.000   0.000
 Approx polarizability: 121.404   9.556 117.348   7.880 -13.602  98.439

 SCF Done:  E(RB3LYP) =  -495.819752060     A.U. after   13 cycles
 SCF Done:  E(RB3LYP) =  -495.828013393     A.U. after   15 cycles
 SCF Done:  E(RB3LYP) =  -495.830269648     A.U. after   15 cycles
 SCF Done:  E(RB3LYP) =  -495.834823945     A.U. after   13 cycles
 SCF Done:  E(RB3LYP) =  -495.835537222     A.U. after   11 cycles
 SCF Done:  E(RB3LYP) =  -495.836326852     A.U. after   13 cycles
 SCF Done:  E(RB3LYP) =  -495.836293492     A.U. after   12 cycles
 SCF Done:  E(RB3LYP) =  -495.836656434     A.U. after   11 cycles
 SCF Done:  E(RB3LYP) =  -495.834440380     A.U. after   13 cycles
 SCF Done:  E(RB3LYP) =  -495.839043658     A.U. after   11 cycles
 SCF Done:  E(RB3LYP) =  -495.839052359     A.U. after   10 cycles
 SCF Done:  E(RB3LYP) =  -495.839055443     A.U. after   10 cycles
 SCF Done:  E(RB3LYP) =  -495.839056468     A.U. after    9 cycles
 SCF Done:  E(RB3LYP) =  -495.839058209     A.U. after    9 cycles
 SCF Done:  E(RB3LYP) =  -495.839059331     A.U. after    9 cycles
 SCF Done:  E(RB3LYP) =  -495.839059660     A.U. after    8 cycles
 SCF Done:  E(RB3LYP) =  -495.839059820     A.U. after    8 cycles
 SCF Done:  E(RB3LYP) =  -495.839059900     A.U. after    8 cycles
 SCF Done:  E(RB3LYP) =  -495.839059913     A.U. after    6 cycles
 Optimization completed.
    -- Stationary point found.

                         Standard orientation:
 ---------------------------------------------------------------------
 Center     Atomic      Atomic             Coordinates (Angstroms)
 Number     Number       Type             X           Y           Z
 ---------------------------------------------------------------------
      1          1           0       -3.652302   -1.342758    0.584621
      2          6           0       -3.008207   -1.074146   -0.254198
      3          1           0       -3.606909   -0.602107   -1.041374
      4          1           0       -2.561804   -1.989328   -0.660911
      5          6           0       -1.891349   -0.174287    0.244649
      6          8           0       -1.558096   -0.118191    1.416452
      7          7           0       -1.315323    0.638524   -0.731851
      8          1           0       -1.556579    0.339813   -1.670420
      9          6           0        0.095910    1.009673   -0.617853
     10          1           0        0.412409    1.321768   -1.620677
     11          6           0        0.269698    2.201944    0.341780
     12          1           0        0.008621    1.902902    1.358784
     13          1           0        1.292228    2.598355    0.332476
     14          1           0       -0.399264    3.011325    0.035071
     15          6           0        0.972926   -0.220218   -0.242791
     16          8           0        0.527319   -1.359195   -0.228354
     17          7           0        2.307737    0.049154   -0.117951
     18          1           0        2.595990    1.010376   -0.008827
     19          6           0        3.267819   -0.986918    0.229242
     20          1           0        2.863041   -1.942988   -0.104443
     21          1           0        4.219259   -0.796048   -0.276860
     22          1           0        3.443853   -1.042254    1.311414
 ---------------------------------------------------------------------

 The electronic state is 1-A.
 Alpha  occ. eigenvalues --  -19.11187 -19.10217 -14.36266 -14.34858 -10.28445
 Alpha  occ. eigenvalues --  -10.27798 -10.23983 -10.21809 -10.18431 -10.18076
 Alpha  occ. eigenvalues --   -1.03533  -1.01750  -0.92012  -0.91348  -0.77555
 Alpha  occ. eigenvalues --   -0.72232  -0.70347  -0.64298  -0.58684  -0.56340
 Alpha  occ. eigenvalues --   -0.52230  -0.49708  -0.46065  -0.45273  -0.44363
 Alpha  occ. eigenvalues --   -0.43591  -0.42280  -0.41234  -0.39928  -0.39140
 Alpha  occ. eigenvalues --   -0.38676  -0.37700  -0.37492  -0.35314  -0.33620
 Alpha  occ. eigenvalues --   -0.26655  -0.25126  -0.24641  -0.23372
 Alpha virt. eigenvalues --    0.02568   0.03202   0.06152   0.08369   0.11863
 Alpha virt. eigenvalues --    0.13076   0.14785   0.15616   0.16159   0.16584
 Alpha virt. eigenvalues --    0.16987   0.17286   0.18444   0.19284   0.19728

 Mulliken atomic charges:
              1
     1  H    0.182610
     2  C   -0.553783
     3  H    0.151836
     4  H    0.191802
     5  C    0.608746
     6  O   -0.495684
     7  N   -0.568386
     8  H    0.318766
     9  C   -0.076923
    10  H    0.156848
    11  C   -0.449973
    12  H    0.200955
    13  H    0.123298
    14  H    0.161815
    15  C    0.625778
    16  O   -0.517889
    17  N   -0.596659
    18  H    0.326607
    19  C   -0.306402
    20  H    0.200482
    21  H    0.152304
    22  H    0.163852
 Sum of Mulliken atomic charges =   0.00000

 Dipole moment (field-independent basis, Debye):
    X=              2.2071    Y=              2.0802    Z=             -2.9746  Tot=              4.2481
 Quadrupole moment (field-independent basis, Debye-Ang):
   XX=            -48.7857   YY=            -60.4325   ZZ=            -61.1980
   XY=              3.5276   XZ=              5.9497   YZ=             -0.2768

 Normal termination of Gaussian 09 at Sat Feb 11 02:19:51 2017.
