 Gaussian 09, Revision A.02,
 Gaussian 09:  EM64L-G09RevA.02 11-Jun-2009

 ----------------------------------------------------------------------
 # b3lyp/6-31G* Opt=(ModRedundant, maxcycles=1000, calcfc) geom=nocrowd
 ----------------------------------------------------------------------

 ------------------
 Phi Psi fixed scan
 ------------------
 Symbolic Z-matrix:
 Charge =  0 Multiplicity = 1

 SCF Done:  E(RB3LYP) =  -495.821962284     A.U. after   15 cycles

  Exact polarizability:   0.000   0.000   0.000   0.000   0.000   0.000
 Approx polarizability: 115.473   9.381 117.401  13.799  -7.983 105.104

 SCF Done:  E(RB3LYP) =  -495.828885196     A.U. after   12 cycles
 SCF Done:  E(RB3LYP) =  -495.837918367     A.U. after   13 cycles
 SCF Done:  E(RB3LYP) =  -495.841060571     A.U. after   13 cycles
 SCF Done:  E(RB3LYP) =  -495.842066534     A.U. after   12 cycles
 SCF Done:  E(RB3LYP) =  -495.831410030     A.U. after   16 cycles
 SCF Done:  E(RB3LYP) =  -495.842830824     A.U. after   14 cycles
 SCF Done:  E(RB3LYP) =  -495.843256784     A.U. after   13 cycles
 SCF Done:  E(RB3LYP) =  -495.842806710     A.U. after   12 cycles
 SCF Done:  E(RB3LYP) =  -495.843362146     A.U. after   12 cycles
 SCF Done:  E(RB3LYP) =  -495.843584427     A.U. after   12 cycles
 SCF Done:  E(RB3LYP) =  -495.843613394     A.U. after   10 cycles
 SCF Done:  E(RB3LYP) =  -495.843642135     A.U. after   11 cycles
 SCF Done:  E(RB3LYP) =  -495.843649331     A.U. after   10 cycles
 SCF Done:  E(RB3LYP) =  -495.843654152     A.U. after   10 cycles
 SCF Done:  E(RB3LYP) =  -495.843656517     A.U. after   10 cycles
 SCF Done:  E(RB3LYP) =  -495.843659396     A.U. after   10 cycles
 SCF Done:  E(RB3LYP) =  -495.843661231     A.U. after   10 cycles
 SCF Done:  E(RB3LYP) =  -495.843661971     A.U. after   10 cycles
 SCF Done:  E(RB3LYP) =  -495.843662082     A.U. after    7 cycles
 Optimization completed.
    -- Stationary point found.

                         Standard orientation:
 ---------------------------------------------------------------------
 Center     Atomic      Atomic             Coordinates (Angstroms)
 Number     Number       Type             X           Y           Z
 ---------------------------------------------------------------------
      1          1           0       -3.347132   -1.846226   -0.309201
      2          6           0       -3.236721   -0.762881   -0.211180
      3          1           0       -3.864976   -0.445796    0.628003
      4          1           0       -3.600038   -0.280373   -1.123791
      5          6           0       -1.784991   -0.449348    0.124066
      6          8           0       -1.197310   -1.046587    1.025939
      7          7           0       -1.206115    0.518889   -0.638851
      8          1           0       -1.791766    0.938465   -1.347229
      9          6           0        0.103643    1.173165   -0.466403
     10          1           0        0.340412    1.594623   -1.450570
     11          6           0       -0.002537    2.323078    0.549281
     12          1           0       -0.287135    1.929695    1.530527
     13          1           0        0.962548    2.824660    0.638995
     14          1           0       -0.760690    3.046871    0.231222
     15          6           0        1.352694    0.311147   -0.143222
     16          8           0        2.395567    0.905451    0.108316
     17          7           0        1.288153   -1.036990   -0.326734
     18          1           0        0.398379   -1.455983   -0.074760
     19          6           0        2.474863   -1.833807   -0.038550
     20          1           0        3.330759   -1.407525   -0.565091
     21          1           0        2.712599   -1.855931    1.033029
     22          1           0        2.305014   -2.854810   -0.390044
 ---------------------------------------------------------------------

 The electronic state is 1-A.
 Alpha  occ. eigenvalues --  -19.12157 -19.10510 -14.37644 -14.34273 -10.30219
 Alpha  occ. eigenvalues --  -10.27918 -10.24408 -10.20518 -10.20323 -10.17847
 Alpha  occ. eigenvalues --   -1.04259  -1.02395  -0.93465  -0.90482  -0.78296
 Alpha  occ. eigenvalues --   -0.73446  -0.69846  -0.64553  -0.59882  -0.55990
 Alpha  occ. eigenvalues --   -0.53025  -0.50374  -0.46766  -0.46367  -0.44421
 Alpha  occ. eigenvalues --   -0.43859  -0.42256  -0.41414  -0.40998  -0.40003
 Alpha  occ. eigenvalues --   -0.38324  -0.38021  -0.36359  -0.36014  -0.34503
 Alpha  occ. eigenvalues --   -0.27137  -0.26434  -0.24794  -0.23598
 Alpha virt. eigenvalues --    0.01241   0.02584   0.05810   0.11158   0.11658
 Alpha virt. eigenvalues --    0.13426   0.13996   0.15412   0.15916   0.16082
 Alpha virt. eigenvalues --    0.17152   0.17534   0.17990   0.18806   0.20881

 Mulliken atomic charges:
              1
     1  H    0.188746
     2  C   -0.533988
     3  H    0.191152
     4  H    0.146570
     5  C    0.591356
     6  O   -0.528995
     7  N   -0.593807
     8  H    0.329149
     9  C   -0.048936
    10  H    0.172111
    11  C   -0.438390
    12  H    0.168642
    13  H    0.187800
    14  H    0.130949
    15  C    0.610393
    16  O   -0.523603
    17  N   -0.600139
    18  H    0.360360
    19  C   -0.302246
    20  H    0.180801
    21  H    0.164358
    22  H    0.147718
 Sum of Mulliken atomic charges =   0.00000

 Dipole moment (field-independent basis, Debye):
    X=             -3.8141    Y=              0.0084    Z=             -2.6491  Tot=              4.6439
 Quadrupole moment (field-independent basis, Debye-Ang):
   XX=            -59.1537   YY=            -57.3959   ZZ=            -60.5458
   XY=             -7.0303   XZ=              3.1874   YZ=             -0.2210

 Normal termination of Gaussian 09 at Sat Feb 11 02:11:10 2017.
