 Gaussian 09, Revision A.02,
 Gaussian 09:  EM64L-G09RevA.02 11-Jun-2009

 ----------------------------------------------------------------------
 # b3lyp/6-31G* Opt=(ModRedundant, maxcycles=1000, calcfc) geom=nocrowd
 ----------------------------------------------------------------------

 ------------------
 Phi Psi fixed scan
 ------------------
 Symbolic Z-matrix:
 Charge =  0 Multiplicity = 1

 SCF Done:  E(RB3LYP) =  -495.828121437     A.U. after   15 cycles

  Exact polarizability:   0.000   0.000   0.000   0.000   0.000   0.000
 Approx polarizability: 101.527  -1.303 100.155   6.165   4.153 134.153

 SCF Done:  E(RB3LYP) =  -495.832576686     A.U. after   12 cycles
 SCF Done:  E(RB3LYP) =  -495.837482573     A.U. after   13 cycles
 SCF Done:  E(RB3LYP) =  -495.838623845     A.U. after   13 cycles
 SCF Done:  E(RB3LYP) =  -495.836190230     A.U. after   14 cycles
 SCF Done:  E(RB3LYP) =  -495.838685836     A.U. after   14 cycles
 SCF Done:  E(RB3LYP) =  -495.839002859     A.U. after   12 cycles
 SCF Done:  E(RB3LYP) =  -495.837653329     A.U. after   13 cycles
 SCF Done:  E(RB3LYP) =  -495.839193289     A.U. after   13 cycles
 SCF Done:  E(RB3LYP) =  -495.839347562     A.U. after   13 cycles
 SCF Done:  E(RB3LYP) =  -495.839373976     A.U. after   12 cycles
 SCF Done:  E(RB3LYP) =  -495.839386347     A.U. after   11 cycles
 SCF Done:  E(RB3LYP) =  -495.839400160     A.U. after   11 cycles
 SCF Done:  E(RB3LYP) =  -495.839406299     A.U. after   10 cycles
 SCF Done:  E(RB3LYP) =  -495.839409880     A.U. after   10 cycles
 SCF Done:  E(RB3LYP) =  -495.839411836     A.U. after   11 cycles
 SCF Done:  E(RB3LYP) =  -495.839413471     A.U. after   10 cycles
 SCF Done:  E(RB3LYP) =  -495.839415072     A.U. after   10 cycles
 SCF Done:  E(RB3LYP) =  -495.839415602     A.U. after    8 cycles
 Optimization completed.
    -- Stationary point found.

                         Standard orientation:
 ---------------------------------------------------------------------
 Center     Atomic      Atomic             Coordinates (Angstroms)
 Number     Number       Type             X           Y           Z
 ---------------------------------------------------------------------
      1          1           0       -3.175748   -2.131250    0.264022
      2          6           0       -3.100416   -1.110793   -0.117833
      3          1           0       -3.832454   -0.498846    0.422075
      4          1           0       -3.359336   -1.101267   -1.181816
      5          6           0       -1.699543   -0.585019    0.172464
      6          8           0       -1.094153   -0.873190    1.193009
      7          7           0       -1.172535    0.223424   -0.807929
      8          1           0       -1.800761    0.503378   -1.549854
      9          6           0        0.017218    1.074488   -0.642298
     10          1           0        0.360599    1.304794   -1.657898
     11          6           0       -0.308699    2.372087    0.101380
     12          1           0       -0.601562    2.145701    1.129076
     13          1           0        0.567997    3.025418    0.138298
     14          1           0       -1.123383    2.904879   -0.402189
     15          6           0        1.180182    0.332014    0.070369
     16          8           0        1.597790    0.667563    1.165210
     17          7           0        1.825580   -0.574594   -0.733734
     18          1           0        1.293578   -0.937698   -1.515077
     19          6           0        2.857982   -1.441703   -0.184268
     20          1           0        3.437376   -0.861521    0.535053
     21          1           0        2.438383   -2.313486    0.335089
     22          1           0        3.514559   -1.783324   -0.989775
 ---------------------------------------------------------------------

 The electronic state is 1-A.
 Alpha  occ. eigenvalues --  -19.11122 -19.10329 -14.36648 -14.35282 -10.29016
 Alpha  occ. eigenvalues --  -10.27820 -10.23869 -10.20954 -10.19576 -10.17528
 Alpha  occ. eigenvalues --   -1.03404  -1.02153  -0.92684  -0.90906  -0.77733
 Alpha  occ. eigenvalues --   -0.72846  -0.70325  -0.63792  -0.59421  -0.56512
 Alpha  occ. eigenvalues --   -0.51994  -0.49570  -0.46420  -0.46075  -0.44648
 Alpha  occ. eigenvalues --   -0.43685  -0.41615  -0.41361  -0.39990  -0.39859
 Alpha  occ. eigenvalues --   -0.38295  -0.37033  -0.36380  -0.35610  -0.35174
 Alpha  occ. eigenvalues --   -0.26447  -0.24732  -0.24537  -0.23839
 Alpha virt. eigenvalues --    0.02300   0.02614   0.06635   0.09236   0.11699
 Alpha virt. eigenvalues --    0.12974   0.13673   0.14851   0.15642   0.16284
 Alpha virt. eigenvalues --    0.17092   0.17985   0.18062   0.18409   0.19971

 Mulliken atomic charges:
              1
     1  H    0.189301
     2  C   -0.543139
     3  H    0.184858
     4  H    0.146099
     5  C    0.588571
     6  O   -0.485681
     7  N   -0.600664
     8  H    0.320213
     9  C   -0.065757
    10  H    0.148842
    11  C   -0.431686
    12  H    0.191283
    13  H    0.161009
    14  H    0.124323
    15  C    0.639022
    16  O   -0.504920
    17  N   -0.585133
    18  H    0.320879
    19  C   -0.306661
    20  H    0.196195
    21  H    0.165358
    22  H    0.147686
 Sum of Mulliken atomic charges =   0.00000

 Dipole moment (field-independent basis, Debye):
    X=             -2.0977    Y=             -0.3172    Z=             -5.3293  Tot=              5.7361
 Quadrupole moment (field-independent basis, Debye-Ang):
   XX=            -52.9056   YY=            -57.4487   ZZ=            -62.2066
   XY=             -4.4654   XZ=             -0.2019   YZ=              0.4601

 Normal termination of Gaussian 09 at Sat Feb 11 02:20:29 2017.
