 Gaussian 09, Revision A.02,
 Gaussian 09:  EM64L-G09RevA.02 11-Jun-2009

 ----------------------------------------------------------------------
 # b3lyp/6-31G* Opt=(ModRedundant, maxcycles=1000, calcfc) geom=nocrowd
 ----------------------------------------------------------------------

 ------------------
 Phi Psi fixed scan
 ------------------
 Symbolic Z-matrix:
 Charge =  0 Multiplicity = 1

 SCF Done:  E(RB3LYP) =  -495.741974327     A.U. after   15 cycles

  Exact polarizability:   0.000   0.000   0.000   0.000   0.000   0.000
 Approx polarizability: 129.888   8.647 123.516   2.156 -16.794  96.958

 SCF Done:  E(RB3LYP) =  -495.766223167     A.U. after   12 cycles
 SCF Done:  E(RB3LYP) =  -495.794961397     A.U. after   14 cycles
 SCF Done:  E(RB3LYP) =  -495.820229755     A.U. after   14 cycles
 SCF Done:  E(RB3LYP) =  -495.829948891     A.U. after   15 cycles
 SCF Done:  E(RB3LYP) =  -495.825729970     A.U. after   15 cycles
 SCF Done:  E(RB3LYP) =  -495.836176537     A.U. after   13 cycles
 SCF Done:  E(RB3LYP) =  -495.840872829     A.U. after   14 cycles
 SCF Done:  E(RB3LYP) =  -495.843173849     A.U. after   12 cycles
 SCF Done:  E(RB3LYP) =  -495.844277797     A.U. after   14 cycles
 SCF Done:  E(RB3LYP) =  -495.845983126     A.U. after   11 cycles
 SCF Done:  E(RB3LYP) =  -495.845991565     A.U. after   11 cycles
 SCF Done:  E(RB3LYP) =  -495.846000336     A.U. after   10 cycles
 SCF Done:  E(RB3LYP) =  -495.846003182     A.U. after    9 cycles
 SCF Done:  E(RB3LYP) =  -495.846006594     A.U. after   10 cycles
 SCF Done:  E(RB3LYP) =  -495.846008746     A.U. after   10 cycles
 SCF Done:  E(RB3LYP) =  -495.846010442     A.U. after   10 cycles
 SCF Done:  E(RB3LYP) =  -495.846011174     A.U. after    8 cycles
 SCF Done:  E(RB3LYP) =  -495.846011453     A.U. after    7 cycles
 SCF Done:  E(RB3LYP) =  -495.846011587     A.U. after    7 cycles
 Optimization completed.
    -- Stationary point found.

                         Standard orientation:
 ---------------------------------------------------------------------
 Center     Atomic      Atomic             Coordinates (Angstroms)
 Number     Number       Type             X           Y           Z
 ---------------------------------------------------------------------
      1          1           0       -3.321384   -1.659207   -0.819103
      2          6           0       -3.266979   -0.649501   -0.400229
      3          1           0       -3.925486   -0.624383    0.473107
      4          1           0       -3.634734    0.064151   -1.143710
      5          6           0       -1.840397   -0.392159    0.064396
      6          8           0       -1.330933   -1.105112    0.932846
      7          7           0       -1.218382    0.661500   -0.527095
      8          1           0       -1.750871    1.127767   -1.247801
      9          6           0        0.140810    1.216131   -0.341143
     10          1           0        0.327010    1.809298   -1.240194
     11          6           0        0.164754    2.157979    0.879602
     12          1           0       -0.052962    1.595227    1.793255
     13          1           0        1.153180    2.614792    0.969725
     14          1           0       -0.587414    2.946555    0.771505
     15          6           0        1.387047    0.294020   -0.268033
     16          8           0        2.475246    0.841385   -0.433937
     17          7           0        1.237146   -1.034430   -0.069809
     18          1           0        0.355453   -1.343739    0.339467
     19          6           0        2.414026   -1.878662    0.066553
     20          1           0        3.125341   -1.642602   -0.727837
     21          1           0        2.921835   -1.729589    1.028668
     22          1           0        2.108616   -2.924784   -0.016903
 ---------------------------------------------------------------------

 The electronic state is 1-A.
 Alpha  occ. eigenvalues --  -19.12554 -19.09888 -14.37923 -14.34015 -10.30552
 Alpha  occ. eigenvalues --  -10.27579 -10.24398 -10.20537 -10.20435 -10.18236
 Alpha  occ. eigenvalues --   -1.04481  -1.01897  -0.93641  -0.90303  -0.78483
 Alpha  occ. eigenvalues --   -0.73625  -0.69816  -0.64867  -0.59837  -0.56127
 Alpha  occ. eigenvalues --   -0.53331  -0.50651  -0.46753  -0.46224  -0.44245
 Alpha  occ. eigenvalues --   -0.43811  -0.42531  -0.41413  -0.41223  -0.40388
 Alpha  occ. eigenvalues --   -0.38498  -0.38050  -0.36330  -0.36234  -0.34168
 Alpha  occ. eigenvalues --   -0.27460  -0.26629  -0.24316  -0.23338
 Alpha virt. eigenvalues --    0.01036   0.03372   0.05273   0.11167   0.12046
 Alpha virt. eigenvalues --    0.13076   0.13960   0.16103   0.16350   0.16539
 Alpha virt. eigenvalues --    0.17046   0.17256   0.17958   0.18899   0.20481

 Mulliken atomic charges:
              1
     1  H    0.189901
     2  C   -0.532077
     3  H    0.192794
     4  H    0.146556
     5  C    0.603508
     6  O   -0.535528
     7  N   -0.595265
     8  H    0.332623
     9  C   -0.046319
    10  H    0.170253
    11  C   -0.441824
    12  H    0.168776
    13  H    0.183215
    14  H    0.140173
    15  C    0.595841
    16  O   -0.532024
    17  N   -0.615947
    18  H    0.382415
    19  C   -0.298988
    20  H    0.180728
    21  H    0.161398
    22  H    0.149791
 Sum of Mulliken atomic charges =   0.00000

 Dipole moment (field-independent basis, Debye):
    X=             -3.8965    Y=              0.2979    Z=             -1.5877  Tot=              4.2181
 Quadrupole moment (field-independent basis, Debye-Ang):
   XX=            -60.9261   YY=            -57.3856   ZZ=            -60.0095
   XY=             -7.7476   XZ=              6.3905   YZ=              0.6969

 Normal termination of Gaussian 09 at Sat Feb 11 02:21:49 2017.
