 Gaussian 09, Revision A.02,
 Gaussian 09:  EM64L-G09RevA.02 11-Jun-2009

 ----------------------------------------------------------------------
 # b3lyp/6-31G* Opt=(ModRedundant, maxcycles=1000, calcfc) geom=nocrowd
 ----------------------------------------------------------------------

 ------------------
 Phi Psi fixed scan
 ------------------
 Symbolic Z-matrix:
 Charge =  0 Multiplicity = 1

 SCF Done:  E(RB3LYP) =  -495.687199230     A.U. after   16 cycles

  Exact polarizability:   0.000   0.000   0.000   0.000   0.000   0.000
 Approx polarizability: 130.883   2.802 125.981  -4.413 -21.906  98.993

 SCF Done:  E(RB3LYP) =  -495.728321338     A.U. after   13 cycles
 SCF Done:  E(RB3LYP) =  -495.783262768     A.U. after   13 cycles
 SCF Done:  E(RB3LYP) =  -495.820660998     A.U. after   13 cycles
 SCF Done:  E(RB3LYP) =  -495.826396642     A.U. after   13 cycles
 SCF Done:  E(RB3LYP) =  -495.828472489     A.U. after   13 cycles
 SCF Done:  E(RB3LYP) =  -495.834962485     A.U. after   13 cycles
 SCF Done:  E(RB3LYP) =  -495.701435086     A.U. after   15 cycles
 SCF Done:  E(RB3LYP) =  -495.841335189     A.U. after   15 cycles
 SCF Done:  E(RB3LYP) =  -495.843656748     A.U. after   12 cycles
 SCF Done:  E(RB3LYP) =  -495.846781068     A.U. after   10 cycles
 SCF Done:  E(RB3LYP) =  -495.846786629     A.U. after   10 cycles
 SCF Done:  E(RB3LYP) =  -495.846794768     A.U. after   11 cycles
 SCF Done:  E(RB3LYP) =  -495.846798338     A.U. after   10 cycles
 SCF Done:  E(RB3LYP) =  -495.846799380     A.U. after   10 cycles
 SCF Done:  E(RB3LYP) =  -495.846800310     A.U. after    7 cycles
 SCF Done:  E(RB3LYP) =  -495.846800579     A.U. after    7 cycles
 SCF Done:  E(RB3LYP) =  -495.846801159     A.U. after    7 cycles
 SCF Done:  E(RB3LYP) =  -495.846801372     A.U. after    7 cycles
 SCF Done:  E(RB3LYP) =  -495.846801404     A.U. after    6 cycles
 Optimization completed.
    -- Stationary point found.

                         Standard orientation:
 ---------------------------------------------------------------------
 Center     Atomic      Atomic             Coordinates (Angstroms)
 Number     Number       Type             X           Y           Z
 ---------------------------------------------------------------------
      1          1           0       -3.167580   -1.566029   -1.167780
      2          6           0       -3.223600   -0.664925   -0.547661
      3          1           0       -3.907246   -0.879282    0.278067
      4          1           0       -3.632978    0.152006   -1.149690
      5          6           0       -1.843484   -0.383095    0.028992
      6          8           0       -1.355798   -1.143544    0.868958
      7          7           0       -1.247713    0.754170   -0.422187
      8          1           0       -1.748196    1.230607   -1.159298
      9          6           0        0.130002    1.261628   -0.220914
     10          1           0        0.284402    1.988080   -1.020254
     11          6           0        0.238271    1.981520    1.137848
     12          1           0        0.051231    1.279662    1.956068
     13          1           0        1.241173    2.403112    1.256705
     14          1           0       -0.494881    2.792519    1.201640
     15          6           0        1.344084    0.306629   -0.373270
     16          8           0        2.341847    0.747416   -0.942604
     17          7           0        1.292114   -0.915538    0.193317
     18          1           0        0.427506   -1.204672    0.649891
     19          6           0        2.442450   -1.800888    0.137717
     20          1           0        2.790552   -1.918474   -0.893584
     21          1           0        3.278581   -1.407953    0.728301
     22          1           0        2.151893   -2.776185    0.534927
 ---------------------------------------------------------------------

 The electronic state is 1-A.
 Alpha  occ. eigenvalues --  -19.12750 -19.09693 -14.37893 -14.33928 -10.30596
 Alpha  occ. eigenvalues --  -10.27299 -10.24231 -10.20623 -10.20426 -10.18499
 Alpha  occ. eigenvalues --   -1.04539  -1.01643  -0.93609  -0.90196  -0.78551
 Alpha  occ. eigenvalues --   -0.73714  -0.69755  -0.65012  -0.59697  -0.56203
 Alpha  occ. eigenvalues --   -0.53359  -0.50739  -0.46840  -0.46009  -0.44279
 Alpha  occ. eigenvalues --   -0.43619  -0.42463  -0.41503  -0.41278  -0.40601
 Alpha  occ. eigenvalues --   -0.38710  -0.37698  -0.36685  -0.36137  -0.34388
 Alpha  occ. eigenvalues --   -0.27933  -0.26552  -0.23760  -0.23223
 Alpha virt. eigenvalues --    0.00983   0.03733   0.05167   0.11123   0.11888
 Alpha virt. eigenvalues --    0.12919   0.13804   0.15509   0.16289   0.16792
 Alpha virt. eigenvalues --    0.16966   0.17692   0.17842   0.18804   0.19868

 Mulliken atomic charges:
              1
     1  H    0.189996
     2  C   -0.533549
     3  H    0.192977
     4  H    0.148678
     5  C    0.605437
     6  O   -0.533198
     7  N   -0.595289
     8  H    0.333439
     9  C   -0.051364
    10  H    0.168972
    11  C   -0.443278
    12  H    0.172070
    13  H    0.172223
    14  H    0.147503
    15  C    0.586009
    16  O   -0.531142
    17  N   -0.611325
    18  H    0.386962
    19  C   -0.293306
    20  H    0.171973
    21  H    0.166007
    22  H    0.150206
 Sum of Mulliken atomic charges =   0.00000

 Dipole moment (field-independent basis, Debye):
    X=             -3.6781    Y=              0.4493    Z=             -0.6485  Tot=              3.7617
 Quadrupole moment (field-independent basis, Debye-Ang):
   XX=            -60.4163   YY=            -57.1548   ZZ=            -61.0217
   XY=             -7.2514   XZ=              9.0663   YZ=              1.6075

 Normal termination of Gaussian 09 at Sat Feb 11 02:20:51 2017.
