 Gaussian 09, Revision A.02,
 Gaussian 09:  EM64L-G09RevA.02 11-Jun-2009

 ----------------------------------------------------------------------
 # b3lyp/6-31G* Opt=(ModRedundant, maxcycles=1000, calcfc) geom=nocrowd
 ----------------------------------------------------------------------

 ------------------
 Phi Psi fixed scan
 ------------------
 Symbolic Z-matrix:
 Charge =  0 Multiplicity = 1

 SCF Done:  E(RB3LYP) =  -495.820448960     A.U. after   15 cycles

  Exact polarizability:   0.000   0.000   0.000   0.000   0.000   0.000
 Approx polarizability: 103.831  -2.823  95.341   0.376  -2.459 137.252

 SCF Done:  E(RB3LYP) =  -495.826389333     A.U. after   14 cycles
 SCF Done:  E(RB3LYP) =  -495.831904764     A.U. after   15 cycles
 SCF Done:  E(RB3LYP) =  -495.833934464     A.U. after   14 cycles
 SCF Done:  E(RB3LYP) =  -495.830766665     A.U. after   14 cycles
 SCF Done:  E(RB3LYP) =  -495.834070438     A.U. after   14 cycles
 SCF Done:  E(RB3LYP) =  -495.834342205     A.U. after   11 cycles
 SCF Done:  E(RB3LYP) =  -495.834764616     A.U. after   12 cycles
 SCF Done:  E(RB3LYP) =  -495.834940777     A.U. after   12 cycles
 SCF Done:  E(RB3LYP) =  -495.833543057     A.U. after   13 cycles
 SCF Done:  E(RB3LYP) =  -495.835125871     A.U. after   12 cycles
 SCF Done:  E(RB3LYP) =  -495.835219342     A.U. after   12 cycles
 SCF Done:  E(RB3LYP) =  -495.835265372     A.U. after   12 cycles
 SCF Done:  E(RB3LYP) =  -495.835268366     A.U. after   11 cycles
 SCF Done:  E(RB3LYP) =  -495.835269523     A.U. after    9 cycles
 SCF Done:  E(RB3LYP) =  -495.835269758     A.U. after    8 cycles
 SCF Done:  E(RB3LYP) =  -495.835269812     A.U. after    8 cycles
 SCF Done:  E(RB3LYP) =  -495.835269815     A.U. after    7 cycles
 SCF Done:  E(RB3LYP) =  -495.835269818     A.U. after    6 cycles
 SCF Done:  E(RB3LYP) =  -495.835269838     A.U. after    6 cycles
 Optimization completed.
    -- Stationary point found.

                         Standard orientation:
 ---------------------------------------------------------------------
 Center     Atomic      Atomic             Coordinates (Angstroms)
 Number     Number       Type             X           Y           Z
 ---------------------------------------------------------------------
      1          1           0       -3.355087   -2.037387    0.093471
      2          6           0       -3.205272   -1.016358   -0.264012
      3          1           0       -3.941461   -0.377003    0.237140
      4          1           0       -3.392396   -0.979333   -1.342503
      5          6           0       -1.800801   -0.567063    0.130486
      6          8           0       -1.283682   -0.906419    1.181386
      7          7           0       -1.182503    0.237434   -0.799674
      8          1           0       -1.752348    0.537717   -1.579180
      9          6           0        0.044706    1.025566   -0.601993
     10          1           0        0.402951    1.264172   -1.610197
     11          6           0       -0.235090    2.323491    0.164004
     12          1           0       -0.533959    2.084317    1.186929
     13          1           0        0.663246    2.947795    0.210423
     14          1           0       -1.031657    2.892632   -0.328155
     15          6           0        1.177378    0.243905    0.120501
     16          8           0        1.418297    0.373587    1.307610
     17          7           0        2.011196   -0.429589   -0.738793
     18          1           0        1.646136   -0.649568   -1.656529
     19          6           0        3.077225   -1.279049   -0.229074
     20          1           0        3.471159   -0.815420    0.676266
     21          1           0        2.723837   -2.286993    0.026055
     22          1           0        3.872934   -1.356138   -0.975891
 ---------------------------------------------------------------------

 The electronic state is 1-A.
 Alpha  occ. eigenvalues --  -19.10505 -19.10459 -14.36299 -14.35745 -10.28561
 Alpha  occ. eigenvalues --  -10.27986 -10.24019 -10.21264 -10.19188 -10.17600
 Alpha  occ. eigenvalues --   -1.03036  -1.02137  -0.92397  -0.91189  -0.77689
 Alpha  occ. eigenvalues --   -0.72587  -0.70511  -0.63835  -0.59328  -0.56790
 Alpha  occ. eigenvalues --   -0.51925  -0.49341  -0.46438  -0.45821  -0.44533
 Alpha  occ. eigenvalues --   -0.43858  -0.41487  -0.41457  -0.40013  -0.39436
 Alpha  occ. eigenvalues --   -0.38553  -0.37158  -0.36293  -0.35493  -0.35003
 Alpha  occ. eigenvalues --   -0.26278  -0.24753  -0.24126  -0.23676
 Alpha virt. eigenvalues --    0.02158   0.03109   0.06289   0.08700   0.11959
 Alpha virt. eigenvalues --    0.12747   0.13826   0.15117   0.15671   0.16519
 Alpha virt. eigenvalues --    0.17003   0.17709   0.18407   0.18474   0.19684

 Mulliken atomic charges:
              1
     1  H    0.188370
     2  C   -0.542780
     3  H    0.182684
     4  H    0.143596
     5  C    0.586494
     6  O   -0.481711
     7  N   -0.600577
     8  H    0.319041
     9  C   -0.058752
    10  H    0.139533
    11  C   -0.435915
    12  H    0.198119
    13  H    0.155048
    14  H    0.127082
    15  C    0.639346
    16  O   -0.495565
    17  N   -0.589940
    18  H    0.320484
    19  C   -0.306752
    20  H    0.199154
    21  H    0.163632
    22  H    0.149411
 Sum of Mulliken atomic charges =   0.00000

 Dipole moment (field-independent basis, Debye):
    X=             -1.0399    Y=              0.3883    Z=             -5.7854  Tot=              5.8909
 Quadrupole moment (field-independent basis, Debye-Ang):
   XX=            -51.3407   YY=            -57.9941   ZZ=            -62.0817
   XY=             -4.2462   XZ=             -0.2107   YZ=              1.2048

 Normal termination of Gaussian 09 at Sat Feb 11 02:21:18 2017.
