 Gaussian 09, Revision A.02,
 Gaussian 09:  EM64L-G09RevA.02 11-Jun-2009

 ----------------------------------------------------------------------
 # b3lyp/6-31G* Opt=(ModRedundant, maxcycles=1000, calcfc) geom=nocrowd
 ----------------------------------------------------------------------

 ------------------
 Phi Psi fixed scan
 ------------------
 Symbolic Z-matrix:
 Charge =  0 Multiplicity = 1

 SCF Done:  E(RB3LYP) =  -495.833231811     A.U. after   15 cycles

  Exact polarizability:   0.000   0.000   0.000   0.000   0.000   0.000
 Approx polarizability: 110.153   8.141 114.509  15.916  -2.225 111.812

 SCF Done:  E(RB3LYP) =  -495.837298881     A.U. after   12 cycles
 SCF Done:  E(RB3LYP) =  -495.841748477     A.U. after   12 cycles
 SCF Done:  E(RB3LYP) =  -495.842608796     A.U. after   14 cycles
 SCF Done:  E(RB3LYP) =  -495.840679534     A.U. after   12 cycles
 SCF Done:  E(RB3LYP) =  -495.842662002     A.U. after   12 cycles
 SCF Done:  E(RB3LYP) =  -495.842800166     A.U. after   12 cycles
 SCF Done:  E(RB3LYP) =  -495.841286572     A.U. after   13 cycles
 SCF Done:  E(RB3LYP) =  -495.842914194     A.U. after   12 cycles
 SCF Done:  E(RB3LYP) =  -495.843008013     A.U. after   12 cycles
 SCF Done:  E(RB3LYP) =  -495.843055145     A.U. after   12 cycles
 SCF Done:  E(RB3LYP) =  -495.843071222     A.U. after   11 cycles
 SCF Done:  E(RB3LYP) =  -495.843081198     A.U. after   11 cycles
 SCF Done:  E(RB3LYP) =  -495.843083892     A.U. after   10 cycles
 SCF Done:  E(RB3LYP) =  -495.843085622     A.U. after   10 cycles
 SCF Done:  E(RB3LYP) =  -495.843087547     A.U. after   10 cycles
 SCF Done:  E(RB3LYP) =  -495.843089030     A.U. after   10 cycles
 SCF Done:  E(RB3LYP) =  -495.843089492     A.U. after   10 cycles
 SCF Done:  E(RB3LYP) =  -495.843089538     A.U. after    7 cycles
 Optimization completed.
    -- Stationary point found.

                         Standard orientation:
 ---------------------------------------------------------------------
 Center     Atomic      Atomic             Coordinates (Angstroms)
 Number     Number       Type             X           Y           Z
 ---------------------------------------------------------------------
      1          1           0       -3.127721   -2.014350    0.043171
      2          6           0       -3.098335   -0.936336   -0.134517
      3          1           0       -3.814365   -0.472240    0.552655
      4          1           0       -3.417792   -0.730934   -1.161325
      5          6           0       -1.701086   -0.424728    0.193549
      6          8           0       -1.097512   -0.787795    1.196077
      7          7           0       -1.187785    0.480609   -0.697546
      8          1           0       -1.763748    0.741945   -1.484858
      9          6           0        0.097722    1.180856   -0.564667
     10          1           0        0.344713    1.527602   -1.576426
     11          6           0       -0.027317    2.398181    0.361763
     12          1           0       -0.307588    2.072413    1.367632
     13          1           0        0.928050    2.921784    0.423506
     14          1           0       -0.795249    3.082243   -0.015088
     15          6           0        1.309480    0.313337   -0.134723
     16          8           0        2.272780    0.849323    0.397827
     17          7           0        1.297975   -0.997701   -0.507599
     18          1           0        0.396833   -1.407846   -0.699120
     19          6           0        2.342151   -1.900555   -0.048163
     20          1           0        3.283908   -1.351362   -0.021175
     21          1           0        2.133960   -2.285016    0.958925
     22          1           0        2.429832   -2.741364   -0.742568
 ---------------------------------------------------------------------

 The electronic state is 1-A.
 Alpha  occ. eigenvalues --  -19.11722 -19.10375 -14.37317 -14.34908 -10.29708
 Alpha  occ. eigenvalues --  -10.27927 -10.24129 -10.20739 -10.20168 -10.17327
 Alpha  occ. eigenvalues --   -1.03937  -1.02299  -0.93188  -0.90785  -0.77994
 Alpha  occ. eigenvalues --   -0.73209  -0.70163  -0.64142  -0.59667  -0.56752
 Alpha  occ. eigenvalues --   -0.52925  -0.50092  -0.46825  -0.46043  -0.44676
 Alpha  occ. eigenvalues --   -0.43784  -0.41943  -0.41403  -0.40505  -0.39754
 Alpha  occ. eigenvalues --   -0.38313  -0.37588  -0.36302  -0.35983  -0.34720
 Alpha  occ. eigenvalues --   -0.26989  -0.25859  -0.24591  -0.23474
 Alpha virt. eigenvalues --    0.01752   0.02785   0.06090   0.10383   0.11222
 Alpha virt. eigenvalues --    0.13455   0.13949   0.14970   0.15580   0.16177
 Alpha virt. eigenvalues --    0.17319   0.17697   0.17899   0.18573   0.19848

 Mulliken atomic charges:
              1
     1  H    0.186763
     2  C   -0.537847
     3  H    0.190818
     4  H    0.144972
     5  C    0.573830
     6  O   -0.504311
     7  N   -0.605893
     8  H    0.326940
     9  C   -0.052857
    10  H    0.164595
    11  C   -0.431798
    12  H    0.175991
    13  H    0.181277
    14  H    0.127579
    15  C    0.631551
    16  O   -0.525470
    17  N   -0.578683
    18  H    0.331656
    19  C   -0.307820
    20  H    0.192633
    21  H    0.169316
    22  H    0.146759
 Sum of Mulliken atomic charges =   0.00000

 Dipole moment (field-independent basis, Debye):
    X=             -3.6234    Y=             -0.7471    Z=             -3.8560  Tot=              5.3438
 Quadrupole moment (field-independent basis, Debye-Ang):
   XX=            -58.8856   YY=            -56.3093   ZZ=            -61.0571
   XY=             -5.4599   XZ=              2.1212   YZ=             -0.1818

 Normal termination of Gaussian 09 at Sat Feb 11 02:16:42 2017.
