 Gaussian 09, Revision A.02,
 Gaussian 09:  EM64L-G09RevA.02 11-Jun-2009

 ----------------------------------------------------------------------
 # b3lyp/6-31G* Opt=(ModRedundant, maxcycles=1000, calcfc) geom=nocrowd
 ----------------------------------------------------------------------

 ------------------
 Phi Psi fixed scan
 ------------------
 Symbolic Z-matrix:
 Charge =  0 Multiplicity = 1

 SCF Done:  E(RB3LYP) =  -495.821568231     A.U. after   15 cycles

  Exact polarizability:   0.000   0.000   0.000   0.000   0.000   0.000
 Approx polarizability: 120.093   7.831 116.392  12.018  -9.252  99.736

 SCF Done:  E(RB3LYP) =  -495.827009566     A.U. after   12 cycles
 SCF Done:  E(RB3LYP) =  -495.834549217     A.U. after   12 cycles
 SCF Done:  E(RB3LYP) =  -495.837980221     A.U. after   14 cycles
 SCF Done:  E(RB3LYP) =  -495.838945598     A.U. after   12 cycles
 SCF Done:  E(RB3LYP) =  -495.834163454     A.U. after   13 cycles
 SCF Done:  E(RB3LYP) =  -495.839846167     A.U. after   13 cycles
 SCF Done:  E(RB3LYP) =  -495.840356271     A.U. after   12 cycles
 SCF Done:  E(RB3LYP) =  -495.838132114     A.U. after   14 cycles
 SCF Done:  E(RB3LYP) =  -495.840950103     A.U. after   13 cycles
 SCF Done:  E(RB3LYP) =  -495.841246158     A.U. after   12 cycles
 SCF Done:  E(RB3LYP) =  -495.841377293     A.U. after   12 cycles
 SCF Done:  E(RB3LYP) =  -495.841387695     A.U. after   10 cycles
 SCF Done:  E(RB3LYP) =  -495.841396851     A.U. after   10 cycles
 SCF Done:  E(RB3LYP) =  -495.841405089     A.U. after   10 cycles
 SCF Done:  E(RB3LYP) =  -495.841415319     A.U. after   10 cycles
 SCF Done:  E(RB3LYP) =  -495.841436215     A.U. after   11 cycles
 SCF Done:  E(RB3LYP) =  -495.841439017     A.U. after    8 cycles
 SCF Done:  E(RB3LYP) =  -495.841439388     A.U. after    8 cycles
 SCF Done:  E(RB3LYP) =  -495.841439410     A.U. after    7 cycles
 Optimization completed.
    -- Stationary point found.

                         Standard orientation:
 ---------------------------------------------------------------------
 Center     Atomic      Atomic             Coordinates (Angstroms)
 Number     Number       Type             X           Y           Z
 ---------------------------------------------------------------------
      1          1           0       -3.610673   -1.295124    0.792973
      2          6           0       -3.044070   -1.028997   -0.100947
      3          1           0       -3.695552   -0.502991   -0.807281
      4          1           0       -2.691242   -1.951844   -0.576915
      5          6           0       -1.835871   -0.203648    0.303207
      6          8           0       -1.343716   -0.249227    1.420245
      7          7           0       -1.348338    0.646049   -0.680026
      8          1           0       -1.671049    0.408650   -1.610600
      9          6           0        0.062195    1.037390   -0.638120
     10          1           0        0.317843    1.361320   -1.654721
     11          6           0        0.274335    2.225025    0.315375
     12          1           0        0.111198    1.915601    1.350241
     13          1           0        1.276852    2.658315    0.213154
     14          1           0       -0.444360    3.013574    0.074293
     15          6           0        0.958590   -0.202256   -0.356248
     16          8           0        0.576640   -1.333098   -0.627150
     17          7           0        2.242857    0.069176    0.020505
     18          1           0        2.443670    0.976955    0.412824
     19          6           0        3.180983   -1.006431    0.305630
     20          1           0        2.981196   -1.826885   -0.384827
     21          1           0        4.203113   -0.645673    0.159090
     22          1           0        3.076999   -1.386372    1.330269
 ---------------------------------------------------------------------

 The electronic state is 1-A.
 Alpha  occ. eigenvalues --  -19.10763 -19.10540 -14.35985 -14.35034 -10.28169
 Alpha  occ. eigenvalues --  -10.27978 -10.23864 -10.21570 -10.18547 -10.18298
 Alpha  occ. eigenvalues --   -1.03365  -1.01881  -0.91732  -0.91455  -0.77611
 Alpha  occ. eigenvalues --   -0.72372  -0.70144  -0.64466  -0.58539  -0.56417
 Alpha  occ. eigenvalues --   -0.52288  -0.49922  -0.45836  -0.45403  -0.44100
 Alpha  occ. eigenvalues --   -0.43524  -0.42322  -0.41350  -0.39736  -0.38990
 Alpha  occ. eigenvalues --   -0.38864  -0.37954  -0.37438  -0.35303  -0.33678
 Alpha  occ. eigenvalues --   -0.26342  -0.25115  -0.24519  -0.23797
 Alpha virt. eigenvalues --    0.02375   0.03425   0.06711   0.08622   0.11901
 Alpha virt. eigenvalues --    0.13059   0.14485   0.15487   0.16095   0.16685
 Alpha virt. eigenvalues --    0.17048   0.17507   0.18433   0.19324   0.19505

 Mulliken atomic charges:
              1
     1  H    0.183094
     2  C   -0.552524
     3  H    0.152682
     4  H    0.193167
     5  C    0.606721
     6  O   -0.501976
     7  N   -0.566746
     8  H    0.322874
     9  C   -0.066587
    10  H    0.161748
    11  C   -0.462848
    12  H    0.195240
    13  H    0.129573
    14  H    0.162884
    15  C    0.632581
    16  O   -0.528949
    17  N   -0.599795
    18  H    0.330174
    19  C   -0.303501
    20  H    0.194909
    21  H    0.149861
    22  H    0.167421
 Sum of Mulliken atomic charges =   0.00000

 Dipole moment (field-independent basis, Debye):
    X=              1.4147    Y=              2.3731    Z=             -2.0877  Tot=              3.4629
 Quadrupole moment (field-independent basis, Debye-Ang):
   XX=            -48.3123   YY=            -60.4794   ZZ=            -61.3168
   XY=              2.9617   XZ=              6.6084   YZ=             -0.9225

 Normal termination of Gaussian 09 at Sat Feb 11 02:14:22 2017.
