 Gaussian 09, Revision A.02,
 Gaussian 09:  EM64L-G09RevA.02 11-Jun-2009

 ----------------------------------------------------------------------
 # b3lyp/6-31G* Opt=(ModRedundant, maxcycles=1000, calcfc) geom=nocrowd
 ----------------------------------------------------------------------

 ------------------
 Phi Psi fixed scan
 ------------------
 Symbolic Z-matrix:
 Charge =  0 Multiplicity = 1

 SCF Done:  E(RB3LYP) =  -495.793251819     A.U. after   18 cycles

  Exact polarizability:   0.000   0.000   0.000   0.000   0.000   0.000
 Approx polarizability: 115.189   2.668 101.436  -5.807 -21.284 124.183

 SCF Done:  E(RB3LYP) =  -495.806990239     A.U. after   14 cycles
 SCF Done:  E(RB3LYP) =  -495.815358963     A.U. after   15 cycles
 SCF Done:  E(RB3LYP) =  -495.825238175     A.U. after   13 cycles
 SCF Done:  E(RB3LYP) =  -495.826469058     A.U. after   12 cycles
 SCF Done:  E(RB3LYP) =  -495.827650724     A.U. after   13 cycles
 SCF Done:  E(RB3LYP) =  -495.827989184     A.U. after   12 cycles
 SCF Done:  E(RB3LYP) =  -495.828039964     A.U. after   12 cycles
 SCF Done:  E(RB3LYP) =  -495.774666917     A.U. after   15 cycles
 SCF Done:  E(RB3LYP) =  -495.828130427     A.U. after   15 cycles
 SCF Done:  E(RB3LYP) =  -495.829630479     A.U. after   13 cycles
 SCF Done:  E(RB3LYP) =  -495.830096726     A.U. after   13 cycles
 SCF Done:  E(RB3LYP) =  -495.830347849     A.U. after   12 cycles
 SCF Done:  E(RB3LYP) =  -495.830463005     A.U. after   13 cycles
 SCF Done:  E(RB3LYP) =  -495.830597662     A.U. after   11 cycles
 SCF Done:  E(RB3LYP) =  -495.830644703     A.U. after   12 cycles
 SCF Done:  E(RB3LYP) =  -495.830657862     A.U. after   11 cycles
 SCF Done:  E(RB3LYP) =  -495.830663172     A.U. after   10 cycles
 SCF Done:  E(RB3LYP) =  -495.830664643     A.U. after   10 cycles
 SCF Done:  E(RB3LYP) =  -495.830664912     A.U. after    8 cycles
 Optimization completed.
    -- Stationary point found.

                         Standard orientation:
 ---------------------------------------------------------------------
 Center     Atomic      Atomic             Coordinates (Angstroms)
 Number     Number       Type             X           Y           Z
 ---------------------------------------------------------------------
      1          1           0       -3.727278   -1.545858    0.189418
      2          6           0       -2.929202   -1.339665   -0.525166
      3          1           0       -3.365764   -0.990869   -1.468209
      4          1           0       -2.392301   -2.275425   -0.725194
      5          6           0       -1.977505   -0.316583    0.089592
      6          8           0       -1.951212   -0.087986    1.283363
      7          7           0       -1.212071    0.367350   -0.852535
      8          1           0       -1.295869   -0.036427   -1.778302
      9          6           0        0.128671    0.942254   -0.624827
     10          1           0        0.520725    1.152941   -1.626266
     11          6           0        0.020438    2.260207    0.159257
     12          1           0       -0.384082    2.051011    1.151436
     13          1           0        1.005453    2.728471    0.268071
     14          1           0       -0.646612    2.952588   -0.363466
     15          6           0        1.111471    0.013998    0.131391
     16          8           0        0.930598   -0.377291    1.272285
     17          7           0        2.243598   -0.284883   -0.586669
     18          1           0        2.335051    0.065782   -1.528631
     19          6           0        3.328705   -1.078283   -0.037003
     20          1           0        3.057152   -1.326799    0.989975
     21          1           0        3.472435   -2.006319   -0.603642
     22          1           0        4.269851   -0.515709   -0.035411
 ---------------------------------------------------------------------

 The electronic state is 1-A.
 Alpha  occ. eigenvalues --  -19.10749 -19.10397 -14.36505 -14.35603 -10.28338
 Alpha  occ. eigenvalues --  -10.28142 -10.24208 -10.21881 -10.18759 -10.17402
 Alpha  occ. eigenvalues --   -1.03173  -1.02018  -0.92181  -0.91515  -0.77679
 Alpha  occ. eigenvalues --   -0.72439  -0.70739  -0.63709  -0.59117  -0.56587
 Alpha  occ. eigenvalues --   -0.52252  -0.49417  -0.46461  -0.45887  -0.44687
 Alpha  occ. eigenvalues --   -0.43975  -0.41631  -0.40734  -0.40312  -0.39067
 Alpha  occ. eigenvalues --   -0.38854  -0.37255  -0.36232  -0.35431  -0.34459
 Alpha  occ. eigenvalues --   -0.27313  -0.25245  -0.24515  -0.22316
 Alpha virt. eigenvalues --    0.01935   0.03582   0.05090   0.08657   0.11880
 Alpha virt. eigenvalues --    0.13050   0.13963   0.15347   0.16072   0.16286
 Alpha virt. eigenvalues --    0.16673   0.17768   0.17990   0.18857   0.20250

 Mulliken atomic charges:
              1
     1  H    0.188822
     2  C   -0.550518
     3  H    0.155053
     4  H    0.173696
     5  C    0.587316
     6  O   -0.462343
     7  N   -0.586697
     8  H    0.312796
     9  C   -0.048376
    10  H    0.120808
    11  C   -0.441853
    12  H    0.212286
    13  H    0.139957
    14  H    0.148352
    15  C    0.615594
    16  O   -0.492388
    17  N   -0.601064
    18  H    0.319503
    19  C   -0.311924
    20  H    0.208923
    21  H    0.155560
    22  H    0.156495
 Sum of Mulliken atomic charges =   0.00000

 Dipole moment (field-independent basis, Debye):
    X=              2.2105    Y=             -0.2309    Z=             -6.0358  Tot=              6.4320
 Quadrupole moment (field-independent basis, Debye-Ang):
   XX=            -52.6932   YY=            -57.8203   ZZ=            -61.6365
   XY=              1.7803   XZ=              1.5779   YZ=              1.4288

 Normal termination of Gaussian 09 at Sat Feb 11 02:03:56 2017.
