 Gaussian 09, Revision A.02,
 Gaussian 09:  EM64L-G09RevA.02 11-Jun-2009

 ----------------------------------------------------------------------
 #MP2/cc-pvTZ density=MP2, maxdisk=16GB, pop=(minimal, MK), 5d, punch=m
 o
 ----------------------------------------------------------------------

 -----------------
 Generated by mdgx
 -----------------
 Symbolic Z-matrix:
 Charge =  0 Multiplicity = 1

                         Standard orientation:
 ---------------------------------------------------------------------
 Center     Atomic      Atomic             Coordinates (Angstroms)
 Number     Number       Type             X           Y           Z
 ---------------------------------------------------------------------
      1          1           0       -3.911541   -1.288479    0.349803
      2          6           0       -3.403313   -0.698743   -0.413096
      3          1           0       -4.008614    0.194853   -0.565402
      4          1           0       -3.379725   -1.273048   -1.339227
      5          6           0       -2.041245   -0.245213    0.104855
      6          8           0       -1.694496   -0.679155    1.171645
      7          7           0       -1.262958    0.552225   -0.704717
      8          1           0       -1.693713    0.782050   -1.588872
      9          6           0        0.131266    0.968653   -0.436160
     10          1           0        0.466714    1.546404   -1.297426
     11          6           0        0.147572    2.077886    0.684155
     12          1           0       -0.187280    1.687154    1.645041
     13          1           0        1.110985    2.585454    0.732218
     14          1           0       -0.646994    2.812908    0.555677
     15          6           0        1.152020   -0.212256   -0.197696
     16          8           0        0.808253   -1.359762    0.112253
     17          7           0        2.437149    0.081889   -0.382569
     18          1           0        2.640278    1.019782   -0.697523
     19          6           0        3.522123   -0.779229    0.080268
     20          1           0        4.227776   -0.112206    0.575480
     21          1           0        3.179915   -1.513111    0.809933
     22          1           0        4.022272   -1.235817   -0.773827
 ---------------------------------------------------------------------

 SCF Done:  E(RHF) =  -492.999672965     A.U. after   14 cycles
 E2 =    -0.1885420834D+01 EUMP2 =    -0.49488509379889D+03

 The electronic state is 1-A.
 Alpha  occ. eigenvalues --  -20.49858 -20.49631 -15.58633 -15.58137 -11.34403
 Alpha  occ. eigenvalues --  -11.33338 -11.30422 -11.26316 -11.23131 -11.22422
 Alpha  occ. eigenvalues --   -1.37269  -1.35869  -1.22953  -1.22018  -1.04239
 Alpha  occ. eigenvalues --   -0.97971  -0.95947  -0.87930  -0.79328  -0.76794
 Alpha  occ. eigenvalues --   -0.70488  -0.68704  -0.64374  -0.63024  -0.62357
 Alpha  occ. eigenvalues --   -0.60980  -0.58798  -0.57580  -0.56307  -0.55848
 Alpha  occ. eigenvalues --   -0.54925  -0.53740  -0.51963  -0.50106  -0.48878
 Alpha  occ. eigenvalues --   -0.42401  -0.40046  -0.38638  -0.37540
 Alpha virt. eigenvalues --    0.11139   0.13524   0.15575   0.16366   0.17283
 Alpha virt. eigenvalues --    0.19785   0.19796   0.20452   0.21831   0.22887
 Alpha virt. eigenvalues --    0.23055   0.23924   0.24398   0.25107   0.26665

 Mulliken atomic charges:
              1
     1  H    0.149025
     2  C   -0.396069
     3  H    0.111534
     4  H    0.128135
     5  C    0.195047
     6  O   -0.280460
     7  N   -0.199546
     8  H    0.179112
     9  C   -0.105898
    10  H    0.147734
    11  C   -0.377885
    12  H    0.156150
    13  H    0.119270
    14  H    0.129531
    15  C    0.185854
    16  O   -0.300730
    17  N   -0.150569
    18  H    0.174925
    19  C   -0.258951
    20  H    0.112316
    21  H    0.155873
    22  H    0.125601
 Sum of Mulliken atomic charges =   0.00000

 Dipole moment (field-independent basis, Debye):
    X=              2.0063    Y=              4.1332    Z=             -3.3458  Tot=              5.6836
 Quadrupole moment (field-independent basis, Debye-Ang):
   XX=            -47.2804   YY=            -62.4153   ZZ=            -61.5266
   XY=              0.9840   XZ=              4.3442   YZ=              0.0676

 Normal termination of Gaussian 09 at Sun Mar 19 14:51:45 2017.
