 Gaussian 09, Revision A.02,
 Gaussian 09:  EM64L-G09RevA.02 11-Jun-2009

 ----------------------------------------------------------------------
 # b3lyp/6-31G* Opt=(ModRedundant, maxcycles=1000, calcfc) geom=nocrowd
 ----------------------------------------------------------------------

 ------------------
 Phi Psi fixed scan
 ------------------
 Symbolic Z-matrix:
 Charge =  0 Multiplicity = 1

 SCF Done:  E(RB3LYP) =  -495.709252817     A.U. after   19 cycles

  Exact polarizability:   0.000   0.000   0.000   0.000   0.000   0.000
 Approx polarizability: 136.325   7.144 137.150   2.123   8.687  88.207

 SCF Done:  E(RB3LYP) =  -495.750014799     A.U. after   15 cycles
 SCF Done:  E(RB3LYP) =  -495.792321713     A.U. after   17 cycles
 SCF Done:  E(RB3LYP) =  -495.806938069     A.U. after   15 cycles
 SCF Done:  E(RB3LYP) =  -495.802724611     A.U. after   15 cycles
 SCF Done:  E(RB3LYP) =  -495.809526016     A.U. after   14 cycles
 SCF Done:  E(RB3LYP) =  -495.812263540     A.U. after   12 cycles
 SCF Done:  E(RB3LYP) =  -495.815340063     A.U. after   13 cycles
 SCF Done:  E(RB3LYP) =  -495.817164385     A.U. after   14 cycles
 SCF Done:  E(RB3LYP) =  -495.719110965     A.U. after   16 cycles
 SCF Done:  E(RB3LYP) =  -495.819654558     A.U. after   10 cycles
 SCF Done:  E(RB3LYP) =  -495.819698684     A.U. after   11 cycles
 SCF Done:  E(RB3LYP) =  -495.819913141     A.U. after   13 cycles
 SCF Done:  E(RB3LYP) =  -495.820023212     A.U. after   13 cycles
 SCF Done:  E(RB3LYP) =  -495.820039685     A.U. after   12 cycles
 SCF Done:  E(RB3LYP) =  -495.820043575     A.U. after   10 cycles
 SCF Done:  E(RB3LYP) =  -495.820045112     A.U. after    8 cycles
 SCF Done:  E(RB3LYP) =  -495.820045824     A.U. after    8 cycles
 SCF Done:  E(RB3LYP) =  -495.820046186     A.U. after    7 cycles
 SCF Done:  E(RB3LYP) =  -495.820046267     A.U. after    7 cycles
 Optimization completed.
    -- Stationary point found.

                         Standard orientation:
 ---------------------------------------------------------------------
 Center     Atomic      Atomic             Coordinates (Angstroms)
 Number     Number       Type             X           Y           Z
 ---------------------------------------------------------------------
      1          1           0        4.073528   -1.021449   -0.562708
      2          6           0        3.549775   -0.177952   -0.110785
      3          1           0        3.826665    0.743267   -0.636859
      4          1           0        3.877812   -0.083728    0.931983
      5          6           0        2.045552   -0.458716   -0.162348
      6          8           0        1.609658   -1.577544   -0.340497
      7          7           0        1.286410    0.700417   -0.045537
      8          1           0        1.861415    1.517094    0.123503
      9          6           0       -0.080113    0.949920    0.447573
     10          1           0       -0.039701    1.033346    1.545921
     11          6           0       -0.523942    2.311602   -0.105598
     12          1           0       -0.613615    2.289906   -1.197894
     13          1           0       -1.474509    2.625815    0.335499
     14          1           0        0.216139    3.081333    0.143956
     15          6           0       -1.093242   -0.212445    0.264226
     16          8           0       -0.893456   -1.313876    0.744204
     17          7           0       -2.329216    0.152337   -0.213893
     18          1           0       -2.400233    0.970942   -0.800558
     19          6           0       -3.371086   -0.854533   -0.357604
     20          1           0       -3.369473   -1.484619    0.533203
     21          1           0       -4.339434   -0.355620   -0.452639
     22          1           0       -3.210230   -1.501458   -1.229849
 ---------------------------------------------------------------------

 The electronic state is 1-A.
 Alpha  occ. eigenvalues --  -19.10358 -19.09868 -14.35950 -14.35511 -10.28263
 Alpha  occ. eigenvalues --  -10.27920 -10.24616 -10.21453 -10.20274 -10.18522
 Alpha  occ. eigenvalues --   -1.02929  -1.01599  -0.91990  -0.91373  -0.78514
 Alpha  occ. eigenvalues --   -0.72352  -0.70265  -0.65314  -0.58874  -0.57140
 Alpha  occ. eigenvalues --   -0.51062  -0.50097  -0.46545  -0.44701  -0.44363
 Alpha  occ. eigenvalues --   -0.43918  -0.42722  -0.41654  -0.40354  -0.39081
 Alpha  occ. eigenvalues --   -0.38824  -0.38401  -0.37668  -0.35860  -0.34190
 Alpha  occ. eigenvalues --   -0.25898  -0.24867  -0.24107  -0.22402
 Alpha virt. eigenvalues --    0.02050   0.03316   0.06450   0.08574   0.11432
 Alpha virt. eigenvalues --    0.13026   0.13169   0.14369   0.14705   0.16122
 Alpha virt. eigenvalues --    0.16432   0.16644   0.18195   0.18825   0.19038

 Mulliken atomic charges:
              1
     1  H    0.187087
     2  C   -0.550438
     3  H    0.150737
     4  H    0.172359
     5  C    0.585260
     6  O   -0.458641
     7  N   -0.604976
     8  H    0.312943
     9  C   -0.012979
    10  H    0.172776
    11  C   -0.489462
    12  H    0.163664
    13  H    0.163344
    14  H    0.150324
    15  C    0.601436
    16  O   -0.479068
    17  N   -0.597413
    18  H    0.325849
    19  C   -0.301374
    20  H    0.194888
    21  H    0.147112
    22  H    0.166573
 Sum of Mulliken atomic charges =   0.00000

 Dipole moment (field-independent basis, Debye):
    X=             -0.8966    Y=              5.7645    Z=             -0.6137  Tot=              5.8660
 Quadrupole moment (field-independent basis, Debye-Ang):
   XX=            -47.2721   YY=            -63.5766   ZZ=            -59.7466
   XY=              3.4122   XZ=              4.4930   YZ=              1.1144

 Normal termination of Gaussian 09 at Sat Feb 11 01:15:15 2017.
