 Gaussian 09, Revision A.02,
 Gaussian 09:  EM64L-G09RevA.02 11-Jun-2009

 ----------------------------------------------------------------------
 # b3lyp/6-31G* Opt=(ModRedundant, maxcycles=1000, calcfc) geom=nocrowd
 ----------------------------------------------------------------------

 ------------------
 Phi Psi fixed scan
 ------------------
 Symbolic Z-matrix:
 Charge =  0 Multiplicity = 1

 SCF Done:  E(RB3LYP) =  -495.552502478     A.U. after   19 cycles

  Exact polarizability:   0.000   0.000   0.000   0.000   0.000   0.000
 Approx polarizability: 168.829  -5.288 141.891   5.547   3.113  87.062

 SCF Done:  E(RB3LYP) =  -495.609764307     A.U. after   18 cycles
 SCF Done:  E(RB3LYP) =  -495.697545112     A.U. after   15 cycles
 SCF Done:  E(RB3LYP) =  -495.774929297     A.U. after   14 cycles
 SCF Done:  E(RB3LYP) =  -495.793725639     A.U. after   13 cycles
 SCF Done:  E(RB3LYP) =  -495.817066970     A.U. after   13 cycles
 SCF Done:  E(RB3LYP) =  -495.793126570     A.U. after   15 cycles
 SCF Done:  E(RB3LYP) =  -495.822911581     A.U. after   14 cycles
 SCF Done:  E(RB3LYP) =  -495.826987081     A.U. after   13 cycles
 SCF Done:  E(RB3LYP) =  -495.829361973     A.U. after   13 cycles
 SCF Done:  E(RB3LYP) =  -495.843223892     A.U. after   11 cycles
 SCF Done:  E(RB3LYP) =  -495.843243682     A.U. after   10 cycles
 SCF Done:  E(RB3LYP) =  -495.843264146     A.U. after   11 cycles
 SCF Done:  E(RB3LYP) =  -495.843273877     A.U. after   10 cycles
 SCF Done:  E(RB3LYP) =  -495.843277411     A.U. after   10 cycles
 SCF Done:  E(RB3LYP) =  -495.843279230     A.U. after   10 cycles
 SCF Done:  E(RB3LYP) =  -495.843280400     A.U. after    8 cycles
 SCF Done:  E(RB3LYP) =  -495.843281585     A.U. after    9 cycles
 SCF Done:  E(RB3LYP) =  -495.843282138     A.U. after    9 cycles
 SCF Done:  E(RB3LYP) =  -495.843282245     A.U. after    7 cycles
 Optimization completed.
    -- Stationary point found.

                         Standard orientation:
 ---------------------------------------------------------------------
 Center     Atomic      Atomic             Coordinates (Angstroms)
 Number     Number       Type             X           Y           Z
 ---------------------------------------------------------------------
      1          1           0       -3.914240   -1.064752   -0.141134
      2          6           0       -3.269414   -0.453349    0.495366
      3          1           0       -3.270437   -0.905610    1.492969
      4          1           0       -3.687742    0.555274    0.567014
      5          6           0       -1.851841   -0.507099   -0.060257
      6          8           0       -1.361635   -1.594398   -0.371245
      7          7           0       -1.250748    0.706769   -0.206654
      8          1           0       -1.806888    1.475469    0.142133
      9          6           0        0.147320    1.133403   -0.483734
     10          1           0        0.257732    1.163384   -1.579126
     11          6           0        0.297948    2.560536    0.045885
     12          1           0        0.194198    2.584100    1.135997
     13          1           0        1.288990    2.940776   -0.198901
     14          1           0       -0.457491    3.216840   -0.402832
     15          6           0        1.352212    0.262082   -0.004375
     16          8           0        2.352447    0.834263    0.427230
     17          7           0        1.297248   -1.069386   -0.200203
     18          1           0        0.395042   -1.490647   -0.429358
     19          6           0        2.423579   -1.907437    0.175123
     20          1           0        3.336168   -1.567282   -0.323788
     21          1           0        2.605940   -1.882223    1.256586
     22          1           0        2.207909   -2.934740   -0.127503
 ---------------------------------------------------------------------

 The electronic state is 1-A.
 Alpha  occ. eigenvalues --  -19.12804 -19.09986 -14.37865 -14.33693 -10.30641
 Alpha  occ. eigenvalues --  -10.27560 -10.24614 -10.20487 -10.20384 -10.18816
 Alpha  occ. eigenvalues --   -1.04550  -1.01901  -0.93712  -0.90142  -0.78742
 Alpha  occ. eigenvalues --   -0.73591  -0.70236  -0.64200  -0.60277  -0.56256
 Alpha  occ. eigenvalues --   -0.51958  -0.50682  -0.48825  -0.45474  -0.45282
 Alpha  occ. eigenvalues --   -0.43431  -0.41989  -0.41738  -0.41243  -0.39519
 Alpha  occ. eigenvalues --   -0.38462  -0.37576  -0.37455  -0.36445  -0.34827
 Alpha  occ. eigenvalues --   -0.27887  -0.26610  -0.23938  -0.23326
 Alpha virt. eigenvalues --    0.01199   0.03185   0.06194   0.10668   0.12185
 Alpha virt. eigenvalues --    0.12958   0.13844   0.14581   0.15114   0.15968
 Alpha virt. eigenvalues --    0.16631   0.16884   0.18329   0.19124   0.21094

 Mulliken atomic charges:
              1
     1  H    0.192639
     2  C   -0.534448
     3  H    0.190441
     4  H    0.149122
     5  C    0.605355
     6  O   -0.526962
     7  N   -0.614918
     8  H    0.333732
     9  C   -0.024918
    10  H    0.177195
    11  C   -0.474037
    12  H    0.162379
    13  H    0.196729
    14  H    0.136244
    15  C    0.595691
    16  O   -0.529709
    17  N   -0.614188
    18  H    0.386419
    19  C   -0.293506
    20  H    0.172705
    21  H    0.163135
    22  H    0.150901
 Sum of Mulliken atomic charges =   0.00000

 Dipole moment (field-independent basis, Debye):
    X=             -3.5395    Y=              1.1261    Z=              0.0421  Tot=              3.7145
 Quadrupole moment (field-independent basis, Debye-Ang):
   XX=            -59.9848   YY=            -58.7989   ZZ=            -59.8750
   XY=             -8.8953   XZ=             -4.3746   YZ=             -2.2044

 Normal termination of Gaussian 09 at Sat Feb 11 01:32:43 2017.
