 Gaussian 09, Revision A.02,
 Gaussian 09:  EM64L-G09RevA.02 11-Jun-2009

 ----------------------------------------------------------------------
 # b3lyp/6-31G* Opt=(ModRedundant, maxcycles=1000, calcfc) geom=nocrowd
 ----------------------------------------------------------------------

 ------------------
 Phi Psi fixed scan
 ------------------
 Symbolic Z-matrix:
 Charge =  0 Multiplicity = 1

 SCF Done:  E(RB3LYP) =  -495.649001139     A.U. after   16 cycles

  Exact polarizability:   0.000   0.000   0.000   0.000   0.000   0.000
 Approx polarizability: 149.090  -1.018 136.591  -9.723  -0.118  87.997

 SCF Done:  E(RB3LYP) =  -495.694380486     A.U. after   14 cycles
 SCF Done:  E(RB3LYP) =  -495.758630886     A.U. after   14 cycles
 SCF Done:  E(RB3LYP) =  -495.806804788     A.U. after   14 cycles
 SCF Done:  E(RB3LYP) =  -495.811703495     A.U. after   13 cycles
 SCF Done:  E(RB3LYP) =  -495.825987156     A.U. after   14 cycles
 SCF Done:  E(RB3LYP) =  -495.808221392     A.U. after   14 cycles
 SCF Done:  E(RB3LYP) =  -495.831243705     A.U. after   13 cycles
 SCF Done:  E(RB3LYP) =  -495.832983174     A.U. after   12 cycles
 SCF Done:  E(RB3LYP) =  -495.836478826     A.U. after   12 cycles
 SCF Done:  E(RB3LYP) =  -495.843110216     A.U. after   11 cycles
 SCF Done:  E(RB3LYP) =  -495.843168504     A.U. after   12 cycles
 SCF Done:  E(RB3LYP) =  -495.843240611     A.U. after   11 cycles
 SCF Done:  E(RB3LYP) =  -495.843273909     A.U. after   11 cycles
 SCF Done:  E(RB3LYP) =  -495.843280951     A.U. after   10 cycles
 SCF Done:  E(RB3LYP) =  -495.843288915     A.U. after   10 cycles
 SCF Done:  E(RB3LYP) =  -495.843290622     A.U. after    9 cycles
 SCF Done:  E(RB3LYP) =  -495.843290676     A.U. after    9 cycles
 SCF Done:  E(RB3LYP) =  -495.843290760     A.U. after    7 cycles
 SCF Done:  E(RB3LYP) =  -495.843290782     A.U. after    6 cycles
 Optimization completed.
    -- Stationary point found.

                         Standard orientation:
 ---------------------------------------------------------------------
 Center     Atomic      Atomic             Coordinates (Angstroms)
 Number     Number       Type             X           Y           Z
 ---------------------------------------------------------------------
      1          1           0       -3.534405   -1.056518    1.104976
      2          6           0       -3.362161   -0.390238    0.254143
      3          1           0       -3.724000    0.610925    0.507156
      4          1           0       -3.947365   -0.777721   -0.585198
      5          6           0       -1.886476   -0.453631   -0.119654
      6          8           0       -1.384793   -1.531317   -0.446307
      7          7           0       -1.233555    0.738659   -0.069943
      8          1           0       -1.803751    1.510324    0.247797
      9          6           0        0.155613    1.165749   -0.362306
     10          1           0        0.197316    1.428356   -1.428903
     11          6           0        0.416936    2.446316    0.445845
     12          1           0        0.369799    2.240211    1.521119
     13          1           0        1.410843    2.822209    0.203175
     14          1           0       -0.322567    3.219743    0.203254
     15          6           0        1.380349    0.225021   -0.180172
     16          8           0        2.480931    0.722188   -0.412066
     17          7           0        1.211731   -1.039750    0.260360
     18          1           0        0.290387   -1.458262    0.121372
     19          6           0        2.369237   -1.915479    0.367447
     20          1           0        3.152266   -1.422371    0.948373
     21          1           0        2.065663   -2.834745    0.874287
     22          1           0        2.788507   -2.167912   -0.615165
 ---------------------------------------------------------------------

 The electronic state is 1-A.
 Alpha  occ. eigenvalues --  -19.12619 -19.09963 -14.37927 -14.33897 -10.30650
 Alpha  occ. eigenvalues --  -10.27735 -10.24608 -10.20463 -10.20411 -10.19122
 Alpha  occ. eigenvalues --   -1.04510  -1.02016  -0.93768  -0.90275  -0.78839
 Alpha  occ. eigenvalues --   -0.73674  -0.70029  -0.64499  -0.60474  -0.56321
 Alpha  occ. eigenvalues --   -0.52067  -0.50803  -0.48476  -0.45745  -0.45307
 Alpha  occ. eigenvalues --   -0.43068  -0.42267  -0.41730  -0.41222  -0.39977
 Alpha  occ. eigenvalues --   -0.38835  -0.37842  -0.37358  -0.36455  -0.34336
 Alpha  occ. eigenvalues --   -0.27067  -0.26802  -0.24394  -0.23570
 Alpha virt. eigenvalues --    0.01163   0.03316   0.05765   0.11078   0.12255
 Alpha virt. eigenvalues --    0.12594   0.13762   0.15177   0.15576   0.16278
 Alpha virt. eigenvalues --    0.16607   0.17107   0.18598   0.18932   0.20075

 Mulliken atomic charges:
              1
     1  H    0.190256
     2  C   -0.532790
     3  H    0.146834
     4  H    0.192876
     5  C    0.602976
     6  O   -0.531558
     7  N   -0.617368
     8  H    0.331357
     9  C   -0.008358
    10  H    0.180215
    11  C   -0.481201
    12  H    0.160391
    13  H    0.203905
    14  H    0.137840
    15  C    0.601376
    16  O   -0.535566
    17  N   -0.618652
    18  H    0.385281
    19  C   -0.298294
    20  H    0.177542
    21  H    0.150005
    22  H    0.162934
 Sum of Mulliken atomic charges =   0.00000

 Dipole moment (field-independent basis, Debye):
    X=             -3.8360    Y=              1.3620    Z=              1.3700  Tot=              4.2950
 Quadrupole moment (field-independent basis, Debye-Ang):
   XX=            -60.6280   YY=            -57.9544   ZZ=            -60.1547
   XY=             -8.7608   XZ=              0.4283   YZ=             -1.0905

 Normal termination of Gaussian 09 at Sat Feb 11 01:04:51 2017.
