 Gaussian 09, Revision A.02,
 Gaussian 09:  EM64L-G09RevA.02 11-Jun-2009

 ----------------------------------------------------------------------
 # b3lyp/6-31G* Opt=(ModRedundant, maxcycles=1000, calcfc) geom=nocrowd
 ----------------------------------------------------------------------

 ------------------
 Phi Psi fixed scan
 ------------------
 Symbolic Z-matrix:
 Charge =  0 Multiplicity = 1

 SCF Done:  E(RB3LYP) =  -495.703832558     A.U. after   19 cycles

  Exact polarizability:   0.000   0.000   0.000   0.000   0.000   0.000
 Approx polarizability: 144.452   4.370 136.999  -5.102  -0.352  84.441

 SCF Done:  E(RB3LYP) =  -495.728733247     A.U. after   14 cycles
 SCF Done:  E(RB3LYP) =  -495.765822894     A.U. after   14 cycles
 SCF Done:  E(RB3LYP) =  -495.797969219     A.U. after   15 cycles
 SCF Done:  E(RB3LYP) =  -495.803988792     A.U. after   13 cycles
 SCF Done:  E(RB3LYP) =  -495.810330444     A.U. after   12 cycles
 SCF Done:  E(RB3LYP) =  -495.815079965     A.U. after   14 cycles
 SCF Done:  E(RB3LYP) =  -495.818322149     A.U. after   13 cycles
 SCF Done:  E(RB3LYP) =  -495.804241874     A.U. after   14 cycles
 SCF Done:  E(RB3LYP) =  -495.820319412     A.U. after   13 cycles
 SCF Done:  E(RB3LYP) =  -495.825987582     A.U. after   11 cycles
 SCF Done:  E(RB3LYP) =  -495.826064568     A.U. after   10 cycles
 SCF Done:  E(RB3LYP) =  -495.826194624     A.U. after   11 cycles
 SCF Done:  E(RB3LYP) =  -495.826288777     A.U. after   11 cycles
 SCF Done:  E(RB3LYP) =  -495.826323118     A.U. after   12 cycles
 SCF Done:  E(RB3LYP) =  -495.826338128     A.U. after    9 cycles
 SCF Done:  E(RB3LYP) =  -495.826357974     A.U. after   10 cycles
 SCF Done:  E(RB3LYP) =  -495.826359445     A.U. after   10 cycles
 SCF Done:  E(RB3LYP) =  -495.826360651     A.U. after    9 cycles
 SCF Done:  E(RB3LYP) =  -495.826360747     A.U. after    7 cycles
 Optimization completed.
    -- Stationary point found.

                         Standard orientation:
 ---------------------------------------------------------------------
 Center     Atomic      Atomic             Coordinates (Angstroms)
 Number     Number       Type             X           Y           Z
 ---------------------------------------------------------------------
      1          1           0       -3.684268   -1.280805    0.668464
      2          6           0       -2.951919   -0.521626    0.946876
      3          1           0       -2.381773   -0.881485    1.811895
      4          1           0       -3.472435    0.398370    1.239136
      5          6           0       -1.997790   -0.304283   -0.217199
      6          8           0       -1.913018   -1.072095   -1.154170
      7          7           0       -1.304256    0.922117   -0.181622
      8          1           0       -1.511688    1.409918    0.686118
      9          6           0        0.134481    1.038264   -0.456605
     10          1           0        0.257926    1.150307   -1.544831
     11          6           0        0.638940    2.326036    0.210802
     12          1           0        0.647074    2.228013    1.302710
     13          1           0        1.650619    2.591501   -0.107249
     14          1           0       -0.018343    3.158024   -0.062392
     15          6           0        0.958104   -0.224882   -0.073056
     16          8           0        0.453669   -1.269839    0.305034
     17          7           0        2.315795   -0.018507   -0.018125
     18          1           0        2.695431    0.782279   -0.504042
     19          6           0        3.225996   -1.129798    0.223868
     20          1           0        3.441103   -1.703011   -0.687699
     21          1           0        4.163944   -0.745182    0.634300
     22          1           0        2.759559   -1.799989    0.946795
 ---------------------------------------------------------------------

 The electronic state is 1-A.
 Alpha  occ. eigenvalues --  -19.11606 -19.09724 -14.36549 -14.34566 -10.28822
 Alpha  occ. eigenvalues --  -10.27503 -10.24349 -10.22040 -10.20512 -10.18031
 Alpha  occ. eigenvalues --   -1.03854  -1.01397  -0.92274  -0.91273  -0.78112
 Alpha  occ. eigenvalues --   -0.72210  -0.70869  -0.64921  -0.58630  -0.56849
 Alpha  occ. eigenvalues --   -0.51861  -0.48491  -0.47248  -0.45312  -0.44992
 Alpha  occ. eigenvalues --   -0.43611  -0.42774  -0.41641  -0.40263  -0.39635
 Alpha  occ. eigenvalues --   -0.38818  -0.38372  -0.38005  -0.35906  -0.33214
 Alpha  occ. eigenvalues --   -0.27439  -0.25482  -0.24072  -0.22663
 Alpha virt. eigenvalues --    0.01921   0.03290   0.05712   0.08522   0.11574
 Alpha virt. eigenvalues --    0.12771   0.13536   0.14351   0.14473   0.15738
 Alpha virt. eigenvalues --    0.16266   0.16738   0.17224   0.18795   0.19529

 Mulliken atomic charges:
              1
     1  H    0.183945
     2  C   -0.553901
     3  H    0.182755
     4  H    0.150881
     5  C    0.609766
     6  O   -0.476216
     7  N   -0.595506
     8  H    0.309364
     9  C   -0.038276
    10  H    0.173022
    11  C   -0.482110
    12  H    0.163881
    13  H    0.148565
    14  H    0.172308
    15  C    0.605133
    16  O   -0.495323
    17  N   -0.590072
    18  H    0.322135
    19  C   -0.305002
    20  H    0.163424
    21  H    0.152333
    22  H    0.198896
 Sum of Mulliken atomic charges =   0.00000

 Dipole moment (field-independent basis, Debye):
    X=              3.2910    Y=              4.0969    Z=              1.8963  Tot=              5.5867
 Quadrupole moment (field-independent basis, Debye-Ang):
   XX=            -50.5117   YY=            -61.2901   ZZ=            -61.2612
   XY=             -2.0052   XZ=             -8.0108   YZ=             -1.7814

 Normal termination of Gaussian 09 at Sat Feb 11 01:17:56 2017.
