 Gaussian 09, Revision A.02,
 Gaussian 09:  EM64L-G09RevA.02 11-Jun-2009

 ----------------------------------------------------------------------
 # b3lyp/6-31G* Opt=(ModRedundant, maxcycles=1000, calcfc) geom=nocrowd
 ----------------------------------------------------------------------

 ------------------
 Phi Psi fixed scan
 ------------------
 Symbolic Z-matrix:
 Charge =  0 Multiplicity = 1

 SCF Done:  E(RB3LYP) =  -495.754972313     A.U. after   17 cycles

  Exact polarizability:   0.000   0.000   0.000   0.000   0.000   0.000
 Approx polarizability: 120.941   3.694 132.988   5.630  13.088  93.914

 SCF Done:  E(RB3LYP) =  -495.778785128     A.U. after   14 cycles
 SCF Done:  E(RB3LYP) =  -495.806653039     A.U. after   16 cycles
 SCF Done:  E(RB3LYP) =  -495.554959589     A.U. after   18 cycles
 SCF Done:  E(RB3LYP) =  -495.654086720     A.U. after   15 cycles
 SCF Done:  E(RB3LYP) =  -495.714174114     A.U. after   14 cycles
 SCF Done:  E(RB3LYP) =  -495.750221330     A.U. after   14 cycles
 SCF Done:  E(RB3LYP) =  -495.773523671     A.U. after   13 cycles
 SCF Done:  E(RB3LYP) =  -495.789438229     A.U. after   13 cycles
 SCF Done:  E(RB3LYP) =  -495.806662310     A.U. after   16 cycles
 SCF Done:  E(RB3LYP) =  -495.824305658     A.U. after   12 cycles
 SCF Done:  E(RB3LYP) =  -495.824406006     A.U. after   12 cycles
 SCF Done:  E(RB3LYP) =  -495.824433019     A.U. after   11 cycles
 SCF Done:  E(RB3LYP) =  -495.824442177     A.U. after   10 cycles
 SCF Done:  E(RB3LYP) =  -495.824446290     A.U. after    9 cycles
 SCF Done:  E(RB3LYP) =  -495.824450896     A.U. after   10 cycles
 SCF Done:  E(RB3LYP) =  -495.824455954     A.U. after   10 cycles
 SCF Done:  E(RB3LYP) =  -495.824457615     A.U. after   10 cycles
 SCF Done:  E(RB3LYP) =  -495.824457705     A.U. after    7 cycles
 SCF Done:  E(RB3LYP) =  -495.824457699     A.U. after    7 cycles
 Optimization completed.
    -- Stationary point found.

                         Standard orientation:
 ---------------------------------------------------------------------
 Center     Atomic      Atomic             Coordinates (Angstroms)
 Number     Number       Type             X           Y           Z
 ---------------------------------------------------------------------
      1          1           0        3.941048   -1.184928   -0.642422
      2          6           0        3.489253   -0.304071   -0.183987
      3          1           0        3.813159    0.592772   -0.724788
      4          1           0        3.851431   -0.225951    0.848695
      5          6           0        1.970866   -0.477590   -0.188837
      6          8           0        1.445090   -1.565144   -0.325177
      7          7           0        1.284493    0.725029   -0.087582
      8          1           0        1.899316    1.517035    0.061320
      9          6           0       -0.050006    1.004497    0.474034
     10          1           0        0.048998    1.106219    1.565187
     11          6           0       -0.523974    2.351153   -0.086753
     12          1           0       -0.615389    2.322338   -1.178994
     13          1           0       -1.483512    2.641687    0.350646
     14          1           0        0.200760    3.138263    0.154422
     15          6           0       -1.066966   -0.163773    0.362763
     16          8           0       -0.952120   -1.155926    1.062129
     17          7           0       -2.210053    0.098041   -0.348769
     18          1           0       -2.178574    0.813914   -1.060710
     19          6           0       -3.229567   -0.931700   -0.489382
     20          1           0       -3.351575   -1.428909    0.474040
     21          1           0       -4.173461   -0.464487   -0.783596
     22          1           0       -2.954672   -1.691971   -1.231991
 ---------------------------------------------------------------------

 The electronic state is 1-A.
 Alpha  occ. eigenvalues --  -19.10227 -19.10199 -14.35873 -14.35660 -10.28146
 Alpha  occ. eigenvalues --  -10.28106 -10.24329 -10.21335 -10.20063 -10.18739
 Alpha  occ. eigenvalues --   -1.02860  -1.01802  -0.92056  -0.91313  -0.78398
 Alpha  occ. eigenvalues --   -0.72545  -0.70203  -0.65103  -0.58867  -0.57120
 Alpha  occ. eigenvalues --   -0.51169  -0.50108  -0.46746  -0.44645  -0.44280
 Alpha  occ. eigenvalues --   -0.43992  -0.42578  -0.41613  -0.40270  -0.39201
 Alpha  occ. eigenvalues --   -0.38789  -0.38278  -0.37770  -0.35863  -0.34303
 Alpha  occ. eigenvalues --   -0.25766  -0.24956  -0.23957  -0.22967
 Alpha virt. eigenvalues --    0.02155   0.02987   0.06438   0.08496   0.11508
 Alpha virt. eigenvalues --    0.12995   0.13334   0.14439   0.15078   0.15980
 Alpha virt. eigenvalues --    0.16520   0.16930   0.18414   0.18679   0.19302

 Mulliken atomic charges:
              1
     1  H    0.187572
     2  C   -0.549287
     3  H    0.151836
     4  H    0.174959
     5  C    0.586008
     6  O   -0.466118
     7  N   -0.601439
     8  H    0.312747
     9  C   -0.021197
    10  H    0.171332
    11  C   -0.481416
    12  H    0.156813
    13  H    0.168216
    14  H    0.149012
    15  C    0.615137
    16  O   -0.492095
    17  N   -0.595391
    18  H    0.324991
    19  C   -0.302740
    20  H    0.195432
    21  H    0.147256
    22  H    0.168374
 Sum of Mulliken atomic charges =   0.00000

 Dipole moment (field-independent basis, Debye):
    X=             -0.2637    Y=              5.3452    Z=             -1.3207  Tot=              5.5123
 Quadrupole moment (field-independent basis, Debye-Ang):
   XX=            -47.5419   YY=            -62.9040   ZZ=            -60.3480
   XY=              3.3495   XZ=              5.0179   YZ=              1.9438

 Normal termination of Gaussian 09 at Sat Feb 11 01:15:29 2017.
