 Gaussian 09, Revision A.02,
 Gaussian 09:  EM64L-G09RevA.02 11-Jun-2009

 ----------------------------------------------------------------------
 # b3lyp/6-31G* Opt=(ModRedundant, maxcycles=1000, calcfc) geom=nocrowd
 ----------------------------------------------------------------------

 ------------------
 Phi Psi fixed scan
 ------------------
 Symbolic Z-matrix:
 Charge =  0 Multiplicity = 1

 SCF Done:  E(RB3LYP) =  -495.828631347     A.U. after   16 cycles

  Exact polarizability:   0.000   0.000   0.000   0.000   0.000   0.000
 Approx polarizability: 103.999   8.016 116.422 -11.609  -6.424 117.100

 SCF Done:  E(RB3LYP) =  -495.833421215     A.U. after   12 cycles
 SCF Done:  E(RB3LYP) =  -495.838940642     A.U. after   12 cycles
 SCF Done:  E(RB3LYP) =  -495.840640323     A.U. after   13 cycles
 SCF Done:  E(RB3LYP) =  -495.839117573     A.U. after   14 cycles
 SCF Done:  E(RB3LYP) =  -495.839993147     A.U. after   13 cycles
 SCF Done:  E(RB3LYP) =  -495.840743149     A.U. after   12 cycles
 SCF Done:  E(RB3LYP) =  -495.841040022     A.U. after   12 cycles
 SCF Done:  E(RB3LYP) =  -495.839048286     A.U. after   13 cycles
 SCF Done:  E(RB3LYP) =  -495.841139263     A.U. after   12 cycles
 SCF Done:  E(RB3LYP) =  -495.841252295     A.U. after   12 cycles
 SCF Done:  E(RB3LYP) =  -495.841278190     A.U. after   11 cycles
 SCF Done:  E(RB3LYP) =  -495.841296267     A.U. after   10 cycles
 SCF Done:  E(RB3LYP) =  -495.841316578     A.U. after   10 cycles
 SCF Done:  E(RB3LYP) =  -495.841324213     A.U. after   10 cycles
 SCF Done:  E(RB3LYP) =  -495.841325566     A.U. after   10 cycles
 SCF Done:  E(RB3LYP) =  -495.841325587     A.U. after    7 cycles
 Optimization completed.
    -- Stationary point found.

                         Standard orientation:
 ---------------------------------------------------------------------
 Center     Atomic      Atomic             Coordinates (Angstroms)
 Number     Number       Type             X           Y           Z
 ---------------------------------------------------------------------
      1          1           0        3.283945   -1.627221   -0.787776
      2          6           0        3.192460   -0.655553   -0.296049
      3          1           0        3.558621    0.126070   -0.969608
      4          1           0        3.831468   -0.676646    0.593650
      5          6           0        1.745658   -0.464748    0.141786
      6          8           0        1.104762   -1.366331    0.665458
      7          7           0        1.231686    0.785537   -0.084903
      8          1           0        1.844829    1.480769   -0.488497
      9          6           0       -0.091195    1.258164    0.337742
     10          1           0       -0.031676    1.622765    1.370443
     11          6           0       -0.543186    2.406969   -0.571420
     12          1           0       -0.643042    2.078822   -1.610892
     13          1           0       -1.512618    2.785641   -0.234660
     14          1           0        0.172362    3.238277   -0.533949
     15          6           0       -1.166959    0.150565    0.413176
     16          8           0       -1.851806    0.027795    1.416184
     17          7           0       -1.421094   -0.506888   -0.762603
     18          1           0       -0.652428   -0.535476   -1.420512
     19          6           0       -2.297102   -1.670824   -0.755801
     20          1           0       -3.173983   -1.438610   -0.150035
     21          1           0       -2.611687   -1.893037   -1.779385
     22          1           0       -1.801636   -2.551044   -0.325969
 ---------------------------------------------------------------------

 The electronic state is 1-A.
 Alpha  occ. eigenvalues --  -19.11475 -19.10256 -14.37079 -14.34821 -10.29451
 Alpha  occ. eigenvalues --  -10.27698 -10.23768 -10.20560 -10.19920 -10.19780
 Alpha  occ. eigenvalues --   -1.03713  -1.02070  -0.93073  -0.90678  -0.78592
 Alpha  occ. eigenvalues --   -0.73476  -0.69842  -0.64682  -0.59903  -0.56645
 Alpha  occ. eigenvalues --   -0.51667  -0.50325  -0.48008  -0.45097  -0.44699
 Alpha  occ. eigenvalues --   -0.43337  -0.42406  -0.41791  -0.40415  -0.39740
 Alpha  occ. eigenvalues --   -0.38994  -0.38198  -0.37654  -0.35747  -0.34957
 Alpha  occ. eigenvalues --   -0.26311  -0.25393  -0.24672  -0.23544
 Alpha virt. eigenvalues --    0.02101   0.03148   0.06051   0.09416   0.11258
 Alpha virt. eigenvalues --    0.12600   0.13698   0.14534   0.15287   0.15468
 Alpha virt. eigenvalues --    0.16778   0.17609   0.18070   0.18790   0.19213

 Mulliken atomic charges:
              1
     1  H    0.187279
     2  C   -0.539489
     3  H    0.143924
     4  H    0.189991
     5  C    0.588523
     6  O   -0.497075
     7  N   -0.618937
     8  H    0.321090
     9  C   -0.013143
    10  H    0.175320
    11  C   -0.473927
    12  H    0.157895
    13  H    0.180989
    14  H    0.145555
    15  C    0.615968
    16  O   -0.513605
    17  N   -0.571472
    18  H    0.321139
    19  C   -0.307376
    20  H    0.189962
    21  H    0.144543
    22  H    0.172846
 Sum of Mulliken atomic charges =   0.00000

 Dipole moment (field-independent basis, Debye):
    X=              3.0629    Y=              2.4025    Z=             -4.1742  Tot=              5.7076
 Quadrupole moment (field-independent basis, Debye-Ang):
   XX=            -55.8091   YY=            -57.0713   ZZ=            -62.9713
   XY=              4.2440   XZ=              3.1731   YZ=              3.0846

 Normal termination of Gaussian 09 at Sat Feb 11 01:14:58 2017.
