 Gaussian 09, Revision A.02,
 Gaussian 09:  EM64L-G09RevA.02 11-Jun-2009

 ----------------------------------------------------------------------
 # b3lyp/6-31G* Opt=(ModRedundant, maxcycles=1000, calcfc) geom=nocrowd
 ----------------------------------------------------------------------

 ------------------
 Phi Psi fixed scan
 ------------------
 Symbolic Z-matrix:
 Charge =  0 Multiplicity = 1

 SCF Done:  E(RB3LYP) =  -495.816426308     A.U. after   15 cycles

  Exact polarizability:   0.000   0.000   0.000   0.000   0.000   0.000
 Approx polarizability: 119.767  -5.821 120.255 -14.079  -8.268  98.222

 SCF Done:  E(RB3LYP) =  -495.824136541     A.U. after   12 cycles
 SCF Done:  E(RB3LYP) =  -495.835787395     A.U. after   13 cycles
 SCF Done:  E(RB3LYP) =  -495.835752124     A.U. after   15 cycles
 SCF Done:  E(RB3LYP) =  -495.837441904     A.U. after   13 cycles
 SCF Done:  E(RB3LYP) =  -495.838321957     A.U. after   12 cycles
 SCF Done:  E(RB3LYP) =  -495.839572868     A.U. after   12 cycles
 SCF Done:  E(RB3LYP) =  -495.840172126     A.U. after   13 cycles
 SCF Done:  E(RB3LYP) =  -495.814987041     A.U. after   15 cycles
 SCF Done:  E(RB3LYP) =  -495.840377746     A.U. after   15 cycles
 SCF Done:  E(RB3LYP) =  -495.841391915     A.U. after   11 cycles
 SCF Done:  E(RB3LYP) =  -495.841393794     A.U. after    9 cycles
 SCF Done:  E(RB3LYP) =  -495.841394499     A.U. after    8 cycles
 SCF Done:  E(RB3LYP) =  -495.841394908     A.U. after    8 cycles
 SCF Done:  E(RB3LYP) =  -495.841395332     A.U. after    9 cycles
 SCF Done:  E(RB3LYP) =  -495.841396220     A.U. after    9 cycles
 SCF Done:  E(RB3LYP) =  -495.841397201     A.U. after    9 cycles
 SCF Done:  E(RB3LYP) =  -495.841398540     A.U. after    8 cycles
 SCF Done:  E(RB3LYP) =  -495.841399705     A.U. after    9 cycles
 SCF Done:  E(RB3LYP) =  -495.841399921     A.U. after    8 cycles
 Optimization completed.
    -- Stationary point found.

                         Standard orientation:
 ---------------------------------------------------------------------
 Center     Atomic      Atomic             Coordinates (Angstroms)
 Number     Number       Type             X           Y           Z
 ---------------------------------------------------------------------
      1          1           0       -3.620335   -1.611772    0.053415
      2          6           0       -3.128611   -0.723338    0.453420
      3          1           0       -2.918736   -0.894576    1.516205
      4          1           0       -3.800958    0.137487    0.369241
      5          6           0       -1.813546   -0.514628   -0.276858
      6          8           0       -1.202282   -1.422518   -0.818623
      7          7           0       -1.369649    0.796139   -0.330924
      8          1           0       -1.849941    1.423480    0.304171
      9          6           0        0.056631    1.086456   -0.469596
     10          1           0        0.297874    1.149931   -1.540096
     11          6           0        0.369668    2.434819    0.190231
     12          1           0        0.194782    2.373165    1.270099
     13          1           0        1.416928    2.705563    0.029129
     14          1           0       -0.259758    3.226973   -0.230868
     15          6           0        0.939289   -0.007773    0.175879
     16          8           0        0.651314   -0.510280    1.252751
     17          7           0        2.156667   -0.170751   -0.426847
     18          1           0        2.227697    0.086610   -1.402354
     19          6           0        3.104813   -1.158089    0.067762
     20          1           0        3.023401   -1.190445    1.155018
     21          1           0        2.898346   -2.162756   -0.323316
     22          1           0        4.119858   -0.863675   -0.214305
 ---------------------------------------------------------------------

 The electronic state is 1-A.
 Alpha  occ. eigenvalues --  -19.10550 -19.10513 -14.35868 -14.35288 -10.28019
 Alpha  occ. eigenvalues --  -10.27961 -10.23754 -10.21370 -10.19626 -10.18526
 Alpha  occ. eigenvalues --   -1.03269  -1.01789  -0.91778  -0.91533  -0.77988
 Alpha  occ. eigenvalues --   -0.72521  -0.70648  -0.64033  -0.58524  -0.57006
 Alpha  occ. eigenvalues --   -0.51633  -0.49263  -0.47621  -0.45685  -0.44014
 Alpha  occ. eigenvalues --   -0.43455  -0.42337  -0.41286  -0.39756  -0.39035
 Alpha  occ. eigenvalues --   -0.38452  -0.38396  -0.37761  -0.35955  -0.33457
 Alpha  occ. eigenvalues --   -0.26561  -0.24968  -0.24284  -0.23749
 Alpha virt. eigenvalues --    0.02195   0.03711   0.07251   0.08350   0.12007
 Alpha virt. eigenvalues --    0.12785   0.14245   0.14802   0.15210   0.16215
 Alpha virt. eigenvalues --    0.16260   0.17196   0.17977   0.18775   0.19920

 Mulliken atomic charges:
              1
     1  H    0.184791
     2  C   -0.552194
     3  H    0.190318
     4  H    0.151688
     5  C    0.609807
     6  O   -0.501074
     7  N   -0.592020
     8  H    0.320607
     9  C   -0.007704
    10  H    0.140102
    11  C   -0.482870
    12  H    0.171486
    13  H    0.166369
    14  H    0.158440
    15  C    0.633863
    16  O   -0.529888
    17  N   -0.594895
    18  H    0.324380
    19  C   -0.305183
    20  H    0.195348
    21  H    0.168775
    22  H    0.149854
 Sum of Mulliken atomic charges =   0.00000

 Dipole moment (field-independent basis, Debye):
    X=              0.7948    Y=              3.3161    Z=             -0.8115  Tot=              3.5052
 Quadrupole moment (field-independent basis, Debye-Ang):
   XX=            -47.8131   YY=            -60.1707   ZZ=            -61.9784
   XY=             -3.5001   XZ=             -6.8576   YZ=             -0.5074

 Normal termination of Gaussian 09 at Sat Feb 11 01:15:26 2017.
