 Gaussian 09, Revision A.02,
 Gaussian 09:  EM64L-G09RevA.02 11-Jun-2009

 ----------------------------------------------------------------------
 # b3lyp/6-31G* Opt=(ModRedundant, maxcycles=1000, calcfc) geom=nocrowd
 ----------------------------------------------------------------------

 ------------------
 Phi Psi fixed scan
 ------------------
 Symbolic Z-matrix:
 Charge =  0 Multiplicity = 1

 SCF Done:  E(RB3LYP) =  -495.811160340     A.U. after   15 cycles

  Exact polarizability:   0.000   0.000   0.000   0.000   0.000   0.000
 Approx polarizability: 114.757  -2.470 123.183 -18.182   0.647 102.706

 SCF Done:  E(RB3LYP) =  -495.821841618     A.U. after   13 cycles
 SCF Done:  E(RB3LYP) =  -495.831736247     A.U. after   14 cycles
 SCF Done:  E(RB3LYP) =  -495.837539002     A.U. after   13 cycles
 SCF Done:  E(RB3LYP) =  -495.833907561     A.U. after   14 cycles
 SCF Done:  E(RB3LYP) =  -495.837797904     A.U. after   13 cycles
 SCF Done:  E(RB3LYP) =  -495.838618404     A.U. after   11 cycles
 SCF Done:  E(RB3LYP) =  -495.839885928     A.U. after   12 cycles
 SCF Done:  E(RB3LYP) =  -495.840426242     A.U. after   12 cycles
 SCF Done:  E(RB3LYP) =  -495.840932686     A.U. after   12 cycles
 SCF Done:  E(RB3LYP) =  -495.841843493     A.U. after   11 cycles
 SCF Done:  E(RB3LYP) =  -495.841867743     A.U. after   10 cycles
 SCF Done:  E(RB3LYP) =  -495.841878076     A.U. after   11 cycles
 SCF Done:  E(RB3LYP) =  -495.841879316     A.U. after   10 cycles
 SCF Done:  E(RB3LYP) =  -495.841880899     A.U. after   10 cycles
 SCF Done:  E(RB3LYP) =  -495.841881135     A.U. after    7 cycles
 SCF Done:  E(RB3LYP) =  -495.841881295     A.U. after    8 cycles
 SCF Done:  E(RB3LYP) =  -495.841881345     A.U. after    7 cycles
 SCF Done:  E(RB3LYP) =  -495.841881412     A.U. after    7 cycles
 SCF Done:  E(RB3LYP) =  -495.841881444     A.U. after    7 cycles
 Optimization completed.
    -- Stationary point found.

                         Standard orientation:
 ---------------------------------------------------------------------
 Center     Atomic      Atomic             Coordinates (Angstroms)
 Number     Number       Type             X           Y           Z
 ---------------------------------------------------------------------
      1          1           0       -3.904661   -0.632359   -0.734019
      2          6           0       -3.336794   -0.482724    0.190376
      3          1           0       -3.526239   -1.347325    0.832233
      4          1           0       -3.705160    0.420818    0.686066
      5          6           0       -1.853031   -0.447629   -0.153082
      6          8           0       -1.275764   -1.452768   -0.563989
      7          7           0       -1.247974    0.760409    0.027077
      8          1           0       -1.834414    1.498657    0.392156
      9          6           0        0.115566    1.202207   -0.309987
     10          1           0        0.107273    1.586188   -1.337541
     11          6           0        0.497571    2.355086    0.632654
     12          1           0        0.549821    2.005257    1.669015
     13          1           0        1.473349    2.749590    0.341377
     14          1           0       -0.234699    3.170214    0.571421
     15          6           0        1.291538    0.196043   -0.313726
     16          8           0        2.288413    0.518881   -0.949555
     17          7           0        1.250761   -0.872610    0.533104
     18          1           0        0.335328   -1.304097    0.611978
     19          6           0        2.382776   -1.792463    0.538693
     20          1           0        3.306139   -1.223442    0.660713
     21          1           0        2.269378   -2.483467    1.378082
     22          1           0        2.457424   -2.366666   -0.393954
 ---------------------------------------------------------------------

 The electronic state is 1-A.
 Alpha  occ. eigenvalues --  -19.12025 -19.10558 -14.37563 -14.34288 -10.30167
 Alpha  occ. eigenvalues --  -10.27938 -10.24262 -10.20481 -10.20230 -10.19504
 Alpha  occ. eigenvalues --   -1.04140  -1.02423  -0.93465  -0.90514  -0.78794
 Alpha  occ. eigenvalues --   -0.73651  -0.69832  -0.64609  -0.60337  -0.56220
 Alpha  occ. eigenvalues --   -0.52019  -0.50453  -0.48185  -0.45844  -0.45121
 Alpha  occ. eigenvalues --   -0.43096  -0.42340  -0.41717  -0.40967  -0.40031
 Alpha  occ. eigenvalues --   -0.39027  -0.38075  -0.37384  -0.36166  -0.34561
 Alpha  occ. eigenvalues --   -0.26905  -0.26325  -0.24783  -0.23758
 Alpha virt. eigenvalues --    0.01369   0.02621   0.05881   0.11026   0.11812
 Alpha virt. eigenvalues --    0.12442   0.14057   0.14996   0.15855   0.16157
 Alpha virt. eigenvalues --    0.16607   0.17473   0.17926   0.18940   0.19252

 Mulliken atomic charges:
              1
     1  H    0.191537
     2  C   -0.534796
     3  H    0.188218
     4  H    0.146059
     5  C    0.593101
     6  O   -0.526389
     7  N   -0.612999
     8  H    0.326046
     9  C    0.002104
    10  H    0.176968
    11  C   -0.477739
    12  H    0.165700
    13  H    0.191408
    14  H    0.142245
    15  C    0.595423
    16  O   -0.523334
    17  N   -0.590987
    18  H    0.357009
    19  C   -0.303891
    20  H    0.180924
    21  H    0.147766
    22  H    0.165625
 Sum of Mulliken atomic charges =   0.00000

 Dipole moment (field-independent basis, Debye):
    X=             -3.5887    Y=              1.6514    Z=              2.6138  Tot=              4.7368
 Quadrupole moment (field-independent basis, Debye-Ang):
   XX=            -58.2631   YY=            -57.1079   ZZ=            -62.0992
   XY=             -6.9533   XZ=              2.5973   YZ=             -1.3366

 Normal termination of Gaussian 09 at Sat Feb 11 01:32:15 2017.
