 Gaussian 09, Revision A.02,
 Gaussian 09:  EM64L-G09RevA.02 11-Jun-2009

 ----------------------------------------------------------------------
 # b3lyp/6-31G* Opt=(ModRedundant, maxcycles=1000, calcfc) geom=nocrowd
 ----------------------------------------------------------------------

 ------------------
 Phi Psi fixed scan
 ------------------
 Symbolic Z-matrix:
 Charge =  0 Multiplicity = 1

 SCF Done:  E(RB3LYP) =  -495.829248126     A.U. after   15 cycles

  Exact polarizability:   0.000   0.000   0.000   0.000   0.000   0.000
 Approx polarizability: 116.158 -10.251 116.842 -12.453  -5.810 104.655

 SCF Done:  E(RB3LYP) =  -495.834022197     A.U. after   12 cycles
 SCF Done:  E(RB3LYP) =  -495.839832880     A.U. after   12 cycles
 SCF Done:  E(RB3LYP) =  -495.842022968     A.U. after   14 cycles
 SCF Done:  E(RB3LYP) =  -495.842665658     A.U. after   13 cycles
 SCF Done:  E(RB3LYP) =  -495.819702820     A.U. after   15 cycles
 SCF Done:  E(RB3LYP) =  -495.842752189     A.U. after   15 cycles
 SCF Done:  E(RB3LYP) =  -495.843189881     A.U. after   12 cycles
 SCF Done:  E(RB3LYP) =  -495.841357219     A.U. after   13 cycles
 SCF Done:  E(RB3LYP) =  -495.843472425     A.U. after   12 cycles
 SCF Done:  E(RB3LYP) =  -495.843707349     A.U. after   11 cycles
 SCF Done:  E(RB3LYP) =  -495.843724830     A.U. after   11 cycles
 SCF Done:  E(RB3LYP) =  -495.843749027     A.U. after   11 cycles
 SCF Done:  E(RB3LYP) =  -495.843770369     A.U. after   11 cycles
 SCF Done:  E(RB3LYP) =  -495.843783361     A.U. after   10 cycles
 SCF Done:  E(RB3LYP) =  -495.843802757     A.U. after   11 cycles
 SCF Done:  E(RB3LYP) =  -495.843813873     A.U. after   10 cycles
 SCF Done:  E(RB3LYP) =  -495.843823401     A.U. after   10 cycles
 SCF Done:  E(RB3LYP) =  -495.843824585     A.U. after    8 cycles
 SCF Done:  E(RB3LYP) =  -495.843824660     A.U. after    7 cycles
 Optimization completed.
    -- Stationary point found.

                         Standard orientation:
 ---------------------------------------------------------------------
 Center     Atomic      Atomic             Coordinates (Angstroms)
 Number     Number       Type             X           Y           Z
 ---------------------------------------------------------------------
      1          1           0       -3.511756   -1.777900   -0.022482
      2          6           0       -3.100270   -0.853968    0.388274
      3          1           0       -2.976719   -0.987372    1.469765
      4          1           0       -3.805108   -0.032785    0.219970
      5          6           0       -1.738251   -0.600571   -0.234744
      6          8           0       -1.011339   -1.502613   -0.628310
      7          7           0       -1.381714    0.724520   -0.359262
      8          1           0       -1.950589    1.380583    0.162093
      9          6           0        0.022375    1.112031   -0.502648
     10          1           0        0.270256    1.134318   -1.573235
     11          6           0        0.232857    2.509285    0.087727
     12          1           0        0.058826    2.484183    1.168398
     13          1           0        1.259634    2.844469   -0.086550
     14          1           0       -0.446386    3.234915   -0.374486
     15          6           0        0.963412    0.116293    0.214872
     16          8           0        0.807476   -0.156142    1.397257
     17          7           0        2.061827   -0.254914   -0.508095
     18          1           0        1.973085   -0.220620   -1.514981
     19          6           0        2.999190   -1.227842    0.034178
     20          1           0        3.137341   -1.015650    1.095311
     21          1           0        2.627644   -2.255812   -0.065892
     22          1           0        3.958001   -1.136892   -0.483930
 ---------------------------------------------------------------------

 The electronic state is 1-A.
 Alpha  occ. eigenvalues --  -19.10846 -19.10318 -14.35676 -14.35500 -10.28363
 Alpha  occ. eigenvalues --  -10.27740 -10.23676 -10.21040 -10.19344 -10.18855
 Alpha  occ. eigenvalues --   -1.03304  -1.01847  -0.91966  -0.91282  -0.77995
 Alpha  occ. eigenvalues --   -0.72702  -0.70469  -0.63894  -0.58665  -0.56922
 Alpha  occ. eigenvalues --   -0.51536  -0.49552  -0.47747  -0.45704  -0.44028
 Alpha  occ. eigenvalues --   -0.43436  -0.42026  -0.41319  -0.39782  -0.38876
 Alpha  occ. eigenvalues --   -0.38506  -0.38242  -0.37605  -0.35877  -0.33764
 Alpha  occ. eigenvalues --   -0.26495  -0.25028  -0.24556  -0.23586
 Alpha virt. eigenvalues --    0.02109   0.03818   0.07431   0.08489   0.11961
 Alpha virt. eigenvalues --    0.12970   0.13850   0.15053   0.15355   0.16082
 Alpha virt. eigenvalues --    0.16561   0.17673   0.18302   0.18917   0.20021

 Mulliken atomic charges:
              1
     1  H    0.185769
     2  C   -0.549819
     3  H    0.190499
     4  H    0.151453
     5  C    0.608760
     6  O   -0.507557
     7  N   -0.592848
     8  H    0.323306
     9  C    0.000098
    10  H    0.136310
    11  C   -0.486659
    12  H    0.177735
    13  H    0.167516
    14  H    0.152772
    15  C    0.634071
    16  O   -0.534881
    17  N   -0.589995
    18  H    0.327168
    19  C   -0.305549
    20  H    0.191830
    21  H    0.171617
    22  H    0.148403
 Sum of Mulliken atomic charges =   0.00000

 Dipole moment (field-independent basis, Debye):
    X=             -0.2156    Y=              2.6831    Z=             -1.5430  Tot=              3.1026
 Quadrupole moment (field-independent basis, Debye-Ang):
   XX=            -48.4244   YY=            -59.4993   ZZ=            -62.2370
   XY=             -3.9508   XZ=             -6.2465   YZ=             -0.6036

 Normal termination of Gaussian 09 at Sat Feb 11 01:05:14 2017.
