 Gaussian 09, Revision A.02,
 Gaussian 09:  EM64L-G09RevA.02 11-Jun-2009

 ----------------------------------------------------------------------
 # b3lyp/6-31G* Opt=(ModRedundant, maxcycles=1000, calcfc) geom=nocrowd
 ----------------------------------------------------------------------

 ------------------
 Phi Psi fixed scan
 ------------------
 Symbolic Z-matrix:
 Charge =  0 Multiplicity = 1

 SCF Done:  E(RB3LYP) =  -495.794864984     A.U. after   15 cycles

  Exact polarizability:   0.000   0.000   0.000   0.000   0.000   0.000
 Approx polarizability: 109.375  -8.293 131.349   5.349  10.492 100.308

 SCF Done:  E(RB3LYP) =  -495.809164583     A.U. after   13 cycles
 SCF Done:  E(RB3LYP) =  -495.826433438     A.U. after   14 cycles
 SCF Done:  E(RB3LYP) =  -495.836082174     A.U. after   13 cycles
 SCF Done:  E(RB3LYP) =  -495.837081418     A.U. after   15 cycles
 SCF Done:  E(RB3LYP) =  -495.839057122     A.U. after   13 cycles
 SCF Done:  E(RB3LYP) =  -495.840098613     A.U. after   13 cycles
 SCF Done:  E(RB3LYP) =  -495.840963149     A.U. after   14 cycles
 SCF Done:  E(RB3LYP) =  -495.842799354     A.U. after   12 cycles
 SCF Done:  E(RB3LYP) =  -495.843146746     A.U. after   12 cycles
 SCF Done:  E(RB3LYP) =  -495.843262535     A.U. after   12 cycles
 SCF Done:  E(RB3LYP) =  -495.843381416     A.U. after   12 cycles
 SCF Done:  E(RB3LYP) =  -495.843428671     A.U. after   11 cycles
 SCF Done:  E(RB3LYP) =  -495.843442991     A.U. after   11 cycles
 SCF Done:  E(RB3LYP) =  -495.843447557     A.U. after   10 cycles
 SCF Done:  E(RB3LYP) =  -495.843447659     A.U. after    8 cycles
 SCF Done:  E(RB3LYP) =  -495.843447824     A.U. after    7 cycles
 SCF Done:  E(RB3LYP) =  -495.843448084     A.U. after    7 cycles
 SCF Done:  E(RB3LYP) =  -495.843448380     A.U. after    8 cycles
 SCF Done:  E(RB3LYP) =  -495.843448517     A.U. after    7 cycles
 Optimization completed.
    -- Stationary point found.

                         Standard orientation:
 ---------------------------------------------------------------------
 Center     Atomic      Atomic             Coordinates (Angstroms)
 Number     Number       Type             X           Y           Z
 ---------------------------------------------------------------------
      1          1           0       -3.672318   -1.521407    0.184751
      2          6           0       -3.119927   -0.682915    0.614058
      3          1           0       -2.976484   -0.888379    1.681329
      4          1           0       -3.713367    0.231517    0.514767
      5          6           0       -1.758226   -0.600534   -0.061698
      6          8           0       -1.157894   -1.621146   -0.394299
      7          7           0       -1.308082    0.668565   -0.299084
      8          1           0       -1.885939    1.394193    0.105950
      9          6           0        0.075870    1.133228   -0.563461
     10          1           0        0.235893    1.063976   -1.648793
     11          6           0        0.176611    2.597240   -0.143810
     12          1           0        0.103025    2.691804    0.943314
     13          1           0        1.143271    3.008239   -0.441933
     14          1           0       -0.613087    3.187621   -0.623338
     15          6           0        1.231127    0.311270    0.090249
     16          8           0        1.906131    0.804116    0.989249
     17          7           0        1.509007   -0.887895   -0.485745
     18          1           0        0.702112   -1.354485   -0.895966
     19          6           0        2.537425   -1.738082    0.096497
     20          1           0        3.432899   -1.141793    0.281533
     21          1           0        2.220291   -2.181655    1.049837
     22          1           0        2.774050   -2.539312   -0.608251
 ---------------------------------------------------------------------

 The electronic state is 1-A.
 Alpha  occ. eigenvalues --  -19.12451 -19.10718 -14.37358 -14.34064 -10.30157
 Alpha  occ. eigenvalues --  -10.27751 -10.24255 -10.20482 -10.20106 -10.18901
 Alpha  occ. eigenvalues --   -1.04235  -1.02341  -0.93291  -0.90512  -0.78537
 Alpha  occ. eigenvalues --   -0.73453  -0.70269  -0.63964  -0.59837  -0.55822
 Alpha  occ. eigenvalues --   -0.51814  -0.50304  -0.48674  -0.45807  -0.45015
 Alpha  occ. eigenvalues --   -0.43462  -0.42021  -0.41643  -0.41050  -0.39117
 Alpha  occ. eigenvalues --   -0.38466  -0.37661  -0.37410  -0.36027  -0.35386
 Alpha  occ. eigenvalues --   -0.28023  -0.26620  -0.24599  -0.23089
 Alpha virt. eigenvalues --    0.01277   0.02197   0.06746   0.10577   0.12148
 Alpha virt. eigenvalues --    0.12773   0.13670   0.14632   0.15046   0.16387
 Alpha virt. eigenvalues --    0.16825   0.17011   0.18465   0.18552   0.21375

 Mulliken atomic charges:
              1
     1  H    0.191111
     2  C   -0.540959
     3  H    0.188812
     4  H    0.153214
     5  C    0.599685
     6  O   -0.520809
     7  N   -0.604636
     8  H    0.329748
     9  C   -0.015232
    10  H    0.165611
    11  C   -0.474466
    12  H    0.175395
    13  H    0.178257
    14  H    0.139900
    15  C    0.584503
    16  O   -0.517887
    17  N   -0.585155
    18  H    0.362205
    19  C   -0.302401
    20  H    0.181601
    21  H    0.160334
    22  H    0.151167
 Sum of Mulliken atomic charges =   0.00000

 Dipole moment (field-independent basis, Debye):
    X=             -2.8394    Y=              1.1119    Z=             -0.6579  Tot=              3.1196
 Quadrupole moment (field-independent basis, Debye-Ang):
   XX=            -56.1945   YY=            -59.0490   ZZ=            -61.7056
   XY=             -7.1907   XZ=             -5.9431   YZ=             -2.7317

 Normal termination of Gaussian 09 at Sat Feb 11 01:26:24 2017.
