 Gaussian 09, Revision A.02,
 Gaussian 09:  EM64L-G09RevA.02 11-Jun-2009

 ----------------------------------------------------------------------
 # b3lyp/6-31G* Opt=(ModRedundant, maxcycles=1000, calcfc) geom=nocrowd
 ----------------------------------------------------------------------

 ------------------
 Phi Psi fixed scan
 ------------------
 Symbolic Z-matrix:
 Charge =  0 Multiplicity = 1

 SCF Done:  E(RB3LYP) =  -495.723468845     A.U. after   16 cycles

  Exact polarizability:   0.000   0.000   0.000   0.000   0.000   0.000
 Approx polarizability: 120.486   0.487 139.417   6.949   9.042  93.390

 SCF Done:  E(RB3LYP) =  -495.759235326     A.U. after   16 cycles
 SCF Done:  E(RB3LYP) =  -495.801017456     A.U. after   14 cycles
 SCF Done:  E(RB3LYP) =  -495.829530351     A.U. after   13 cycles
 SCF Done:  E(RB3LYP) =  -495.831605177     A.U. after   14 cycles
 SCF Done:  E(RB3LYP) =  -495.833750819     A.U. after   13 cycles
 SCF Done:  E(RB3LYP) =  -495.825074237     A.U. after   14 cycles
 SCF Done:  E(RB3LYP) =  -495.835710084     A.U. after   13 cycles
 SCF Done:  E(RB3LYP) =  -495.836708483     A.U. after   13 cycles
 SCF Done:  E(RB3LYP) =  -495.832318787     A.U. after   13 cycles
 SCF Done:  E(RB3LYP) =  -495.843268746     A.U. after   10 cycles
 SCF Done:  E(RB3LYP) =  -495.843286788     A.U. after   11 cycles
 SCF Done:  E(RB3LYP) =  -495.843311160     A.U. after   10 cycles
 SCF Done:  E(RB3LYP) =  -495.843363831     A.U. after   11 cycles
 SCF Done:  E(RB3LYP) =  -495.843386824     A.U. after   11 cycles
 SCF Done:  E(RB3LYP) =  -495.843396795     A.U. after   11 cycles
 SCF Done:  E(RB3LYP) =  -495.843400134     A.U. after   10 cycles
 SCF Done:  E(RB3LYP) =  -495.843401719     A.U. after   10 cycles
 SCF Done:  E(RB3LYP) =  -495.843402124     A.U. after    7 cycles
 SCF Done:  E(RB3LYP) =  -495.843402140     A.U. after    6 cycles
 Optimization completed.
    -- Stationary point found.

                         Standard orientation:
 ---------------------------------------------------------------------
 Center     Atomic      Atomic             Coordinates (Angstroms)
 Number     Number       Type             X           Y           Z
 ---------------------------------------------------------------------
      1          1           0       -3.816843   -1.279141    0.058440
      2          6           0       -3.197582   -0.543824    0.577249
      3          1           0       -3.109061   -0.863879    1.621691
      4          1           0       -3.696321    0.430104    0.553037
      5          6           0       -1.812070   -0.544911   -0.055161
      6          8           0       -1.283819   -1.608299   -0.381992
      7          7           0       -1.273175    0.692858   -0.254410
      8          1           0       -1.832283    1.444210    0.127712
      9          6           0        0.120435    1.131648   -0.529057
     10          1           0        0.252858    1.101957   -1.621091
     11          6           0        0.249058    2.582042   -0.067204
     12          1           0        0.165098    2.652571    1.021721
     13          1           0        1.226999    2.976737   -0.344378
     14          1           0       -0.525636    3.200845   -0.535712
     15          6           0        1.302202    0.283561    0.041567
     16          8           0        2.168442    0.837104    0.715266
     17          7           0        1.383183   -1.006846   -0.356927
     18          1           0        0.510528   -1.448460   -0.648971
     19          6           0        2.461654   -1.849408    0.134859
     20          1           0        3.415632   -1.331893    0.011051
     21          1           0        2.345992   -2.093475    1.199354
     22          1           0        2.473824   -2.776744   -0.443208
 ---------------------------------------------------------------------

 The electronic state is 1-A.
 Alpha  occ. eigenvalues --  -19.12709 -19.10339 -14.37676 -14.33788 -10.30470
 Alpha  occ. eigenvalues --  -10.27645 -10.24461 -10.20461 -10.20288 -10.18862
 Alpha  occ. eigenvalues --   -1.04444  -1.02099  -0.93557  -0.90276  -0.78667
 Alpha  occ. eigenvalues --   -0.73548  -0.70251  -0.64086  -0.60099  -0.55990
 Alpha  occ. eigenvalues --   -0.51905  -0.50510  -0.48820  -0.45594  -0.45201
 Alpha  occ. eigenvalues --   -0.43452  -0.41983  -0.41694  -0.41237  -0.39304
 Alpha  occ. eigenvalues --   -0.38483  -0.37516  -0.37402  -0.36336  -0.35163
 Alpha  occ. eigenvalues --   -0.28060  -0.26622  -0.24305  -0.23120
 Alpha virt. eigenvalues --    0.01219   0.02601   0.06450   0.10589   0.12164
 Alpha virt. eigenvalues --    0.12879   0.13886   0.14574   0.15034   0.16311
 Alpha virt. eigenvalues --    0.16689   0.16865   0.18317   0.18908   0.21428

 Mulliken atomic charges:
              1
     1  H    0.192174
     2  C   -0.537510
     3  H    0.189538
     4  H    0.151422
     5  C    0.602856
     6  O   -0.523293
     7  N   -0.610666
     8  H    0.332171
     9  C   -0.020687
    10  H    0.172245
    11  C   -0.471563
    12  H    0.168254
    13  H    0.187022
    14  H    0.137534
    15  C    0.588093
    16  O   -0.523470
    17  N   -0.600684
    18  H    0.375352
    19  C   -0.298103
    20  H    0.179126
    21  H    0.158927
    22  H    0.151262
 Sum of Mulliken atomic charges =   0.00000

 Dipole moment (field-independent basis, Debye):
    X=             -3.2245    Y=              1.1177    Z=             -0.2806  Tot=              3.4242
 Quadrupole moment (field-independent basis, Debye-Ang):
   XX=            -58.3366   YY=            -58.9889   ZZ=            -60.7057
   XY=             -8.1844   XZ=             -5.5149   YZ=             -2.5986

 Normal termination of Gaussian 09 at Sat Feb 11 01:57:44 2017.
