 Gaussian 09, Revision A.02,
 Gaussian 09:  EM64L-G09RevA.02 11-Jun-2009

 ----------------------------------------------------------------------
 # b3lyp/6-31G* Opt=(ModRedundant, maxcycles=1000, calcfc) geom=nocrowd
 ----------------------------------------------------------------------

 ------------------
 Phi Psi fixed scan
 ------------------
 Symbolic Z-matrix:
 Charge =  0 Multiplicity = 1

 SCF Done:  E(RB3LYP) =  -495.353423186     A.U. after   20 cycles

  Exact polarizability:   0.000   0.000   0.000   0.000   0.000   0.000
 Approx polarizability: 192.955 -21.603 155.234  -0.925  -2.633  84.306

 SCF Done:  E(RB3LYP) =  -495.465944334     A.U. after   16 cycles
 SCF Done:  E(RB3LYP) =  -495.633823767     A.U. after   15 cycles
 SCF Done:  E(RB3LYP) =  -495.765464898     A.U. after   13 cycles
 SCF Done:  E(RB3LYP) =  -495.810088358     A.U. after   13 cycles
 SCF Done:  E(RB3LYP) =  -495.805764921     A.U. after   14 cycles
 SCF Done:  E(RB3LYP) =  -495.816509530     A.U. after   13 cycles
 SCF Done:  E(RB3LYP) =  -495.820976018     A.U. after   12 cycles
 SCF Done:  E(RB3LYP) =  -495.826381663     A.U. after   13 cycles
 SCF Done:  E(RB3LYP) =  -495.831526407     A.U. after   13 cycles
 SCF Done:  E(RB3LYP) =  -495.843280235     A.U. after   11 cycles
 SCF Done:  E(RB3LYP) =  -495.843323632     A.U. after   10 cycles
 SCF Done:  E(RB3LYP) =  -495.843336837     A.U. after    9 cycles
 SCF Done:  E(RB3LYP) =  -495.843349163     A.U. after   10 cycles
 SCF Done:  E(RB3LYP) =  -495.843364413     A.U. after   10 cycles
 SCF Done:  E(RB3LYP) =  -495.843388179     A.U. after   11 cycles
 SCF Done:  E(RB3LYP) =  -495.843398067     A.U. after    9 cycles
 SCF Done:  E(RB3LYP) =  -495.843398945     A.U. after    9 cycles
 SCF Done:  E(RB3LYP) =  -495.843399065     A.U. after    7 cycles
 SCF Done:  E(RB3LYP) =  -495.843399076     A.U. after    6 cycles
 Optimization completed.
    -- Stationary point found.

                         Standard orientation:
 ---------------------------------------------------------------------
 Center     Atomic      Atomic             Coordinates (Angstroms)
 Number     Number       Type             X           Y           Z
 ---------------------------------------------------------------------
      1          1           0       -3.477771   -0.982688    1.234055
      2          6           0       -3.346816   -0.385937    0.325800
      3          1           0       -3.710913    0.628794    0.512923
      4          1           0       -3.958579   -0.845498   -0.455790
      5          6           0       -1.885569   -0.465611   -0.098661
      6          8           0       -1.403753   -1.557004   -0.410652
      7          7           0       -1.232919    0.727900   -0.117922
      8          1           0       -1.795882    1.504202    0.200898
      9          6           0        0.163251    1.151399   -0.397840
     10          1           0        0.232507    1.330740   -1.481504
     11          6           0        0.373584    2.495666    0.311718
     12          1           0        0.278942    2.378109    1.397270
     13          1           0        1.375216    2.862303    0.090443
     14          1           0       -0.361539    3.235038   -0.029215
     15          6           0        1.392132    0.237015   -0.110238
     16          8           0        2.497700    0.777384   -0.135552
     17          7           0        1.218723   -1.077290    0.121240
     18          1           0        0.299631   -1.485602   -0.062315
     19          6           0        2.376568   -1.940279    0.289759
     20          1           0        2.949249   -2.042540   -0.640825
     21          1           0        3.045953   -1.526681    1.048894
     22          1           0        2.032084   -2.927007    0.608346
 ---------------------------------------------------------------------

 The electronic state is 1-A.
 Alpha  occ. eigenvalues --  -19.12764 -19.09815 -14.37967 -14.33805 -10.30720
 Alpha  occ. eigenvalues --  -10.27651 -10.24681 -10.20484 -10.20435 -10.18931
 Alpha  occ. eigenvalues --   -1.04585  -1.01886  -0.93802  -0.90196  -0.78817
 Alpha  occ. eigenvalues --   -0.73645  -0.70135  -0.64401  -0.60441  -0.56433
 Alpha  occ. eigenvalues --   -0.52039  -0.50826  -0.48625  -0.45599  -0.45337
 Alpha  occ. eigenvalues --   -0.43207  -0.42154  -0.41770  -0.41206  -0.39847
 Alpha  occ. eigenvalues --   -0.38682  -0.37804  -0.37367  -0.36503  -0.34399
 Alpha  occ. eigenvalues --   -0.27358  -0.26718  -0.24120  -0.23508
 Alpha virt. eigenvalues --    0.01165   0.03573   0.05872   0.10999   0.12291
 Alpha virt. eigenvalues --    0.12829   0.13639   0.15002   0.15216   0.16164
 Alpha virt. eigenvalues --    0.16581   0.17033   0.18550   0.19037   0.20408

 Mulliken atomic charges:
              1
     1  H    0.190638
     2  C   -0.532803
     3  H    0.147435
     4  H    0.192964
     5  C    0.605167
     6  O   -0.531070
     7  N   -0.618405
     8  H    0.333278
     9  C   -0.017249
    10  H    0.181058
    11  C   -0.481974
    12  H    0.158774
    13  H    0.206252
    14  H    0.136889
    15  C    0.605927
    16  O   -0.537087
    17  N   -0.624951
    18  H    0.391213
    19  C   -0.295596
    20  H    0.163162
    21  H    0.175724
    22  H    0.150653
 Sum of Mulliken atomic charges =   0.00000

 Dipole moment (field-independent basis, Debye):
    X=             -3.8249    Y=              1.2425    Z=              0.8711  Tot=              4.1149
 Quadrupole moment (field-independent basis, Debye-Ang):
   XX=            -61.0886   YY=            -58.3212   ZZ=            -59.6073
   XY=             -9.1596   XZ=             -1.1528   YZ=             -1.3725

 Normal termination of Gaussian 09 at Sat Feb 11 01:17:55 2017.
