 Gaussian 09, Revision A.02,
 Gaussian 09:  EM64L-G09RevA.02 11-Jun-2009

 ----------------------------------------------------------------------
 # b3lyp/6-31G* Opt=(ModRedundant, maxcycles=1000, calcfc) geom=nocrowd
 ----------------------------------------------------------------------

 ------------------
 Phi Psi fixed scan
 ------------------
 Symbolic Z-matrix:
 Charge =  0 Multiplicity = 1

 SCF Done:  E(RB3LYP) =  -495.764055567     A.U. after   16 cycles

  Exact polarizability:   0.000   0.000   0.000   0.000   0.000   0.000
 Approx polarizability: 125.637   0.620 128.927 -15.959   0.382  94.626

 SCF Done:  E(RB3LYP) =  -495.785886752     A.U. after   13 cycles
 SCF Done:  E(RB3LYP) =  -495.810125920     A.U. after   13 cycles
 SCF Done:  E(RB3LYP) =  -495.828061762     A.U. after   13 cycles
 SCF Done:  E(RB3LYP) =  -495.830703471     A.U. after   15 cycles
 SCF Done:  E(RB3LYP) =  -495.829388966     A.U. after   15 cycles
 SCF Done:  E(RB3LYP) =  -495.836555021     A.U. after   13 cycles
 SCF Done:  E(RB3LYP) =  -495.838966304     A.U. after   12 cycles
 SCF Done:  E(RB3LYP) =  -495.840698931     A.U. after   13 cycles
 SCF Done:  E(RB3LYP) =  -495.841760163     A.U. after   12 cycles
 SCF Done:  E(RB3LYP) =  -495.842554472     A.U. after   13 cycles
 SCF Done:  E(RB3LYP) =  -495.842668723     A.U. after   13 cycles
 SCF Done:  E(RB3LYP) =  -495.842752100     A.U. after   12 cycles
 SCF Done:  E(RB3LYP) =  -495.842791558     A.U. after   11 cycles
 SCF Done:  E(RB3LYP) =  -495.842797454     A.U. after   10 cycles
 SCF Done:  E(RB3LYP) =  -495.842802018     A.U. after    9 cycles
 SCF Done:  E(RB3LYP) =  -495.842805472     A.U. after   10 cycles
 SCF Done:  E(RB3LYP) =  -495.842806553     A.U. after    8 cycles
 SCF Done:  E(RB3LYP) =  -495.842807114     A.U. after    8 cycles
 SCF Done:  E(RB3LYP) =  -495.842807163     A.U. after    7 cycles
 Optimization completed.
    -- Stationary point found.

                         Standard orientation:
 ---------------------------------------------------------------------
 Center     Atomic      Atomic             Coordinates (Angstroms)
 Number     Number       Type             X           Y           Z
 ---------------------------------------------------------------------
      1          1           0       -3.924909   -0.729468   -0.684656
      2          6           0       -3.362564   -0.419319    0.201621
      3          1           0       -3.555885   -1.159335    0.983846
      4          1           0       -3.733244    0.555579    0.532608
      5          6           0       -1.877639   -0.447381   -0.137554
      6          8           0       -1.342740   -1.499438   -0.490441
      7          7           0       -1.239535    0.748822   -0.019289
      8          1           0       -1.818778    1.509997    0.307943
      9          6           0        0.138582    1.182049   -0.331507
     10          1           0        0.152418    1.518666   -1.376450
     11          6           0        0.460807    2.392346    0.560680
     12          1           0        0.471623    2.100785    1.616643
     13          1           0        1.442745    2.783010    0.290124
     14          1           0       -0.281435    3.188958    0.423585
     15          6           0        1.346316    0.211798   -0.252311
     16          8           0        2.411403    0.643711   -0.684830
     17          7           0        1.222400   -0.974749    0.392837
     18          1           0        0.302605   -1.409383    0.329244
     19          6           0        2.376037   -1.863064    0.449951
     20          1           0        3.240935   -1.311664    0.824552
     21          1           0        2.149103   -2.687768    1.130284
     22          1           0        2.636225   -2.270658   -0.535667
 ---------------------------------------------------------------------

 The electronic state is 1-A.
 Alpha  occ. eigenvalues --  -19.12376 -19.10230 -14.37806 -14.34028 -10.30482
 Alpha  occ. eigenvalues --  -10.27834 -10.24473 -10.20450 -10.20348 -10.19330
 Alpha  occ. eigenvalues --   -1.04365  -1.02206  -0.93667  -0.90369  -0.78840
 Alpha  occ. eigenvalues --   -0.73686  -0.69915  -0.64573  -0.60455  -0.56184
 Alpha  occ. eigenvalues --   -0.52073  -0.50684  -0.48318  -0.45857  -0.45233
 Alpha  occ. eigenvalues --   -0.43002  -0.42347  -0.41695  -0.41182  -0.40063
 Alpha  occ. eigenvalues --   -0.38944  -0.37938  -0.37350  -0.36327  -0.34393
 Alpha  occ. eigenvalues --   -0.26962  -0.26650  -0.24611  -0.23680
 Alpha virt. eigenvalues --    0.01193   0.02944   0.05742   0.11069   0.12145
 Alpha virt. eigenvalues --    0.12471   0.13902   0.15136   0.16082   0.16312
 Alpha virt. eigenvalues --    0.16613   0.17220   0.18366   0.18932   0.19720

 Mulliken atomic charges:
              1
     1  H    0.192559
     2  C   -0.533284
     3  H    0.189458
     4  H    0.146278
     5  C    0.599725
     6  O   -0.530813
     7  N   -0.614672
     8  H    0.328800
     9  C   -0.001606
    10  H    0.178530
    11  C   -0.478581
    12  H    0.163138
    13  H    0.198334
    14  H    0.139498
    15  C    0.594725
    16  O   -0.530226
    17  N   -0.606572
    18  H    0.374271
    19  C   -0.301150
    20  H    0.178973
    21  H    0.149096
    22  H    0.163519
 Sum of Mulliken atomic charges =   0.00000

 Dipole moment (field-independent basis, Debye):
    X=             -3.7602    Y=              1.5011    Z=              1.9259  Tot=              4.4835
 Quadrupole moment (field-independent basis, Debye-Ang):
   XX=            -59.6168   YY=            -57.5472   ZZ=            -61.0269
   XY=             -8.0430   XZ=              1.7587   YZ=             -1.0056

 Normal termination of Gaussian 09 at Sat Feb 11 01:37:23 2017.
