 Gaussian 09, Revision A.02,
 Gaussian 09:  EM64L-G09RevA.02 11-Jun-2009

 ----------------------------------------------------------------------
 # b3lyp/6-31G* Opt=(ModRedundant, maxcycles=1000, calcfc) geom=nocrowd
 ----------------------------------------------------------------------

 ------------------
 Phi Psi fixed scan
 ------------------
 Symbolic Z-matrix:
 Charge =  0 Multiplicity = 1

 SCF Done:  E(RB3LYP) =  -495.791929919     A.U. after   15 cycles

  Exact polarizability:   0.000   0.000   0.000   0.000   0.000   0.000
 Approx polarizability: 124.691  -1.285 125.199 -13.117  -7.827  91.645

 SCF Done:  E(RB3LYP) =  -495.805981472     A.U. after   13 cycles
 SCF Done:  E(RB3LYP) =  -495.818474775     A.U. after   15 cycles
 SCF Done:  E(RB3LYP) =  -495.820230865     A.U. after   14 cycles
 SCF Done:  E(RB3LYP) =  -495.800994734     A.U. after   15 cycles
 SCF Done:  E(RB3LYP) =  -495.822005602     A.U. after   14 cycles
 SCF Done:  E(RB3LYP) =  -495.823943840     A.U. after   12 cycles
 SCF Done:  E(RB3LYP) =  -495.825332644     A.U. after   12 cycles
 SCF Done:  E(RB3LYP) =  -495.826162803     A.U. after   12 cycles
 SCF Done:  E(RB3LYP) =  -495.776880402     A.U. after   15 cycles
 SCF Done:  E(RB3LYP) =  -495.837462375     A.U. after   11 cycles
 SCF Done:  E(RB3LYP) =  -495.837470370     A.U. after   10 cycles
 SCF Done:  E(RB3LYP) =  -495.837478774     A.U. after   11 cycles
 SCF Done:  E(RB3LYP) =  -495.837482311     A.U. after   10 cycles
 SCF Done:  E(RB3LYP) =  -495.837484985     A.U. after   11 cycles
 SCF Done:  E(RB3LYP) =  -495.837486615     A.U. after   10 cycles
 SCF Done:  E(RB3LYP) =  -495.837488024     A.U. after   10 cycles
 SCF Done:  E(RB3LYP) =  -495.837488893     A.U. after   10 cycles
 SCF Done:  E(RB3LYP) =  -495.837489126     A.U. after    8 cycles
 SCF Done:  E(RB3LYP) =  -495.837489118     A.U. after    6 cycles
 Optimization completed.
    -- Stationary point found.

                         Standard orientation:
 ---------------------------------------------------------------------
 Center     Atomic      Atomic             Coordinates (Angstroms)
 Number     Number       Type             X           Y           Z
 ---------------------------------------------------------------------
      1          1           0       -2.782660   -0.863915    1.600125
      2          6           0       -3.111371   -0.615886    0.583691
      3          1           0       -3.736859    0.282577    0.633457
      4          1           0       -3.699513   -1.449635    0.196721
      5          6           0       -1.884000   -0.427004   -0.290505
      6          8           0       -1.427215   -1.309037   -0.996757
      7          7           0       -1.349424    0.859863   -0.284852
      8          1           0       -1.733372    1.438612    0.455045
      9          6           0        0.089132    1.065773   -0.447210
     10          1           0        0.308461    1.163481   -1.520158
     11          6           0        0.491064    2.369510    0.256735
     12          1           0        0.346779    2.277041    1.339628
     13          1           0        1.543507    2.602360    0.075824
     14          1           0       -0.116421    3.203627   -0.111482
     15          6           0        0.931562   -0.110800    0.107421
     16          8           0        0.535437   -0.833602    1.009591
     17          7           0        2.234874   -0.098109   -0.316670
     18          1           0        2.436621    0.375813   -1.187431
     19          6           0        3.173144   -1.125453    0.110964
     20          1           0        2.905518   -1.422663    1.125605
     21          1           0        3.137631   -2.015480   -0.530727
     22          1           0        4.189199   -0.719833    0.104802
 ---------------------------------------------------------------------

 The electronic state is 1-A.
 Alpha  occ. eigenvalues --  -19.11026 -19.10129 -14.36174 -14.34952 -10.28289
 Alpha  occ. eigenvalues --  -10.27727 -10.23922 -10.21672 -10.19926 -10.18227
 Alpha  occ. eigenvalues --   -1.03437  -1.01661  -0.91938  -0.91493  -0.78005
 Alpha  occ. eigenvalues --   -0.72351  -0.70782  -0.64250  -0.58522  -0.56927
 Alpha  occ. eigenvalues --   -0.51728  -0.48999  -0.47463  -0.45618  -0.44201
 Alpha  occ. eigenvalues --   -0.43440  -0.42657  -0.41310  -0.39927  -0.39209
 Alpha  occ. eigenvalues --   -0.38576  -0.38327  -0.37896  -0.36005  -0.33261
 Alpha  occ. eigenvalues --   -0.26868  -0.25031  -0.24324  -0.23415
 Alpha virt. eigenvalues --    0.02196   0.03515   0.06765   0.08351   0.12013
 Alpha virt. eigenvalues --    0.12699   0.14228   0.14563   0.15148   0.15946
 Alpha virt. eigenvalues --    0.16426   0.16722   0.17517   0.18894   0.19532

 Mulliken atomic charges:
              1
     1  H    0.189761
     2  C   -0.553698
     3  H    0.150891
     4  H    0.183759
     5  C    0.610818
     6  O   -0.495592
     7  N   -0.591947
     8  H    0.316938
     9  C   -0.020072
    10  H    0.148942
    11  C   -0.479038
    12  H    0.165880
    13  H    0.163251
    14  H    0.163269
    15  C    0.626425
    16  O   -0.517912
    17  N   -0.594026
    18  H    0.322378
    19  C   -0.305702
    20  H    0.198201
    21  H    0.166035
    22  H    0.151438
 Sum of Mulliken atomic charges =   0.00000

 Dipole moment (field-independent basis, Debye):
    X=              1.7773    Y=              3.7432    Z=              0.1250  Tot=              4.1456
 Quadrupole moment (field-independent basis, Debye-Ang):
   XX=            -48.1162   YY=            -60.7862   ZZ=            -61.7231
   XY=             -3.0125   XZ=             -7.4643   YZ=             -0.7492

 Normal termination of Gaussian 09 at Sat Feb 11 01:12:08 2017.
