 Gaussian 09, Revision A.02,
 Gaussian 09:  EM64L-G09RevA.02 11-Jun-2009

 ----------------------------------------------------------------------
 # b3lyp/6-31G* Opt=(ModRedundant, maxcycles=1000, calcfc) geom=nocrowd
 ----------------------------------------------------------------------

 ------------------
 Phi Psi fixed scan
 ------------------
 Symbolic Z-matrix:
 Charge =  0 Multiplicity = 1

 SCF Done:  E(RB3LYP) =  -495.821778663     A.U. after   15 cycles

  Exact polarizability:   0.000   0.000   0.000   0.000   0.000   0.000
 Approx polarizability: 102.438   8.626 118.095  -4.246 -11.948 117.341

 SCF Done:  E(RB3LYP) =  -495.827100459     A.U. after   12 cycles
 SCF Done:  E(RB3LYP) =  -495.834169096     A.U. after   13 cycles
 SCF Done:  E(RB3LYP) =  -495.836768725     A.U. after   12 cycles
 SCF Done:  E(RB3LYP) =  -495.837611081     A.U. after   13 cycles
 SCF Done:  E(RB3LYP) =  -495.812403998     A.U. after   14 cycles
 SCF Done:  E(RB3LYP) =  -495.838081996     A.U. after   14 cycles
 SCF Done:  E(RB3LYP) =  -495.838178432     A.U. after   12 cycles
 SCF Done:  E(RB3LYP) =  -495.832026950     A.U. after   13 cycles
 SCF Done:  E(RB3LYP) =  -495.838180005     A.U. after   13 cycles
 SCF Done:  E(RB3LYP) =  -495.838373494     A.U. after   12 cycles
 SCF Done:  E(RB3LYP) =  -495.838407393     A.U. after   12 cycles
 SCF Done:  E(RB3LYP) =  -495.838437057     A.U. after   12 cycles
 SCF Done:  E(RB3LYP) =  -495.838466222     A.U. after   12 cycles
 SCF Done:  E(RB3LYP) =  -495.838469431     A.U. after   10 cycles
 SCF Done:  E(RB3LYP) =  -495.838469873     A.U. after    8 cycles
 SCF Done:  E(RB3LYP) =  -495.838470069     A.U. after    7 cycles
 SCF Done:  E(RB3LYP) =  -495.838470133     A.U. after    7 cycles
 SCF Done:  E(RB3LYP) =  -495.838470201     A.U. after    7 cycles
 SCF Done:  E(RB3LYP) =  -495.838470222     A.U. after    7 cycles
 Optimization completed.
    -- Stationary point found.

                         Standard orientation:
 ---------------------------------------------------------------------
 Center     Atomic      Atomic             Coordinates (Angstroms)
 Number     Number       Type             X           Y           Z
 ---------------------------------------------------------------------
      1          1           0        3.402131   -1.617548   -0.813389
      2          6           0        3.247926   -0.652491   -0.325743
      3          1           0        3.618229    0.146530   -0.976551
      4          1           0        3.838403   -0.648574    0.597783
      5          6           0        1.772318   -0.515317    0.028237
      6          8           0        1.104555   -1.467965    0.404499
      7          7           0        1.259037    0.749189   -0.120118
      8          1           0        1.911445    1.484255   -0.360674
      9          6           0       -0.038054    1.211515    0.391783
     10          1           0        0.078864    1.510771    1.441010
     11          6           0       -0.510352    2.421792   -0.420551
     12          1           0       -0.645428    2.173630   -1.477956
     13          1           0       -1.463413    2.788980   -0.028627
     14          1           0        0.217732    3.240181   -0.351706
     15          6           0       -1.104871    0.091512    0.469333
     16          8           0       -1.563679   -0.253116    1.545934
     17          7           0       -1.646708   -0.289072   -0.733198
     18          1           0       -1.046888   -0.173534   -1.541228
     19          6           0       -2.556041   -1.427510   -0.773515
     20          1           0       -3.291512   -1.310448    0.023640
     21          1           0       -3.067777   -1.444427   -1.739741
     22          1           0       -2.030654   -2.378991   -0.620078
 ---------------------------------------------------------------------

 The electronic state is 1-A.
 Alpha  occ. eigenvalues --  -19.11292 -19.10120 -14.36769 -14.34957 -10.29205
 Alpha  occ. eigenvalues --  -10.27686 -10.23748 -10.20629 -10.19754 -10.19684
 Alpha  occ. eigenvalues --   -1.03521  -1.01969  -0.92823  -0.90711  -0.78477
 Alpha  occ. eigenvalues --   -0.73300  -0.69770  -0.64683  -0.59636  -0.56587
 Alpha  occ. eigenvalues --   -0.51517  -0.50196  -0.47743  -0.45087  -0.44392
 Alpha  occ. eigenvalues --   -0.43434  -0.42309  -0.41700  -0.40257  -0.39754
 Alpha  occ. eigenvalues --   -0.38932  -0.38027  -0.37591  -0.35410  -0.35212
 Alpha  occ. eigenvalues --   -0.26083  -0.24947  -0.24769  -0.23509
 Alpha virt. eigenvalues --    0.02278   0.03018   0.06250   0.08806   0.11438
 Alpha virt. eigenvalues --    0.12855   0.13478   0.14579   0.15239   0.15644
 Alpha virt. eigenvalues --    0.16749   0.17698   0.18445   0.18686   0.19754

 Mulliken atomic charges:
              1
     1  H    0.188484
     2  C   -0.542148
     3  H    0.146171
     4  H    0.187132
     5  C    0.592296
     6  O   -0.491647
     7  N   -0.612817
     8  H    0.318653
     9  C   -0.025577
    10  H    0.173002
    11  C   -0.464472
    12  H    0.152394
    13  H    0.177188
    14  H    0.143615
    15  C    0.620385
    16  O   -0.509320
    17  N   -0.575926
    18  H    0.321488
    19  C   -0.305767
    20  H    0.189918
    21  H    0.144459
    22  H    0.172489
 Sum of Mulliken atomic charges =   0.00000

 Dipole moment (field-independent basis, Debye):
    X=              2.4665    Y=              3.1272    Z=             -3.8978  Tot=              5.5728
 Quadrupole moment (field-independent basis, Debye-Ang):
   XX=            -53.1501   YY=            -58.6237   ZZ=            -62.5458
   XY=              3.9804   XZ=              4.0163   YZ=              3.4855

 Normal termination of Gaussian 09 at Sat Feb 11 01:17:22 2017.
