 Gaussian 09, Revision A.02,
 Gaussian 09:  EM64L-G09RevA.02 11-Jun-2009

 ----------------------------------------------------------------------
 # b3lyp/6-31G* Opt=(ModRedundant, maxcycles=1000, calcfc) geom=nocrowd
 ----------------------------------------------------------------------

 ------------------
 Phi Psi fixed scan
 ------------------
 Symbolic Z-matrix:
 Charge =  0 Multiplicity = 1

 SCF Done:  E(RB3LYP) =  -495.025099779     A.U. after   21 cycles

  Exact polarizability:   0.000   0.000   0.000   0.000   0.000   0.000
 Approx polarizability: 188.524 -22.407 151.930   3.271   0.521  84.838

 SCF Done:  E(RB3LYP) =  -495.205976222     A.U. after   17 cycles
 SCF Done:  E(RB3LYP) =  -495.456527781     A.U. after   18 cycles
 SCF Done:  E(RB3LYP) =  -495.666061658     A.U. after   15 cycles
 SCF Done:  E(RB3LYP) =  -495.753641588     A.U. after   15 cycles
 SCF Done:  E(RB3LYP) =  -495.764088692     A.U. after   14 cycles
 SCF Done:  E(RB3LYP) =  -495.789311240     A.U. after   13 cycles
 SCF Done:  E(RB3LYP) =  -495.808482333     A.U. after   13 cycles
 SCF Done:  E(RB3LYP) =  -495.816264289     A.U. after   13 cycles
 SCF Done:  E(RB3LYP) =  -495.816695334     A.U. after   13 cycles
 SCF Done:  E(RB3LYP) =  -495.843188604     A.U. after   12 cycles
 SCF Done:  E(RB3LYP) =  -495.843246458     A.U. after   11 cycles
 SCF Done:  E(RB3LYP) =  -495.843277495     A.U. after   10 cycles
 SCF Done:  E(RB3LYP) =  -495.843286565     A.U. after   10 cycles
 SCF Done:  E(RB3LYP) =  -495.843288303     A.U. after   10 cycles
 SCF Done:  E(RB3LYP) =  -495.843289143     A.U. after    7 cycles
 SCF Done:  E(RB3LYP) =  -495.843292920     A.U. after   10 cycles
 SCF Done:  E(RB3LYP) =  -495.843294784     A.U. after   10 cycles
 SCF Done:  E(RB3LYP) =  -495.843295445     A.U. after    8 cycles
 SCF Done:  E(RB3LYP) =  -495.843295443     A.U. after    7 cycles
 Optimization completed.
    -- Stationary point found.

                         Standard orientation:
 ---------------------------------------------------------------------
 Center     Atomic      Atomic             Coordinates (Angstroms)
 Number     Number       Type             X           Y           Z
 ---------------------------------------------------------------------
      1          1           0       -3.951537   -0.936765   -0.303012
      2          6           0       -3.316038   -0.405432    0.410699
      3          1           0       -3.387728   -0.933844    1.367041
      4          1           0       -3.697027    0.612059    0.540573
      5          6           0       -1.874797   -0.482569   -0.077774
      6          8           0       -1.398442   -1.577265   -0.386237
      7          7           0       -1.238396    0.717669   -0.163460
      8          1           0       -1.795961    1.493137    0.166755
      9          6           0        0.160744    1.140218   -0.439172
     10          1           0        0.253074    1.240135   -1.532137
     11          6           0        0.335261    2.533274    0.174219
     12          1           0        0.220772    2.493800    1.263352
     13          1           0        1.336188    2.901684   -0.045982
     14          1           0       -0.403769    3.231632   -0.236888
     15          6           0        1.381561    0.248229   -0.051405
     16          8           0        2.457529    0.813579    0.144713
     17          7           0        1.244465   -1.088943   -0.032954
     18          1           0        0.331868   -1.498311   -0.243820
     19          6           0        2.396192   -1.936391    0.225068
     20          1           0        3.144082   -1.849648   -0.572127
     21          1           0        2.880175   -1.656435    1.166254
     22          1           0        2.057138   -2.973018    0.287271
 ---------------------------------------------------------------------

 The electronic state is 1-A.
 Alpha  occ. eigenvalues --  -19.12821 -19.09806 -14.37944 -14.33731 -10.30713
 Alpha  occ. eigenvalues --  -10.27573 -10.24686 -10.20501 -10.20425 -10.18822
 Alpha  occ. eigenvalues --   -1.04593  -1.01833  -0.93781  -0.90137  -0.78784
 Alpha  occ. eigenvalues --   -0.73616  -0.70209  -0.64299  -0.60373  -0.56434
 Alpha  occ. eigenvalues --   -0.52002  -0.50781  -0.48747  -0.45491  -0.45324
 Alpha  occ. eigenvalues --   -0.43347  -0.42054  -0.41769  -0.41210  -0.39696
 Alpha  occ. eigenvalues --   -0.38526  -0.37743  -0.37406  -0.36490  -0.34557
 Alpha  occ. eigenvalues --   -0.27640  -0.26635  -0.23785  -0.23565
 Alpha virt. eigenvalues --    0.01177   0.03563   0.06024   0.10836   0.12242
 Alpha virt. eigenvalues --    0.13019   0.13636   0.14659   0.15189   0.15970
 Alpha virt. eigenvalues --    0.16581   0.16971   0.18438   0.19103   0.20774

 Mulliken atomic charges:
              1
     1  H    0.192876
     2  C   -0.533340
     3  H    0.190684
     4  H    0.148151
     5  C    0.606184
     6  O   -0.529632
     7  N   -0.617292
     8  H    0.334111
     9  C   -0.024237
    10  H    0.180170
    11  C   -0.479184
    12  H    0.159121
    13  H    0.203942
    14  H    0.136389
    15  C    0.603691
    16  O   -0.534768
    17  N   -0.623317
    18  H    0.391826
    19  C   -0.293134
    20  H    0.165621
    21  H    0.171270
    22  H    0.150869
 Sum of Mulliken atomic charges =   0.00000

 Dipole moment (field-independent basis, Debye):
    X=             -3.7300    Y=              1.1574    Z=              0.4309  Tot=              3.9291
 Quadrupole moment (field-independent basis, Debye-Ang):
   XX=            -60.9351   YY=            -58.5842   ZZ=            -59.4816
   XY=             -9.2192   XZ=             -2.8340   YZ=             -1.7734

 Normal termination of Gaussian 09 at Sat Feb 11 01:31:15 2017.
