 Gaussian 09, Revision A.02,
 Gaussian 09:  EM64L-G09RevA.02 11-Jun-2009

 ----------------------------------------------------------------------
 # b3lyp/6-31G* Opt=(ModRedundant, maxcycles=1000, calcfc) geom=nocrowd
 ----------------------------------------------------------------------

 ------------------
 Phi Psi fixed scan
 ------------------
 Symbolic Z-matrix:
 Charge =  0 Multiplicity = 1

 SCF Done:  E(RB3LYP) =  -495.751822935     A.U. after   17 cycles

  Exact polarizability:   0.000   0.000   0.000   0.000   0.000   0.000
 Approx polarizability: 133.497   2.646 130.857  -9.659  -4.946  86.764

 SCF Done:  E(RB3LYP) =  -495.783846580     A.U. after   14 cycles
 SCF Done:  E(RB3LYP) =  -495.805411943     A.U. after   15 cycles
 SCF Done:  E(RB3LYP) =  -495.811592181     A.U. after   13 cycles
 SCF Done:  E(RB3LYP) =  -495.813452170     A.U. after   13 cycles
 SCF Done:  E(RB3LYP) =  -495.813712567     A.U. after   14 cycles
 SCF Done:  E(RB3LYP) =  -495.814174707     A.U. after   12 cycles
 SCF Done:  E(RB3LYP) =  -495.814103542     A.U. after   14 cycles
 SCF Done:  E(RB3LYP) =  -495.814252673     A.U. after   12 cycles
 SCF Done:  E(RB3LYP) =  -495.782360360     A.U. after   13 cycles
 SCF Done:  E(RB3LYP) =  -495.832156479     A.U. after   12 cycles
 SCF Done:  E(RB3LYP) =  -495.832182201     A.U. after   10 cycles
 SCF Done:  E(RB3LYP) =  -495.832186683     A.U. after   10 cycles
 SCF Done:  E(RB3LYP) =  -495.832189426     A.U. after    8 cycles
 SCF Done:  E(RB3LYP) =  -495.832193199     A.U. after    9 cycles
 SCF Done:  E(RB3LYP) =  -495.832196805     A.U. after   10 cycles
 SCF Done:  E(RB3LYP) =  -495.832199060     A.U. after   10 cycles
 SCF Done:  E(RB3LYP) =  -495.832200057     A.U. after    9 cycles
 SCF Done:  E(RB3LYP) =  -495.832200137     A.U. after    7 cycles
 SCF Done:  E(RB3LYP) =  -495.832200153     A.U. after    6 cycles
 Optimization completed.
    -- Stationary point found.

                         Standard orientation:
 ---------------------------------------------------------------------
 Center     Atomic      Atomic             Coordinates (Angstroms)
 Number     Number       Type             X           Y           Z
 ---------------------------------------------------------------------
      1          1           0        3.716908   -1.343296   -0.414601
      2          6           0        3.051918   -0.547881   -0.754528
      3          1           0        2.602307   -0.849447   -1.708166
      4          1           0        3.631556    0.367507   -0.921810
      5          6           0        1.944844   -0.356620    0.268685
      6          8           0        1.667234   -1.188877    1.111398
      7          7           0        1.326426    0.900951    0.233809
      8          1           0        1.620151    1.431179   -0.581334
      9          6           0       -0.115278    1.050316    0.444727
     10          1           0       -0.295282    1.166329    1.523754
     11          6           0       -0.579529    2.332149   -0.263178
     12          1           0       -0.491419    2.225655   -1.351035
     13          1           0       -1.622884    2.563306   -0.035887
     14          1           0        0.036130    3.179114    0.058266
     15          6           0       -0.940624   -0.180280   -0.021107
     16          8           0       -0.471257   -1.086939   -0.690889
     17          7           0       -2.292897   -0.041891    0.175968
     18          1           0       -2.596649    0.606601    0.890864
     19          6           0       -3.208536   -1.123510   -0.160337
     20          1           0       -2.844055   -1.604937   -1.068513
     21          1           0       -3.270425   -1.882331    0.630792
     22          1           0       -4.205628   -0.711610   -0.340402
 ---------------------------------------------------------------------

 The electronic state is 1-A.
 Alpha  occ. eigenvalues --  -19.11481 -19.09817 -14.36398 -14.34704 -10.28606
 Alpha  occ. eigenvalues --  -10.27540 -10.24139 -10.21909 -10.20212 -10.18040
 Alpha  occ. eigenvalues --   -1.03719  -1.01478  -0.92156  -0.91361  -0.78041
 Alpha  occ. eigenvalues --   -0.72230  -0.70825  -0.64558  -0.58555  -0.56846
 Alpha  occ. eigenvalues --   -0.51792  -0.48753  -0.47314  -0.45500  -0.44537
 Alpha  occ. eigenvalues --   -0.43534  -0.42730  -0.41417  -0.40149  -0.39473
 Alpha  occ. eigenvalues --   -0.38678  -0.38247  -0.37981  -0.36000  -0.33177
 Alpha  occ. eigenvalues --   -0.27244  -0.25259  -0.24240  -0.22976
 Alpha virt. eigenvalues --    0.02111   0.03331   0.06172   0.08413   0.11837
 Alpha virt. eigenvalues --    0.12807   0.13782   0.14559   0.15070   0.15486
 Alpha virt. eigenvalues --    0.16307   0.16863   0.17172   0.19008   0.19202

 Mulliken atomic charges:
              1
     1  H    0.183435
     2  C   -0.554458
     3  H    0.186681
     4  H    0.150760
     5  C    0.611773
     6  O   -0.488009
     7  N   -0.593201
     8  H    0.313095
     9  C   -0.032213
    10  H    0.160752
    11  C   -0.476802
    12  H    0.163033
    13  H    0.156644
    14  H    0.167123
    15  C    0.614544
    16  O   -0.504161
    17  N   -0.590606
    18  H    0.321657
    19  C   -0.304868
    20  H    0.197997
    21  H    0.164811
    22  H    0.152011
 Sum of Mulliken atomic charges =   0.00000

 Dipole moment (field-independent basis, Debye):
    X=             -2.6174    Y=              3.9625    Z=             -1.0219  Tot=              4.8576
 Quadrupole moment (field-independent basis, Debye-Ang):
   XX=            -49.1014   YY=            -61.1998   ZZ=            -61.4726
   XY=              2.5810   XZ=             -7.9682   YZ=              1.2030

 Normal termination of Gaussian 09 at Sat Feb 11 01:36:19 2017.
