 Gaussian 09, Revision A.02,
 Gaussian 09:  EM64L-G09RevA.02 11-Jun-2009

 ----------------------------------------------------------------------
 # b3lyp/6-31G* Opt=(ModRedundant, maxcycles=1000, calcfc) geom=nocrowd
 ----------------------------------------------------------------------

 ------------------
 Phi Psi fixed scan
 ------------------
 Symbolic Z-matrix:
 Charge =  0 Multiplicity = 1

 SCF Done:  E(RB3LYP) =  -495.787751194     A.U. after   16 cycles

  Exact polarizability:   0.000   0.000   0.000   0.000   0.000   0.000
 Approx polarizability: 110.283  -1.756 128.390   6.108  16.027 102.297

 SCF Done:  E(RB3LYP) =  -495.802912580     A.U. after   16 cycles
 SCF Done:  E(RB3LYP) =  -495.819586179     A.U. after   14 cycles
 SCF Done:  E(RB3LYP) =  -495.805617927     A.U. after   15 cycles
 SCF Done:  E(RB3LYP) =  -495.824474905     A.U. after   14 cycles
 SCF Done:  E(RB3LYP) =  -495.825787093     A.U. after   13 cycles
 SCF Done:  E(RB3LYP) =  -495.827340928     A.U. after   12 cycles
 SCF Done:  E(RB3LYP) =  -495.827929606     A.U. after   13 cycles
 SCF Done:  E(RB3LYP) =  -495.828247778     A.U. after   13 cycles
 SCF Done:  E(RB3LYP) =  -495.828671894     A.U. after   12 cycles
 SCF Done:  E(RB3LYP) =  -495.829059462     A.U. after   11 cycles
 SCF Done:  E(RB3LYP) =  -495.829062806     A.U. after   10 cycles
 SCF Done:  E(RB3LYP) =  -495.829064160     A.U. after    8 cycles
 SCF Done:  E(RB3LYP) =  -495.829067359     A.U. after   10 cycles
 SCF Done:  E(RB3LYP) =  -495.829070415     A.U. after   10 cycles
 SCF Done:  E(RB3LYP) =  -495.829071139     A.U. after    9 cycles
 SCF Done:  E(RB3LYP) =  -495.829071287     A.U. after    7 cycles
 SCF Done:  E(RB3LYP) =  -495.829071354     A.U. after    6 cycles
 SCF Done:  E(RB3LYP) =  -495.829071397     A.U. after    7 cycles
 SCF Done:  E(RB3LYP) =  -495.829071436     A.U. after    7 cycles
 Optimization completed.
    -- Stationary point found.

                         Standard orientation:
 ---------------------------------------------------------------------
 Center     Atomic      Atomic             Coordinates (Angstroms)
 Number     Number       Type             X           Y           Z
 ---------------------------------------------------------------------
      1          1           0        3.773838   -1.343294   -0.771454
      2          6           0        3.418873   -0.430190   -0.290856
      3          1           0        3.754575    0.438787   -0.867979
      4          1           0        3.869691   -0.370456    0.707429
      5          6           0        1.899750   -0.506323   -0.162370
      6          8           0        1.301237   -1.567046   -0.155527
      7          7           0        1.282958    0.730262   -0.106395
      8          1           0        1.926094    1.511419   -0.050751
      9          6           0       -0.025817    1.062431    0.483913
     10          1           0        0.106333    1.201104    1.565912
     11          6           0       -0.506292    2.388294   -0.117404
     12          1           0       -0.601985    2.329252   -1.207765
     13          1           0       -1.469408    2.682477    0.309082
     14          1           0        0.214325    3.186425    0.100106
     15          6           0       -1.061532   -0.094153    0.437740
     16          8           0       -1.095165   -0.927011    1.328375
     17          7           0       -2.059345    0.024554   -0.494607
     18          1           0       -1.873764    0.586748   -1.313926
     19          6           0       -3.054003   -1.030257   -0.631145
     20          1           0       -3.361824   -1.343742    0.367402
     21          1           0       -3.918619   -0.640175   -1.175266
     22          1           0       -2.658992   -1.908604   -1.157822
 ---------------------------------------------------------------------

 The electronic state is 1-A.
 Alpha  occ. eigenvalues --  -19.10561 -19.10084 -14.35962 -14.35650 -10.28448
 Alpha  occ. eigenvalues --  -10.27946 -10.24071 -10.21139 -10.19946 -10.19011
 Alpha  occ. eigenvalues --   -1.02932  -1.01915  -0.92235  -0.91152  -0.78363
 Alpha  occ. eigenvalues --   -0.72766  -0.70087  -0.64929  -0.59012  -0.57034
 Alpha  occ. eigenvalues --   -0.51244  -0.50157  -0.47026  -0.44803  -0.44103
 Alpha  occ. eigenvalues --   -0.43944  -0.42468  -0.41626  -0.40186  -0.39407
 Alpha  occ. eigenvalues --   -0.38855  -0.38052  -0.37758  -0.35773  -0.34567
 Alpha  occ. eigenvalues --   -0.25742  -0.25029  -0.23792  -0.23499
 Alpha virt. eigenvalues --    0.02404   0.02778   0.06320   0.08361   0.11517
 Alpha virt. eigenvalues --    0.12998   0.13393   0.14319   0.15263   0.16172
 Alpha virt. eigenvalues --    0.16553   0.17252   0.18427   0.18848   0.19665

 Mulliken atomic charges:
              1
     1  H    0.188142
     2  C   -0.547642
     3  H    0.150817
     4  H    0.178816
     5  C    0.587354
     6  O   -0.475057
     7  N   -0.602047
     8  H    0.314114
     9  C   -0.026167
    10  H    0.171355
    11  C   -0.472472
    12  H    0.150161
    13  H    0.172646
    14  H    0.147205
    15  C    0.621915
    16  O   -0.501103
    17  N   -0.589442
    18  H    0.323711
    19  C   -0.303223
    20  H    0.194363
    21  H    0.146553
    22  H    0.170002
 Sum of Mulliken atomic charges =   0.00000

 Dipole moment (field-independent basis, Debye):
    X=              0.5648    Y=              4.8268    Z=             -2.2991  Tot=              5.3761
 Quadrupole moment (field-independent basis, Debye-Ang):
   XX=            -48.6995   YY=            -61.9417   ZZ=            -60.9212
   XY=              3.4360   XZ=              5.0519   YZ=              2.8053

 Normal termination of Gaussian 09 at Sat Feb 11 01:23:52 2017.
