 Gaussian 09, Revision A.02,
 Gaussian 09:  EM64L-G09RevA.02 11-Jun-2009

 ----------------------------------------------------------------------
 # b3lyp/6-31G* Opt=(ModRedundant, maxcycles=1000, calcfc) geom=nocrowd
 ----------------------------------------------------------------------

 ------------------
 Phi Psi fixed scan
 ------------------
 Symbolic Z-matrix:
 Charge =  0 Multiplicity = 1

 SCF Done:  E(RB3LYP) =  -495.821724490     A.U. after   15 cycles

  Exact polarizability:   0.000   0.000   0.000   0.000   0.000   0.000
 Approx polarizability: 108.384 -13.207 123.879   1.450   8.526 105.798

 SCF Done:  E(RB3LYP) =  -495.829370870     A.U. after   13 cycles
 SCF Done:  E(RB3LYP) =  -495.837729585     A.U. after   13 cycles
 SCF Done:  E(RB3LYP) =  -495.837366394     A.U. after   14 cycles
 SCF Done:  E(RB3LYP) =  -495.838376404     A.U. after   14 cycles
 SCF Done:  E(RB3LYP) =  -495.839522652     A.U. after   12 cycles
 SCF Done:  E(RB3LYP) =  -495.841347551     A.U. after   13 cycles
 SCF Done:  E(RB3LYP) =  -495.842329656     A.U. after   12 cycles
 SCF Done:  E(RB3LYP) =  -495.842701216     A.U. after   12 cycles
 SCF Done:  E(RB3LYP) =  -495.843052261     A.U. after   14 cycles
 SCF Done:  E(RB3LYP) =  -495.843585617     A.U. after   12 cycles
 SCF Done:  E(RB3LYP) =  -495.843604431     A.U. after   10 cycles
 SCF Done:  E(RB3LYP) =  -495.843625564     A.U. after   10 cycles
 SCF Done:  E(RB3LYP) =  -495.843640110     A.U. after   12 cycles
 SCF Done:  E(RB3LYP) =  -495.843647022     A.U. after   12 cycles
 SCF Done:  E(RB3LYP) =  -495.843648390     A.U. after    9 cycles
 SCF Done:  E(RB3LYP) =  -495.843648550     A.U. after    7 cycles
 SCF Done:  E(RB3LYP) =  -495.843648655     A.U. after    7 cycles
 SCF Done:  E(RB3LYP) =  -495.843648714     A.U. after    7 cycles
 SCF Done:  E(RB3LYP) =  -495.843648758     A.U. after    7 cycles
 Optimization completed.
    -- Stationary point found.

                         Standard orientation:
 ---------------------------------------------------------------------
 Center     Atomic      Atomic             Coordinates (Angstroms)
 Number     Number       Type             X           Y           Z
 ---------------------------------------------------------------------
      1          1           0       -3.527278   -1.739482    0.164573
      2          6           0       -3.057531   -0.842557    0.573646
      3          1           0       -2.915494   -0.999529    1.649397
      4          1           0       -3.725901    0.013308    0.434849
      5          6           0       -1.697494   -0.659909   -0.084560
      6          8           0       -1.000392   -1.621749   -0.394858
      7          7           0       -1.342078    0.639360   -0.333135
      8          1           0       -1.957520    1.334545    0.070495
      9          6           0        0.027142    1.140418   -0.576546
     10          1           0        0.217687    1.065367   -1.656142
     11          6           0        0.098407    2.606706   -0.159185
     12          1           0        0.021874    2.693307    0.928162
     13          1           0        1.057311    3.037824   -0.458731
     14          1           0       -0.700373    3.184328   -0.638801
     15          6           0        1.150555    0.333213    0.138573
     16          8           0        1.586153    0.695880    1.225632
     17          7           0        1.667902   -0.707223   -0.574450
     18          1           0        0.993366   -1.157136   -1.184275
     19          6           0        2.631439   -1.594751    0.062464
     20          1           0        3.372206   -0.990785    0.588559
     21          1           0        2.153542   -2.265724    0.788371
     22          1           0        3.128620   -2.192745   -0.705908
 ---------------------------------------------------------------------

 The electronic state is 1-A.
 Alpha  occ. eigenvalues --  -19.11932 -19.10913 -14.36922 -14.34509 -10.29657
 Alpha  occ. eigenvalues --  -10.27836 -10.24055 -10.20523 -10.19794 -10.18943
 Alpha  occ. eigenvalues --   -1.03884  -1.02459  -0.92913  -0.90806  -0.78363
 Alpha  occ. eigenvalues --   -0.73255  -0.70298  -0.63874  -0.59507  -0.55968
 Alpha  occ. eigenvalues --   -0.51681  -0.50102  -0.48368  -0.45939  -0.44697
 Alpha  occ. eigenvalues --   -0.43478  -0.42034  -0.41568  -0.40606  -0.38956
 Alpha  occ. eigenvalues --   -0.38441  -0.37851  -0.37533  -0.35576  -0.35455
 Alpha  occ. eigenvalues --   -0.27674  -0.26460  -0.24702  -0.23104
 Alpha virt. eigenvalues --    0.01335   0.02488   0.07015   0.10417   0.11868
 Alpha virt. eigenvalues --    0.12725   0.13379   0.14711   0.15207   0.16323
 Alpha virt. eigenvalues --    0.17057   0.17309   0.18210   0.18774   0.20477

 Mulliken atomic charges:
              1
     1  H    0.189230
     2  C   -0.543443
     3  H    0.189028
     4  H    0.152342
     5  C    0.598281
     6  O   -0.520888
     7  N   -0.598983
     8  H    0.327495
     9  C   -0.010081
    10  H    0.155964
    11  C   -0.481020
    12  H    0.181961
    13  H    0.172088
    14  H    0.142249
    15  C    0.592316
    16  O   -0.517392
    17  N   -0.569674
    18  H    0.346936
    19  C   -0.307182
    20  H    0.184750
    21  H    0.165683
    22  H    0.150343
 Sum of Mulliken atomic charges =   0.00000

 Dipole moment (field-independent basis, Debye):
    X=             -2.3690    Y=              1.1959    Z=             -1.1942  Tot=              2.9100
 Quadrupole moment (field-independent basis, Debye-Ang):
   XX=            -53.8829   YY=            -58.9807   ZZ=            -62.3919
   XY=             -6.0721   XZ=             -5.7578   YZ=             -2.3620

 Normal termination of Gaussian 09 at Sat Feb 11 01:26:58 2017.
