 Gaussian 09, Revision A.02,
 Gaussian 09:  EM64L-G09RevA.02 11-Jun-2009

 ----------------------------------------------------------------------
 # b3lyp/6-31G* Opt=(ModRedundant, maxcycles=1000, calcfc) geom=nocrowd
 ----------------------------------------------------------------------

 ------------------
 Phi Psi fixed scan
 ------------------
 Symbolic Z-matrix:
 Charge =  0 Multiplicity = 1

 SCF Done:  E(RB3LYP) =  -495.680328644     A.U. after   19 cycles

  Exact polarizability:   0.000   0.000   0.000   0.000   0.000   0.000
 Approx polarizability: 147.193   5.182 140.769  -1.949   4.832  85.337

 SCF Done:  E(RB3LYP) =  -495.713553765     A.U. after   16 cycles
 SCF Done:  E(RB3LYP) =  -495.760747559     A.U. after   15 cycles
 SCF Done:  E(RB3LYP) =  -495.789663669     A.U. after   16 cycles
 SCF Done:  E(RB3LYP) =  -495.802980880     A.U. after   13 cycles
 SCF Done:  E(RB3LYP) =  -495.794862710     A.U. after   14 cycles
 SCF Done:  E(RB3LYP) =  -495.806099830     A.U. after   14 cycles
 SCF Done:  E(RB3LYP) =  -495.809208155     A.U. after   16 cycles
 SCF Done:  E(RB3LYP) =  -495.812712777     A.U. after   14 cycles
 SCF Done:  E(RB3LYP) =  -495.813921155     A.U. after   13 cycles
 SCF Done:  E(RB3LYP) =  -495.821920437     A.U. after   12 cycles
 SCF Done:  E(RB3LYP) =  -495.821880916     A.U. after   12 cycles
 SCF Done:  E(RB3LYP) =  -495.821951479     A.U. after   12 cycles
 SCF Done:  E(RB3LYP) =  -495.821987972     A.U. after   12 cycles
 SCF Done:  E(RB3LYP) =  -495.822011998     A.U. after   11 cycles
 SCF Done:  E(RB3LYP) =  -495.822011369     A.U. after   11 cycles
 SCF Done:  E(RB3LYP) =  -495.822013546     A.U. after   10 cycles
 SCF Done:  E(RB3LYP) =  -495.822015101     A.U. after   11 cycles
 SCF Done:  E(RB3LYP) =  -495.822015940     A.U. after   10 cycles
 SCF Done:  E(RB3LYP) =  -495.822015964     A.U. after    9 cycles
 Optimization completed.
    -- Stationary point found.

                         Standard orientation:
 ---------------------------------------------------------------------
 Center     Atomic      Atomic             Coordinates (Angstroms)
 Number     Number       Type             X           Y           Z
 ---------------------------------------------------------------------
      1          1           0       -3.718245   -1.172028    0.868790
      2          6           0       -2.940671   -0.437987    1.084786
      3          1           0       -2.344691   -0.795488    1.933710
      4          1           0       -3.406828    0.511532    1.374800
      5          6           0       -2.046172   -0.292866   -0.140113
      6          8           0       -2.070455   -1.077440   -1.064391
      7          7           0       -1.288594    0.896402   -0.155243
      8          1           0       -1.444880    1.403187    0.712477
      9          6           0        0.142766    1.001167   -0.496768
     10          1           0        0.204118    1.068338   -1.594272
     11          6           0        0.658313    2.328668    0.074122
     12          1           0        0.766913    2.285991    1.164434
     13          1           0        1.622024    2.617687   -0.357297
     14          1           0       -0.048883    3.126155   -0.174841
     15          6           0        0.992809   -0.258107   -0.158070
     16          8           0        0.529332   -1.385091   -0.111197
     17          7           0        2.306438   -0.001808    0.148594
     18          1           0        2.676075    0.924243   -0.001356
     19          6           0        3.260676   -1.080953    0.351534
     20          1           0        3.795891   -1.340751   -0.571470
     21          1           0        3.989364   -0.792336    1.115330
     22          1           0        2.706892   -1.957977    0.687999
 ---------------------------------------------------------------------

 The electronic state is 1-A.
 Alpha  occ. eigenvalues --  -19.11107 -19.09911 -14.36466 -14.34756 -10.28738
 Alpha  occ. eigenvalues --  -10.27640 -10.24467 -10.21954 -10.20792 -10.18284
 Alpha  occ. eigenvalues --   -1.03538  -1.01528  -0.92179  -0.91319  -0.78327
 Alpha  occ. eigenvalues --   -0.72350  -0.70864  -0.65260  -0.58648  -0.57044
 Alpha  occ. eigenvalues --   -0.51945  -0.48379  -0.47211  -0.45303  -0.44961
 Alpha  occ. eigenvalues --   -0.43690  -0.43048  -0.41903  -0.40178  -0.39621
 Alpha  occ. eigenvalues --   -0.39003  -0.38548  -0.38054  -0.35673  -0.33536
 Alpha  occ. eigenvalues --   -0.27269  -0.25415  -0.24083  -0.22334
 Alpha virt. eigenvalues --    0.01804   0.03467   0.06000   0.08629   0.11375
 Alpha virt. eigenvalues --    0.12697   0.13449   0.13513   0.14099   0.15962
 Alpha virt. eigenvalues --    0.16236   0.16462   0.17725   0.18284   0.19691

 Mulliken atomic charges:
              1
     1  H    0.185919
     2  C   -0.553566
     3  H    0.176546
     4  H    0.153004
     5  C    0.602793
     6  O   -0.460800
     7  N   -0.600975
     8  H    0.308100
     9  C   -0.025336
    10  H    0.181785
    11  C   -0.505314
    12  H    0.163857
    13  H    0.152540
    14  H    0.177851
    15  C    0.597291
    16  O   -0.489868
    17  N   -0.596150
    18  H    0.322911
    19  C   -0.307903
    20  H    0.160518
    21  H    0.152837
    22  H    0.203961
 Sum of Mulliken atomic charges =   0.00000

 Dipole moment (field-independent basis, Debye):
    X=              3.3825    Y=              4.5285    Z=              2.6938  Tot=              6.2614
 Quadrupole moment (field-independent basis, Debye-Ang):
   XX=            -51.5290   YY=            -61.4795   ZZ=            -60.8166
   XY=             -1.6438   XZ=             -6.5943   YZ=             -2.4442

 Normal termination of Gaussian 09 at Sat Feb 11 01:26:37 2017.
