 Gaussian 09, Revision A.02,
 Gaussian 09:  EM64L-G09RevA.02 11-Jun-2009

 ----------------------------------------------------------------------
 # b3lyp/6-31G* Opt=(ModRedundant, maxcycles=1000, calcfc) geom=nocrowd
 ----------------------------------------------------------------------

 ------------------
 Phi Psi fixed scan
 ------------------
 Symbolic Z-matrix:
 Charge =  0 Multiplicity = 1

 SCF Done:  E(RB3LYP) =  -495.827004560     A.U. after   15 cycles

  Exact polarizability:   0.000   0.000   0.000   0.000   0.000   0.000
 Approx polarizability: 108.306   5.523 118.637 -16.614  -2.361 111.108

 SCF Done:  E(RB3LYP) =  -495.832646039     A.U. after   12 cycles
 SCF Done:  E(RB3LYP) =  -495.839058816     A.U. after   12 cycles
 SCF Done:  E(RB3LYP) =  -495.840825841     A.U. after   14 cycles
 SCF Done:  E(RB3LYP) =  -495.840741939     A.U. after   12 cycles
 SCF Done:  E(RB3LYP) =  -495.841148173     A.U. after   12 cycles
 SCF Done:  E(RB3LYP) =  -495.839366676     A.U. after   13 cycles
 SCF Done:  E(RB3LYP) =  -495.841266542     A.U. after   12 cycles
 SCF Done:  E(RB3LYP) =  -495.841267174     A.U. after   11 cycles
 SCF Done:  E(RB3LYP) =  -495.841430094     A.U. after   11 cycles
 SCF Done:  E(RB3LYP) =  -495.841527765     A.U. after   12 cycles
 SCF Done:  E(RB3LYP) =  -495.841552422     A.U. after   11 cycles
 SCF Done:  E(RB3LYP) =  -495.841577788     A.U. after   11 cycles
 SCF Done:  E(RB3LYP) =  -495.841608847     A.U. after   11 cycles
 SCF Done:  E(RB3LYP) =  -495.841627516     A.U. after   11 cycles
 SCF Done:  E(RB3LYP) =  -495.841633002     A.U. after   10 cycles
 SCF Done:  E(RB3LYP) =  -495.841633812     A.U. after   10 cycles
 SCF Done:  E(RB3LYP) =  -495.841634142     A.U. after    9 cycles
 Optimization completed.
    -- Stationary point found.

                         Standard orientation:
 ---------------------------------------------------------------------
 Center     Atomic      Atomic             Coordinates (Angstroms)
 Number     Number       Type             X           Y           Z
 ---------------------------------------------------------------------
      1          1           0        3.310499   -1.571226   -0.758003
      2          6           0        3.211053   -0.596028   -0.274520
      3          1           0        3.548668    0.184502   -0.963961
      4          1           0        3.869378   -0.596481    0.601028
      5          6           0        1.770734   -0.428694    0.195221
      6          8           0        1.170544   -1.331199    0.765733
      7          7           0        1.225608    0.805468   -0.041252
      8          1           0        1.796069    1.477905   -0.535416
      9          6           0       -0.126262    1.253872    0.310907
     10          1           0       -0.120542    1.635668    1.338607
     11          6           0       -0.544807    2.388912   -0.633808
     12          1           0       -0.598366    2.038681   -1.670023
     13          1           0       -1.529966    2.762072   -0.341254
     14          1           0        0.163204    3.225469   -0.579250
     15          6           0       -1.235314    0.177963    0.341195
     16          8           0       -2.112436    0.260801    1.189187
     17          7           0       -1.271946   -0.704902   -0.701171
     18          1           0       -0.388212   -0.886643   -1.155586
     19          6           0       -2.211369   -1.817189   -0.670402
     20          1           0       -3.166421   -1.452193   -0.290793
     21          1           0       -2.346995   -2.205575   -1.683818
     22          1           0       -1.862030   -2.625976   -0.015496
 ---------------------------------------------------------------------

 The electronic state is 1-A.
 Alpha  occ. eigenvalues --  -19.11595 -19.10401 -14.37223 -14.34877 -10.29627
 Alpha  occ. eigenvalues --  -10.27843 -10.23895 -10.20641 -10.20055 -10.19749
 Alpha  occ. eigenvalues --   -1.03819  -1.02256  -0.93191  -0.90791  -0.78666
 Alpha  occ. eigenvalues --   -0.73551  -0.70013  -0.64672  -0.60008  -0.56878
 Alpha  occ. eigenvalues --   -0.51866  -0.50348  -0.48122  -0.45260  -0.45008
 Alpha  occ. eigenvalues --   -0.43296  -0.42511  -0.41822  -0.40582  -0.39728
 Alpha  occ. eigenvalues --   -0.39101  -0.38245  -0.37699  -0.36041  -0.34730
 Alpha  occ. eigenvalues --   -0.26563  -0.25817  -0.24639  -0.23598
 Alpha virt. eigenvalues --    0.01880   0.03027   0.05965   0.10122   0.11069
 Alpha virt. eigenvalues --    0.12513   0.13950   0.14343   0.15256   0.15708
 Alpha virt. eigenvalues --    0.16734   0.17494   0.17748   0.18805   0.19005

 Mulliken atomic charges:
              1
     1  H    0.186061
     2  C   -0.537837
     3  H    0.144007
     4  H    0.191242
     5  C    0.578563
     6  O   -0.503657
     7  N   -0.619091
     8  H    0.323357
     9  C   -0.001329
    10  H    0.178212
    11  C   -0.481776
    12  H    0.160503
    13  H    0.186154
    14  H    0.147458
    15  C    0.613548
    16  O   -0.521320
    17  N   -0.571703
    18  H    0.327702
    19  C   -0.308494
    20  H    0.190412
    21  H    0.145957
    22  H    0.172029
 Sum of Mulliken atomic charges =   0.00000

 Dipole moment (field-independent basis, Debye):
    X=              3.3422    Y=              1.8585    Z=             -3.9270  Tot=              5.4814
 Quadrupole moment (field-independent basis, Debye-Ang):
   XX=            -57.8375   YY=            -56.4702   ZZ=            -62.7650
   XY=              5.0624   XZ=              2.4812   YZ=              2.4794

 Normal termination of Gaussian 09 at Sat Feb 11 01:27:28 2017.
