 Gaussian 09, Revision A.02,
 Gaussian 09:  EM64L-G09RevA.02 11-Jun-2009

 ----------------------------------------------------------------------
 # b3lyp/6-31G* Opt=(ModRedundant, maxcycles=1000, calcfc) geom=nocrowd
 ----------------------------------------------------------------------

 ------------------
 Phi Psi fixed scan
 ------------------
 Symbolic Z-matrix:
 Charge =  0 Multiplicity = 1

 SCF Done:  E(RB3LYP) =  -495.808285878     A.U. after   15 cycles

  Exact polarizability:   0.000   0.000   0.000   0.000   0.000   0.000
 Approx polarizability: 104.433   6.333 123.026   2.587 -15.780 111.259

 SCF Done:  E(RB3LYP) =  -495.817911845     A.U. after   13 cycles
 SCF Done:  E(RB3LYP) =  -495.828339597     A.U. after   15 cycles
 SCF Done:  E(RB3LYP) =  -495.828427960     A.U. after   14 cycles
 SCF Done:  E(RB3LYP) =  -495.831493444     A.U. after   13 cycles
 SCF Done:  E(RB3LYP) =  -495.832441596     A.U. after   13 cycles
 SCF Done:  E(RB3LYP) =  -495.831838667     A.U. after   13 cycles
 SCF Done:  E(RB3LYP) =  -495.832993241     A.U. after   12 cycles
 SCF Done:  E(RB3LYP) =  -495.819062080     A.U. after   13 cycles
 SCF Done:  E(RB3LYP) =  -495.833144587     A.U. after   14 cycles
 SCF Done:  E(RB3LYP) =  -495.833762136     A.U. after   13 cycles
 SCF Done:  E(RB3LYP) =  -495.833843072     A.U. after   11 cycles
 SCF Done:  E(RB3LYP) =  -495.833862254     A.U. after   12 cycles
 SCF Done:  E(RB3LYP) =  -495.833871682     A.U. after   12 cycles
 SCF Done:  E(RB3LYP) =  -495.833874769     A.U. after   10 cycles
 SCF Done:  E(RB3LYP) =  -495.833878363     A.U. after   10 cycles
 SCF Done:  E(RB3LYP) =  -495.833880917     A.U. after    8 cycles
 SCF Done:  E(RB3LYP) =  -495.833886317     A.U. after   11 cycles
 SCF Done:  E(RB3LYP) =  -495.833886445     A.U. after    7 cycles
 SCF Done:  E(RB3LYP) =  -495.833886437     A.U. after    6 cycles
 Optimization completed.
    -- Stationary point found.

                         Standard orientation:
 ---------------------------------------------------------------------
 Center     Atomic      Atomic             Coordinates (Angstroms)
 Number     Number       Type             X           Y           Z
 ---------------------------------------------------------------------
      1          1           0        3.582660   -1.511841   -0.818488
      2          6           0        3.331939   -0.564925   -0.336785
      3          1           0        3.686048    0.264787   -0.958168
      4          1           0        3.859991   -0.523810    0.623540
      5          6           0        1.828317   -0.527851   -0.086922
      6          8           0        1.175202   -1.541834    0.100276
      7          7           0        1.277326    0.733923   -0.123654
      8          1           0        1.938194    1.497572   -0.200161
      9          6           0       -0.015756    1.137737    0.451673
     10          1           0        0.125710    1.347759    1.519960
     11          6           0       -0.495823    2.417913   -0.240193
     12          1           0       -0.622618    2.277677   -1.318937
     13          1           0       -1.449203    2.747603    0.182453
     14          1           0        0.232994    3.225512   -0.095572
     15          6           0       -1.070449   -0.000332    0.477130
     16          8           0       -1.302993   -0.603528    1.511720
     17          7           0       -1.869914   -0.100537   -0.633246
     18          1           0       -1.479417    0.232039   -1.505747
     19          6           0       -2.824426   -1.197639   -0.729582
     20          1           0       -3.374694   -1.261432    0.210352
     21          1           0       -3.522051   -0.993889   -1.546473
     22          1           0       -2.329984   -2.162194   -0.902350
 ---------------------------------------------------------------------

 The electronic state is 1-A.
 Alpha  occ. eigenvalues --  -19.10965 -19.10060 -14.36355 -14.35292 -10.28838
 Alpha  occ. eigenvalues --  -10.27784 -10.23857 -10.20867 -10.19820 -10.19357
 Alpha  occ. eigenvalues --   -1.03213  -1.01948  -0.92509  -0.90906  -0.78386
 Alpha  occ. eigenvalues --   -0.73043  -0.69887  -0.64767  -0.59283  -0.56791
 Alpha  occ. eigenvalues --   -0.51370  -0.50146  -0.47383  -0.44984  -0.44195
 Alpha  occ. eigenvalues --   -0.43650  -0.42340  -0.41646  -0.40157  -0.39645
 Alpha  occ. eigenvalues --   -0.38916  -0.37952  -0.37656  -0.35575  -0.34920
 Alpha  occ. eigenvalues --   -0.25871  -0.25014  -0.24237  -0.23558
 Alpha virt. eigenvalues --    0.02495   0.02726   0.06306   0.08378   0.11487
 Alpha virt. eigenvalues --    0.13103   0.13318   0.14397   0.15181   0.16233
 Alpha virt. eigenvalues --    0.16533   0.17549   0.18491   0.18865   0.20053

 Mulliken atomic charges:
              1
     1  H    0.188645
     2  C   -0.545287
     3  H    0.149084
     4  H    0.183047
     5  C    0.590116
     6  O   -0.483834
     7  N   -0.605877
     8  H    0.316203
     9  C   -0.030151
    10  H    0.171931
    11  C   -0.463146
    12  H    0.147606
    13  H    0.175055
    14  H    0.144471
    15  C    0.623324
    16  O   -0.506389
    17  N   -0.582266
    18  H    0.322909
    19  C   -0.303736
    20  H    0.191000
    21  H    0.145099
    22  H    0.172195
 Sum of Mulliken atomic charges =   0.00000

 Dipole moment (field-independent basis, Debye):
    X=              1.5662    Y=              4.0158    Z=             -3.2374  Tot=              5.3907
 Quadrupole moment (field-independent basis, Debye-Ang):
   XX=            -50.6775   YY=            -60.4539   ZZ=            -61.6880
   XY=              3.7024   XZ=              4.7252   YZ=              3.4135

 Normal termination of Gaussian 09 at Sat Feb 11 01:14:39 2017.
