 Gaussian 09, Revision A.02,
 Gaussian 09:  EM64L-G09RevA.02 11-Jun-2009

 ----------------------------------------------------------------------
 # b3lyp/6-31G* Opt=(ModRedundant, maxcycles=1000, calcfc) geom=nocrowd
 ----------------------------------------------------------------------

 ------------------
 Phi Psi fixed scan
 ------------------
 Symbolic Z-matrix:
 Charge =  0 Multiplicity = 1

 SCF Done:  E(RB3LYP) =  -495.834129080     A.U. after   14 cycles

  Exact polarizability:   0.000   0.000   0.000   0.000   0.000   0.000
 Approx polarizability: 112.807 -13.593 116.150  -8.577  -1.040 108.668

 SCF Done:  E(RB3LYP) =  -495.837726777     A.U. after   11 cycles
 SCF Done:  E(RB3LYP) =  -495.841955883     A.U. after   12 cycles
 SCF Done:  E(RB3LYP) =  -495.843587234     A.U. after   12 cycles
 SCF Done:  E(RB3LYP) =  -495.841644028     A.U. after   13 cycles
 SCF Done:  E(RB3LYP) =  -495.843587534     A.U. after   12 cycles
 SCF Done:  E(RB3LYP) =  -495.844045831     A.U. after   12 cycles
 SCF Done:  E(RB3LYP) =  -495.842580693     A.U. after   13 cycles
 SCF Done:  E(RB3LYP) =  -495.844448711     A.U. after   13 cycles
 SCF Done:  E(RB3LYP) =  -495.844685109     A.U. after   11 cycles
 SCF Done:  E(RB3LYP) =  -495.844749977     A.U. after   11 cycles
 SCF Done:  E(RB3LYP) =  -495.844763394     A.U. after   11 cycles
 SCF Done:  E(RB3LYP) =  -495.844770661     A.U. after   10 cycles
 SCF Done:  E(RB3LYP) =  -495.844774442     A.U. after    9 cycles
 SCF Done:  E(RB3LYP) =  -495.844777474     A.U. after   10 cycles
 SCF Done:  E(RB3LYP) =  -495.844779670     A.U. after   10 cycles
 SCF Done:  E(RB3LYP) =  -495.844780093     A.U. after    8 cycles
 Optimization completed.
    -- Stationary point found.

                         Standard orientation:
 ---------------------------------------------------------------------
 Center     Atomic      Atomic             Coordinates (Angstroms)
 Number     Number       Type             X           Y           Z
 ---------------------------------------------------------------------
      1          1           0       -3.440392   -1.872487   -0.053694
      2          6           0       -3.060797   -0.949639    0.389896
      3          1           0       -2.976426   -1.106350    1.471745
      4          1           0       -3.775166   -0.139183    0.211787
      5          6           0       -1.678876   -0.664876   -0.175530
      6          8           0       -0.891006   -1.557017   -0.466084
      7          7           0       -1.379213    0.661667   -0.361959
      8          1           0       -2.014834    1.328912    0.056614
      9          6           0       -0.002281    1.135224   -0.535885
     10          1           0        0.236700    1.119677   -1.608699
     11          6           0        0.115529    2.569361   -0.017769
     12          1           0       -0.026353    2.581710    1.067139
     13          1           0        1.109340    2.971066   -0.237243
     14          1           0       -0.626609    3.220043   -0.495015
     15          6           0        1.009427    0.235691    0.215439
     16          8           0        1.013908    0.184783    1.438058
     17          7           0        1.954253   -0.358679   -0.571577
     18          1           0        1.676149   -0.533379   -1.528504
     19          6           0        2.868557   -1.327600    0.016916
     20          1           0        3.255823   -0.918718    0.951518
     21          1           0        2.365860   -2.277983    0.237711
     22          1           0        3.698051   -1.505318   -0.672804
 ---------------------------------------------------------------------

 The electronic state is 1-A.
 Alpha  occ. eigenvalues --  -19.11098 -19.10438 -14.36103 -14.35129 -10.28731
 Alpha  occ. eigenvalues --  -10.27680 -10.23739 -10.20739 -10.19168 -10.19138
 Alpha  occ. eigenvalues --   -1.03419  -1.02003  -0.92245  -0.91067  -0.78072
 Alpha  occ. eigenvalues --   -0.72870  -0.70309  -0.63844  -0.58965  -0.56642
 Alpha  occ. eigenvalues --   -0.51471  -0.49845  -0.47873  -0.45726  -0.44178
 Alpha  occ. eigenvalues --   -0.43385  -0.41889  -0.41380  -0.39926  -0.38695
 Alpha  occ. eigenvalues --   -0.38641  -0.38103  -0.37542  -0.35738  -0.34235
 Alpha  occ. eigenvalues --   -0.26672  -0.25490  -0.24572  -0.23367
 Alpha virt. eigenvalues --    0.01918   0.03651   0.07321   0.08845   0.11837
 Alpha virt. eigenvalues --    0.13108   0.13423   0.14992   0.15504   0.16205
 Alpha virt. eigenvalues --    0.16858   0.17771   0.18425   0.19272   0.19922

 Mulliken atomic charges:
              1
     1  H    0.186480
     2  C   -0.546636
     3  H    0.190689
     4  H    0.149833
     5  C    0.606762
     6  O   -0.515633
     7  N   -0.594847
     8  H    0.325016
     9  C    0.001738
    10  H    0.137891
    11  C   -0.488199
    12  H    0.183010
    13  H    0.168048
    14  H    0.147289
    15  C    0.625087
    16  O   -0.531184
    17  N   -0.578037
    18  H    0.330408
    19  C   -0.306503
    20  H    0.187396
    21  H    0.174000
    22  H    0.147391
 Sum of Mulliken atomic charges =   0.00000

 Dipole moment (field-independent basis, Debye):
    X=             -1.1524    Y=              2.0279    Z=             -1.9131  Tot=              3.0167
 Quadrupole moment (field-independent basis, Debye-Ang):
   XX=            -49.8225   YY=            -59.0283   ZZ=            -62.3961
   XY=             -4.4414   XZ=             -5.6893   YZ=             -0.9751

 Normal termination of Gaussian 09 at Sat Feb 11 01:08:24 2017.
