 Gaussian 09, Revision A.02,
 Gaussian 09:  EM64L-G09RevA.02 11-Jun-2009

 ----------------------------------------------------------------------
 # b3lyp/6-31G* Opt=(ModRedundant, maxcycles=1000, calcfc) geom=nocrowd
 ----------------------------------------------------------------------

 ------------------
 Phi Psi fixed scan
 ------------------
 Symbolic Z-matrix:
 Charge =  0 Multiplicity = 1

 SCF Done:  E(RB3LYP) =  -495.832153984     A.U. after   14 cycles

  Exact polarizability:   0.000   0.000   0.000   0.000   0.000   0.000
 Approx polarizability: 110.052 -14.744 118.684  -3.500   4.332 108.943

 SCF Done:  E(RB3LYP) =  -495.835900912     A.U. after   12 cycles
 SCF Done:  E(RB3LYP) =  -495.840880982     A.U. after   12 cycles
 SCF Done:  E(RB3LYP) =  -495.842549443     A.U. after   12 cycles
 SCF Done:  E(RB3LYP) =  -495.843447417     A.U. after   13 cycles
 SCF Done:  E(RB3LYP) =  -495.755204671     A.U. after   14 cycles
 SCF Done:  E(RB3LYP) =  -495.843505611     A.U. after   15 cycles
 SCF Done:  E(RB3LYP) =  -495.843828271     A.U. after   12 cycles
 SCF Done:  E(RB3LYP) =  -495.820880301     A.U. after   14 cycles
 SCF Done:  E(RB3LYP) =  -495.843879506     A.U. after   14 cycles
 SCF Done:  E(RB3LYP) =  -495.844142450     A.U. after   12 cycles
 SCF Done:  E(RB3LYP) =  -495.844263630     A.U. after   11 cycles
 SCF Done:  E(RB3LYP) =  -495.844309400     A.U. after   11 cycles
 SCF Done:  E(RB3LYP) =  -495.844372757     A.U. after   11 cycles
 SCF Done:  E(RB3LYP) =  -495.844404088     A.U. after   10 cycles
 SCF Done:  E(RB3LYP) =  -495.844417453     A.U. after   10 cycles
 SCF Done:  E(RB3LYP) =  -495.844421905     A.U. after   10 cycles
 SCF Done:  E(RB3LYP) =  -495.844422133     A.U. after    8 cycles
 Optimization completed.
    -- Stationary point found.

                         Standard orientation:
 ---------------------------------------------------------------------
 Center     Atomic      Atomic             Coordinates (Angstroms)
 Number     Number       Type             X           Y           Z
 ---------------------------------------------------------------------
      1          1           0       -3.445747   -1.862655    0.013964
      2          6           0       -3.046242   -0.948250    0.457922
      3          1           0       -2.956001   -1.112620    1.538011
      4          1           0       -3.749150   -0.125850    0.289980
      5          6           0       -1.662649   -0.688083   -0.118744
      6          8           0       -0.884327   -1.599599   -0.377601
      7          7           0       -1.363544    0.629085   -0.349526
      8          1           0       -2.017845    1.305788    0.022115
      9          6           0       -0.002258    1.144543   -0.563373
     10          1           0        0.215081    1.095038   -1.639768
     11          6           0        0.064878    2.600513   -0.106332
     12          1           0       -0.038461    2.651731    0.981266
     13          1           0        1.031227    3.037075   -0.375100
     14          1           0       -0.721198    3.196413   -0.584776
     15          6           0        1.076284    0.315421    0.183993
     16          8           0        1.277513    0.482664    1.380180
     17          7           0        1.826155   -0.509269   -0.603873
     18          1           0        1.344886   -0.850397   -1.426535
     19          6           0        2.739748   -1.453453    0.025089
     20          1           0        3.302197   -0.931906    0.800884
     21          1           0        2.200811   -2.289487    0.489349
     22          1           0        3.431870   -1.840507   -0.727552
 ---------------------------------------------------------------------

 The electronic state is 1-A.
 Alpha  occ. eigenvalues --  -19.11385 -19.10746 -14.36508 -14.34859 -10.29132
 Alpha  occ. eigenvalues --  -10.27777 -10.23894 -10.20562 -10.19452 -10.19012
 Alpha  occ. eigenvalues --   -1.03568  -1.02277  -0.92555  -0.90970  -0.78207
 Alpha  occ. eigenvalues --   -0.73030  -0.70276  -0.63841  -0.59256  -0.56317
 Alpha  occ. eigenvalues --   -0.51520  -0.50022  -0.48056  -0.45832  -0.44389
 Alpha  occ. eigenvalues --   -0.43428  -0.41951  -0.41454  -0.40152  -0.38801
 Alpha  occ. eigenvalues --   -0.38524  -0.37993  -0.37557  -0.35599  -0.34874
 Alpha  occ. eigenvalues --   -0.27082  -0.26040  -0.24594  -0.23195
 Alpha virt. eigenvalues --    0.01616   0.03196   0.07165   0.09538   0.11683
 Alpha virt. eigenvalues --    0.12980   0.13290   0.14878   0.15413   0.16308
 Alpha virt. eigenvalues --    0.17075   0.17604   0.18351   0.19116   0.20037

 Mulliken atomic charges:
              1
     1  H    0.187398
     2  C   -0.544512
     3  H    0.189998
     4  H    0.149742
     5  C    0.602294
     6  O   -0.520759
     7  N   -0.596804
     8  H    0.326178
     9  C   -0.003058
    10  H    0.144735
    11  C   -0.486212
    12  H    0.185152
    13  H    0.169005
    14  H    0.143655
    15  C    0.609789
    16  O   -0.523479
    17  N   -0.566555
    18  H    0.335241
    19  C   -0.308626
    20  H    0.186277
    21  H    0.172175
    22  H    0.148367
 Sum of Mulliken atomic charges =   0.00000

 Dipole moment (field-independent basis, Debye):
    X=             -1.8656    Y=              1.5124    Z=             -1.8019  Tot=              3.0024
 Quadrupole moment (field-independent basis, Debye-Ang):
   XX=            -51.6822   YY=            -58.9177   ZZ=            -62.4657
   XY=             -5.1337   XZ=             -5.4445   YZ=             -1.5917

 Normal termination of Gaussian 09 at Sat Feb 11 01:01:00 2017.
