 Gaussian 09, Revision A.02,
 Gaussian 09:  EM64L-G09RevA.02 11-Jun-2009

 -------------------------------------------
 # HF/6-31G* Opt=(ModRedundant) geom=nocrowd
 -------------------------------------------

 ------------------
 Phi Psi fixed scan
 ------------------
 Symbolic Z-matrix:
 Charge =  0 Multiplicity = 1

 SCF Done:  E(RHF) =  -492.728774763     A.U. after   17 cycles
 SCF Done:  E(RHF) =  -492.810073766     A.U. after   15 cycles
 SCF Done:  E(RHF) =  -492.816058775     A.U. after   14 cycles
 SCF Done:  E(RHF) =  -492.826872086     A.U. after   13 cycles
 SCF Done:  E(RHF) =  -492.830353566     A.U. after   14 cycles
 SCF Done:  E(RHF) =  -492.831891010     A.U. after   14 cycles
 SCF Done:  E(RHF) =  -492.833033966     A.U. after   13 cycles
 SCF Done:  E(RHF) =  -492.833567114     A.U. after   13 cycles
 SCF Done:  E(RHF) =  -492.833816431     A.U. after   13 cycles
 SCF Done:  E(RHF) =  -492.834078957     A.U. after   12 cycles
 SCF Done:  E(RHF) =  -492.834181406     A.U. after   12 cycles
 SCF Done:  E(RHF) =  -492.834332472     A.U. after   12 cycles
 SCF Done:  E(RHF) =  -492.834513568     A.U. after   12 cycles
 SCF Done:  E(RHF) =  -492.834827593     A.U. after   14 cycles
 SCF Done:  E(RHF) =  -492.834793159     A.U. after   13 cycles
 SCF Done:  E(RHF) =  -492.834825689     A.U. after   10 cycles
 SCF Done:  E(RHF) =  -492.834939851     A.U. after   11 cycles
 SCF Done:  E(RHF) =  -492.835000976     A.U. after   12 cycles
 SCF Done:  E(RHF) =  -492.835023142     A.U. after   11 cycles
 SCF Done:  E(RHF) =  -492.835023912     A.U. after   10 cycles
 Optimization completed.
    -- Stationary point found.

                         Standard orientation:
 ---------------------------------------------------------------------
 Center     Atomic      Atomic             Coordinates (Angstroms)
 Number     Number       Type             X           Y           Z
 ---------------------------------------------------------------------
      1          1           0        3.669113   -1.475927   -0.416514
      2          6           0        3.266947   -0.645476    0.144291
      3          1           0        3.893775    0.228600   -0.000856
      4          1           0        3.273082   -0.895074    1.201070
      5          6           0        1.843418   -0.392634   -0.301799
      6          8           0        1.241126   -1.161266   -0.987258
      7          7           0        1.333458    0.831234    0.075420
      8          1           0        1.964211    1.350980    0.646093
      9          6           0       -0.053663    1.110814    0.450557
     10          1           0       -0.061587    1.347061    1.509661
     11          6           0       -0.541849    2.339001   -0.319035
     12          1           0       -0.566694    2.144649   -1.386373
     13          1           0       -1.523151    2.658352    0.014888
     14          1           0        0.145224    3.162396   -0.158903
     15          6           0       -0.963441   -0.128571    0.392907
     16          8           0       -0.681839   -1.093563    1.044307
     17          7           0       -2.174797    0.020793   -0.191523
     18          1           0       -2.270535    0.709924   -0.900172
     19          6           0       -3.078217   -1.111811   -0.257989
     20          1           0       -3.227867   -1.510686    0.733969
     21          1           0       -4.028100   -0.771198   -0.649071
     22          1           0       -2.691566   -1.902562   -0.891057
 ---------------------------------------------------------------------

 The electronic state is 1-A.
 Alpha  occ. eigenvalues --  -20.52056 -20.51438 -15.58203 -15.58178 -11.34412
 Alpha  occ. eigenvalues --  -11.34304 -11.28742 -11.25040 -11.23171 -11.22850
 Alpha  occ. eigenvalues --   -1.39508  -1.38073  -1.23519  -1.22712  -1.05621
 Alpha  occ. eigenvalues --   -0.99084  -0.94950  -0.88605  -0.79970  -0.77442
 Alpha  occ. eigenvalues --   -0.70606  -0.68718  -0.65188  -0.63987  -0.61979
 Alpha  occ. eigenvalues --   -0.61190  -0.59874  -0.57634  -0.57030  -0.56317
 Alpha  occ. eigenvalues --   -0.54992  -0.54363  -0.53564  -0.52072  -0.49017
 Alpha  occ. eigenvalues --   -0.41633  -0.40968  -0.39077  -0.38417
 Alpha virt. eigenvalues --    0.18345   0.19777   0.22746   0.23815   0.26238
 Alpha virt. eigenvalues --    0.28045   0.29464   0.30253   0.30543   0.31636
 Alpha virt. eigenvalues --    0.31903   0.33216   0.34719   0.34953   0.37514

 Mulliken atomic charges:
              1
     1  H    0.215686
     2  C   -0.597092
     3  H    0.176085
     4  H    0.199027
     5  C    0.763888
     6  O   -0.577771
     7  N   -0.797634
     8  H    0.369875
     9  C   -0.019834
    10  H    0.206510
    11  C   -0.499585
    12  H    0.179107
    13  H    0.172571
    14  H    0.175977
    15  C    0.780377
    16  O   -0.610393
    17  N   -0.801111
    18  H    0.388377
    19  C   -0.279855
    20  H    0.203062
    21  H    0.164312
    22  H    0.188421
 Sum of Mulliken atomic charges =   0.00000

 Dipole moment (field-independent basis, Debye):
    X=             -0.0605    Y=              4.5048    Z=              0.3355  Tot=              4.5177
 Quadrupole moment (field-independent basis, Debye-Ang):
   XX=            -46.6459   YY=            -62.4167   ZZ=            -62.8089
   XY=              1.8797   XZ=              7.2006   YZ=              1.3421

 Normal termination of Gaussian 09 at Thu Feb  9 13:13:24 2017.
