 Gaussian 09, Revision A.02,
 Gaussian 09:  EM64L-G09RevA.02 11-Jun-2009

 -------------------------------------------
 # HF/6-31G* Opt=(ModRedundant) geom=nocrowd
 -------------------------------------------

 ------------------
 Phi Psi fixed scan
 ------------------
 Symbolic Z-matrix:
 Charge =  0 Multiplicity = 1

 SCF Done:  E(RHF) =  -492.816477550     A.U. after   15 cycles
 SCF Done:  E(RHF) =  -492.835333932     A.U. after   14 cycles
 SCF Done:  E(RHF) =  -492.839947945     A.U. after   13 cycles
 SCF Done:  E(RHF) =  -492.841106081     A.U. after   13 cycles
 SCF Done:  E(RHF) =  -492.841576721     A.U. after   13 cycles
 SCF Done:  E(RHF) =  -492.842348461     A.U. after   13 cycles
 SCF Done:  E(RHF) =  -492.842855521     A.U. after   13 cycles
 SCF Done:  E(RHF) =  -492.843058401     A.U. after   13 cycles
 SCF Done:  E(RHF) =  -492.843385452     A.U. after   11 cycles
 SCF Done:  E(RHF) =  -492.843839486     A.U. after   12 cycles
 SCF Done:  E(RHF) =  -492.844202259     A.U. after   12 cycles
 SCF Done:  E(RHF) =  -492.844260084     A.U. after   12 cycles
 SCF Done:  E(RHF) =  -492.844265940     A.U. after   11 cycles
 SCF Done:  E(RHF) =  -492.844268748     A.U. after   10 cycles
 SCF Done:  E(RHF) =  -492.844270714     A.U. after    9 cycles
 SCF Done:  E(RHF) =  -492.844274357     A.U. after   10 cycles
 SCF Done:  E(RHF) =  -492.844275862     A.U. after   10 cycles
 SCF Done:  E(RHF) =  -492.844276209     A.U. after    9 cycles
 Optimization completed.
    -- Stationary point found.

                         Standard orientation:
 ---------------------------------------------------------------------
 Center     Atomic      Atomic             Coordinates (Angstroms)
 Number     Number       Type             X           Y           Z
 ---------------------------------------------------------------------
      1          1           0        3.429523   -1.685295   -0.604552
      2          6           0        3.207578   -0.770824   -0.074312
      3          1           0        3.756720    0.051526   -0.519011
      4          1           0        3.533127   -0.881862    0.955448
      5          6           0        1.710039   -0.546483   -0.094643
      6          8           0        0.937856   -1.451758   -0.248190
      7          7           0        1.327526    0.746199    0.062948
      8          1           0        2.054973    1.402121    0.239824
      9          6           0       -0.011013    1.253123    0.364752
     10          1           0        0.024157    1.685781    1.356025
     11          6           0       -0.393739    2.347024   -0.633148
     12          1           0       -0.402315    1.976391   -1.651230
     13          1           0       -1.373022    2.751140   -0.403717
     14          1           0        0.325290    3.159312   -0.584721
     15          6           0       -1.078089    0.152665    0.511831
     16          8           0       -1.375170   -0.228157    1.606973
     17          7           0       -1.746373   -0.217007   -0.610471
     18          1           0       -1.225136   -0.141383   -1.455241
     19          6           0       -2.623099   -1.370864   -0.540045
     20          1           0       -3.355283   -1.217501    0.238096
     21          1           0       -3.135277   -1.472668   -1.488238
     22          1           0       -2.072384   -2.280433   -0.326900
 ---------------------------------------------------------------------

 The electronic state is 1-A.
 Alpha  occ. eigenvalues --  -20.52908 -20.51786 -15.59612 -15.56892 -11.35733
 Alpha  occ. eigenvalues --  -11.33959 -11.28451 -11.23966 -11.23835 -11.23202
 Alpha  occ. eigenvalues --   -1.40060  -1.38432  -1.24641  -1.21887  -1.06051
 Alpha  occ. eigenvalues --   -0.99801  -0.94193  -0.88484  -0.81120  -0.76612
 Alpha  occ. eigenvalues --   -0.71103  -0.69115  -0.65915  -0.63598  -0.62556
 Alpha  occ. eigenvalues --   -0.61376  -0.59792  -0.58171  -0.57165  -0.56623
 Alpha  occ. eigenvalues --   -0.54705  -0.53882  -0.53073  -0.51801  -0.50628
 Alpha  occ. eigenvalues --   -0.42309  -0.41439  -0.39547  -0.37993
 Alpha virt. eigenvalues --    0.19143   0.19278   0.21845   0.24151   0.25882
 Alpha virt. eigenvalues --    0.28314   0.28905   0.30025   0.30352   0.31840
 Alpha virt. eigenvalues --    0.32673   0.33940   0.34443   0.35333   0.37328

 Mulliken atomic charges:
              1
     1  H    0.216529
     2  C   -0.588604
     3  H    0.174430
     4  H    0.204799
     5  C    0.756965
     6  O   -0.608851
     7  N   -0.816940
     8  H    0.381830
     9  C   -0.027241
    10  H    0.216460
    11  C   -0.473548
    12  H    0.165963
    13  H    0.187526
    14  H    0.161024
    15  C    0.767018
    16  O   -0.601064
    17  N   -0.757246
    18  H    0.379119
    19  C   -0.288727
    20  H    0.197799
    21  H    0.162122
    22  H    0.190636
 Sum of Mulliken atomic charges =   0.00000

 Dipole moment (field-independent basis, Debye):
    X=              3.0448    Y=              3.2350    Z=             -2.5645  Tot=              5.1296
 Quadrupole moment (field-independent basis, Debye-Ang):
   XX=            -51.7480   YY=            -59.9371   ZZ=            -64.0813
   XY=              3.6076   XZ=              6.0632   YZ=              2.3359

 Normal termination of Gaussian 09 at Thu Feb  9 13:21:53 2017.
