 Gaussian 09, Revision A.02,
 Gaussian 09:  EM64L-G09RevA.02 11-Jun-2009

 -------------------------------------------
 # HF/6-31G* Opt=(ModRedundant) geom=nocrowd
 -------------------------------------------

 ------------------
 Phi Psi fixed scan
 ------------------
 Symbolic Z-matrix:
 Charge =  0 Multiplicity = 1

 SCF Done:  E(RHF) =  -492.805714241     A.U. after   15 cycles
 SCF Done:  E(RHF) =  -492.830571858     A.U. after   15 cycles
 SCF Done:  E(RHF) =  -492.836949580     A.U. after   13 cycles
 SCF Done:  E(RHF) =  -492.838786046     A.U. after   13 cycles
 SCF Done:  E(RHF) =  -492.839553435     A.U. after   13 cycles
 SCF Done:  E(RHF) =  -492.840344753     A.U. after   13 cycles
 SCF Done:  E(RHF) =  -492.840882664     A.U. after   13 cycles
 SCF Done:  E(RHF) =  -492.840897314     A.U. after   13 cycles
 SCF Done:  E(RHF) =  -492.841324545     A.U. after   12 cycles
 SCF Done:  E(RHF) =  -492.841675223     A.U. after   12 cycles
 SCF Done:  E(RHF) =  -492.842036572     A.U. after   13 cycles
 SCF Done:  E(RHF) =  -492.842197459     A.U. after   11 cycles
 SCF Done:  E(RHF) =  -492.842335039     A.U. after   11 cycles
 SCF Done:  E(RHF) =  -492.842339246     A.U. after    9 cycles
 SCF Done:  E(RHF) =  -492.842342501     A.U. after   10 cycles
 SCF Done:  E(RHF) =  -492.842343909     A.U. after    9 cycles
 SCF Done:  E(RHF) =  -492.842344760     A.U. after   10 cycles
 SCF Done:  E(RHF) =  -492.842344955     A.U. after    8 cycles
 SCF Done:  E(RHF) =  -492.842345019     A.U. after    7 cycles
 SCF Done:  E(RHF) =  -492.842345046     A.U. after    7 cycles
 Optimization completed.
    -- Stationary point found.

                         Standard orientation:
 ---------------------------------------------------------------------
 Center     Atomic      Atomic             Coordinates (Angstroms)
 Number     Number       Type             X           Y           Z
 ---------------------------------------------------------------------
      1          1           0        3.461392   -1.668916   -0.599493
      2          6           0        3.208468   -0.765732   -0.064274
      3          1           0        3.802555    0.060068   -0.440445
      4          1           0        3.445344   -0.904447    0.986292
      5          6           0        1.723968   -0.509458   -0.209209
      6          8           0        0.959263   -1.365230   -0.551817
      7          7           0        1.339175    0.775856    0.037639
      8          1           0        2.056968    1.372638    0.385052
      9          6           0       -0.004051    1.216422    0.417716
     10          1           0        0.050019    1.573503    1.438419
     11          6           0       -0.442871    2.373053   -0.480322
     12          1           0       -0.450290    2.085644   -1.525901
     13          1           0       -1.429250    2.729016   -0.205872
     14          1           0        0.254090    3.198987   -0.379689
     15          6           0       -1.007878    0.052798    0.524066
     16          8           0       -1.051934   -0.581094    1.539240
     17          7           0       -1.913214   -0.086532   -0.473672
     18          1           0       -1.633310    0.240911   -1.370139
     19          6           0       -2.775578   -1.252981   -0.473912
     20          1           0       -3.309792   -1.303654    0.462704
     21          1           0       -3.489806   -1.153358   -1.281126
     22          1           0       -2.210622   -2.169679   -0.601345
 ---------------------------------------------------------------------

 The electronic state is 1-A.
 Alpha  occ. eigenvalues --  -20.52756 -20.51377 -15.59139 -15.57304 -11.35323
 Alpha  occ. eigenvalues --  -11.33954 -11.28429 -11.24254 -11.23538 -11.23110
 Alpha  occ. eigenvalues --   -1.39914  -1.38167  -1.24230  -1.22135  -1.05835
 Alpha  occ. eigenvalues --   -0.99589  -0.94377  -0.88455  -0.80623  -0.76910
 Alpha  occ. eigenvalues --   -0.71028  -0.68947  -0.65576  -0.63680  -0.62391
 Alpha  occ. eigenvalues --   -0.61195  -0.59788  -0.57892  -0.57155  -0.56457
 Alpha  occ. eigenvalues --   -0.54597  -0.54150  -0.52986  -0.52134  -0.50012
 Alpha  occ. eigenvalues --   -0.41973  -0.41261  -0.39384  -0.38127
 Alpha virt. eigenvalues --    0.18986   0.19323   0.22148   0.24101   0.26027
 Alpha virt. eigenvalues --    0.28254   0.29174   0.30022   0.30839   0.31563
 Alpha virt. eigenvalues --    0.32364   0.33832   0.34494   0.35405   0.37836

 Mulliken atomic charges:
              1
     1  H    0.217014
     2  C   -0.592916
     3  H    0.177473
     4  H    0.202185
     5  C    0.758564
     6  O   -0.599597
     7  N   -0.806425
     8  H    0.378151
     9  C   -0.023877
    10  H    0.211763
    11  C   -0.479721
    12  H    0.165215
    13  H    0.185390
    14  H    0.165867
    15  C    0.777252
    16  O   -0.609902
    17  N   -0.775591
    18  H    0.381216
    19  C   -0.285954
    20  H    0.199753
    21  H    0.162388
    22  H    0.191751
 Sum of Mulliken atomic charges =   0.00000

 Dipole moment (field-independent basis, Debye):
    X=              2.0604    Y=              3.7767    Z=             -1.8176  Tot=              4.6704
 Quadrupole moment (field-independent basis, Debye-Ang):
   XX=            -49.4555   YY=            -60.8228   ZZ=            -63.6949
   XY=              2.7039   XZ=              6.5413   YZ=              2.4277

 Normal termination of Gaussian 09 at Thu Feb  9 13:19:26 2017.
