 Gaussian 09, Revision A.02,
 Gaussian 09:  EM64L-G09RevA.02 11-Jun-2009

 -------------------------------------------
 # HF/6-31G* Opt=(ModRedundant) geom=nocrowd
 -------------------------------------------

 ------------------
 Phi Psi fixed scan
 ------------------
 Symbolic Z-matrix:
 Charge =  0 Multiplicity = 1

 SCF Done:  E(RHF) =  -492.414121239     A.U. after   36 cycles
 SCF Done:  E(RHF) =  -492.579526867     A.U. after   19 cycles
 SCF Done:  E(RHF) =  -492.738713651     A.U. after   17 cycles
 SCF Done:  E(RHF) =  -492.757396787     A.U. after   15 cycles
 SCF Done:  E(RHF) =  -492.806329254     A.U. after   14 cycles
 SCF Done:  E(RHF) =  -492.812342350     A.U. after   13 cycles
 SCF Done:  E(RHF) =  -492.817511269     A.U. after   13 cycles
 SCF Done:  E(RHF) =  -492.818532214     A.U. after   13 cycles
 SCF Done:  E(RHF) =  -492.818879700     A.U. after   13 cycles
 SCF Done:  E(RHF) =  -492.819014284     A.U. after   12 cycles
 SCF Done:  E(RHF) =  -492.820036877     A.U. after   12 cycles
 SCF Done:  E(RHF) =  -492.820063766     A.U. after   12 cycles
 SCF Done:  E(RHF) =  -492.820101042     A.U. after   12 cycles
 SCF Done:  E(RHF) =  -492.820111083     A.U. after   12 cycles
 SCF Done:  E(RHF) =  -492.820116983     A.U. after   11 cycles
 SCF Done:  E(RHF) =  -492.820121801     A.U. after   11 cycles
 SCF Done:  E(RHF) =  -492.820129191     A.U. after   12 cycles
 SCF Done:  E(RHF) =  -492.820133485     A.U. after   11 cycles
 SCF Done:  E(RHF) =  -492.820134378     A.U. after   10 cycles
 SCF Done:  E(RHF) =  -492.820134613     A.U. after    9 cycles
 Optimization completed.
    -- Stationary point found.

                         Standard orientation:
 ---------------------------------------------------------------------
 Center     Atomic      Atomic             Coordinates (Angstroms)
 Number     Number       Type             X           Y           Z
 ---------------------------------------------------------------------
      1          1           0       -3.940496   -0.987832    0.648634
      2          6           0       -3.323306   -0.104707    0.579637
      3          1           0       -3.090675    0.249040    1.579639
      4          1           0       -3.874785    0.678200    0.067263
      5          6           0       -2.044229   -0.458187   -0.159245
      6          8           0       -1.794313   -1.575860   -0.473107
      7          7           0       -1.295537    0.658074   -0.505655
      8          1           0       -1.775430    1.490934   -0.246642
      9          6           0        0.142860    0.927792   -0.516936
     10          1           0        0.430038    1.171895   -1.538126
     11          6           0        0.390654    2.170671    0.355383
     12          1           0        0.174278    1.949087    1.394862
     13          1           0        1.412071    2.517481    0.287937
     14          1           0       -0.253682    2.983378    0.034124
     15          6           0        1.080297   -0.202493   -0.068516
     16          8           0        0.732371   -1.224489    0.434052
     17          7           0        2.400038    0.155020   -0.117275
     18          1           0        2.662645    0.864134   -0.764288
     19          6           0        3.416563   -0.829726    0.199377
     20          1           0        3.211176   -1.257335    1.168827
     21          1           0        3.454005   -1.634533   -0.527546
     22          1           0        4.377836   -0.333411    0.230063
 ---------------------------------------------------------------------

 The electronic state is 1-A.
 Alpha  occ. eigenvalues --  -20.52676 -20.51317 -15.58374 -15.57688 -11.34806
 Alpha  occ. eigenvalues --  -11.33867 -11.29362 -11.25535 -11.24266 -11.22489
 Alpha  occ. eigenvalues --   -1.39966  -1.37870  -1.23573  -1.22683  -1.05977
 Alpha  occ. eigenvalues --   -0.98704  -0.95525  -0.88708  -0.80084  -0.77343
 Alpha  occ. eigenvalues --   -0.69306  -0.68144  -0.66478  -0.64191  -0.62677
 Alpha  occ. eigenvalues --   -0.61092  -0.59510  -0.58130  -0.57290  -0.56072
 Alpha  occ. eigenvalues --   -0.55367  -0.55196  -0.53939  -0.51840  -0.49131
 Alpha  occ. eigenvalues --   -0.42972  -0.40209  -0.39144  -0.37524
 Alpha virt. eigenvalues --    0.18806   0.20566   0.20848   0.23069   0.26896
 Alpha virt. eigenvalues --    0.27454   0.27566   0.28935   0.31216   0.31652
 Alpha virt. eigenvalues --    0.31934   0.32797   0.33508   0.34928   0.37677

 Mulliken atomic charges:
              1
     1  H    0.215764
     2  C   -0.599226
     3  H    0.185351
     4  H    0.174951
     5  C    0.759226
     6  O   -0.541389
     7  N   -0.828427
     8  H    0.371400
     9  C    0.005137
    10  H    0.187384
    11  C   -0.509401
    12  H    0.190170
    13  H    0.182164
    14  H    0.169059
    15  C    0.738227
    16  O   -0.559403
    17  N   -0.784637
    18  H    0.371652
    19  C   -0.277550
    20  H    0.206629
    21  H    0.176704
    22  H    0.166215
 Sum of Mulliken atomic charges =   0.00000

 Dipole moment (field-independent basis, Debye):
    X=              1.8291    Y=              5.9835    Z=             -0.1220  Tot=              6.2580
 Quadrupole moment (field-independent basis, Debye-Ang):
   XX=            -47.7376   YY=            -65.0805   ZZ=            -60.6906
   XY=             -4.6180   XZ=             -5.6487   YZ=             -1.5800

 Normal termination of Gaussian 09 at Thu Feb  9 13:03:20 2017.
