 Gaussian 09, Revision A.02,
 Gaussian 09:  EM64L-G09RevA.02 11-Jun-2009

 -------------------------------------------
 # HF/6-31G* Opt=(ModRedundant) geom=nocrowd
 -------------------------------------------

 ------------------
 Phi Psi fixed scan
 ------------------
 Symbolic Z-matrix:
 Charge =  0 Multiplicity = 1

 SCF Done:  E(RHF) =  -492.514887522     A.U. after   21 cycles
 SCF Done:  E(RHF) =  -492.629549704     A.U. after   18 cycles
 SCF Done:  E(RHF) =  -492.741138792     A.U. after   16 cycles
 SCF Done:  E(RHF) =  -492.789447118     A.U. after   15 cycles
 SCF Done:  E(RHF) =  -492.804359783     A.U. after   15 cycles
 SCF Done:  E(RHF) =  -492.810238278     A.U. after   14 cycles
 SCF Done:  E(RHF) =  -492.812824683     A.U. after   13 cycles
 SCF Done:  E(RHF) =  -492.813772864     A.U. after   13 cycles
 SCF Done:  E(RHF) =  -492.814036153     A.U. after   12 cycles
 SCF Done:  E(RHF) =  -492.814275440     A.U. after   12 cycles
 SCF Done:  E(RHF) =  -492.822151003     A.U. after   16 cycles
 SCF Done:  E(RHF) =  -492.822705663     A.U. after   14 cycles
 SCF Done:  E(RHF) =  -492.823674087     A.U. after   13 cycles
 SCF Done:  E(RHF) =  -492.824243640     A.U. after   13 cycles
 SCF Done:  E(RHF) =  -492.824500236     A.U. after   13 cycles
 SCF Done:  E(RHF) =  -492.824638234     A.U. after   13 cycles
 SCF Done:  E(RHF) =  -492.824700431     A.U. after   13 cycles
 SCF Done:  E(RHF) =  -492.824710305     A.U. after   11 cycles
 SCF Done:  E(RHF) =  -492.824712112     A.U. after   10 cycles
 SCF Done:  E(RHF) =  -492.824712631     A.U. after   10 cycles
 Optimization completed.
    -- Stationary point found.

                         Standard orientation:
 ---------------------------------------------------------------------
 Center     Atomic      Atomic             Coordinates (Angstroms)
 Number     Number       Type             X           Y           Z
 ---------------------------------------------------------------------
      1          1           0       -3.828453   -1.341730   -0.004878
      2          6           0       -3.267076   -0.569139   -0.508600
      3          1           0       -3.872133    0.330191   -0.575946
      4          1           0       -3.035308   -0.895079   -1.518121
      5          6           0       -1.981666   -0.317445    0.252384
      6          8           0       -1.642640   -0.997508    1.166620
      7          7           0       -1.309068    0.833985   -0.140520
      8          1           0       -1.823440    1.323294   -0.840546
      9          6           0        0.120504    1.032686   -0.386339
     10          1           0        0.238431    1.226989   -1.449225
     11          6           0        0.575654    2.281180    0.380140
     12          1           0        0.594531    2.090101    1.447420
     13          1           0        1.549992    2.634520    0.058871
     14          1           0       -0.128677    3.085076    0.203497
     15          6           0        1.005024   -0.205584   -0.181706
     16          8           0        0.593462   -1.314032   -0.354000
     17          7           0        2.339311    0.048315   -0.096320
     18          1           0        2.634659    0.914110    0.288224
     19          6           0        3.267543   -1.060135    0.017159
     20          1           0        3.142731   -1.606247    0.945803
     21          1           0        3.114200   -1.745490   -0.802879
     22          1           0        4.275293   -0.668902   -0.033522
 ---------------------------------------------------------------------

 The electronic state is 1-A.
 Alpha  occ. eigenvalues --  -20.52313 -20.51539 -15.58396 -15.57554 -11.34713
 Alpha  occ. eigenvalues --  -11.33917 -11.29196 -11.25425 -11.23406 -11.22481
 Alpha  occ. eigenvalues --   -1.39802  -1.37957  -1.23341  -1.22659  -1.05630
 Alpha  occ. eigenvalues --   -0.98755  -0.95219  -0.88734  -0.79860  -0.77364
 Alpha  occ. eigenvalues --   -0.70210  -0.68489  -0.65006  -0.64448  -0.61578
 Alpha  occ. eigenvalues --   -0.61329  -0.60231  -0.57718  -0.56931  -0.56544
 Alpha  occ. eigenvalues --   -0.55278  -0.54225  -0.53973  -0.51782  -0.48786
 Alpha  occ. eigenvalues --   -0.42033  -0.40515  -0.39382  -0.38009
 Alpha virt. eigenvalues --    0.17839   0.20312   0.22357   0.23196   0.26311
 Alpha virt. eigenvalues --    0.27683   0.29109   0.29964   0.30349   0.31799
 Alpha virt. eigenvalues --    0.32412   0.33825   0.34105   0.35304   0.36995

 Mulliken atomic charges:
              1
     1  H    0.214944
     2  C   -0.598818
     3  H    0.173829
     4  H    0.192473
     5  C    0.769477
     6  O   -0.554496
     7  N   -0.806123
     8  H    0.364896
     9  C   -0.023688
    10  H    0.203518
    11  C   -0.495555
    12  H    0.192346
    13  H    0.153025
    14  H    0.182008
    15  C    0.753664
    16  O   -0.585780
    17  N   -0.796880
    18  H    0.387925
    19  C   -0.277078
    20  H    0.182390
    21  H    0.202930
    22  H    0.164995
 Sum of Mulliken atomic charges =   0.00000

 Dipole moment (field-independent basis, Debye):
    X=              1.5336    Y=              4.6183    Z=             -2.4096  Tot=              5.4301
 Quadrupole moment (field-independent basis, Debye-Ang):
   XX=            -47.2130   YY=            -62.7159   ZZ=            -62.4084
   XY=             -1.4108   XZ=              7.6276   YZ=              0.6441

 Normal termination of Gaussian 09 at Thu Feb  9 13:07:11 2017.
