 Gaussian 09, Revision A.02,
 Gaussian 09:  EM64L-G09RevA.02 11-Jun-2009

 -------------------------------------------
 # HF/6-31G* Opt=(ModRedundant) geom=nocrowd
 -------------------------------------------

 ------------------
 Phi Psi fixed scan
 ------------------
 Symbolic Z-matrix:
 Charge =  0 Multiplicity = 1

 SCF Done:  E(RHF) =  -491.935615574     A.U. after   30 cycles
 SCF Done:  E(RHF) =  -492.152183180     A.U. after   23 cycles
 SCF Done:  E(RHF) =  -492.355643016     A.U. after   27 cycles
 SCF Done:  E(RHF) =  -492.395824215     A.U. after   39 cycles
 SCF Done:  E(RHF) =  -492.556040676     A.U. after   19 cycles
 SCF Done:  E(RHF) =  -492.718690052     A.U. after   15 cycles
 SCF Done:  E(RHF) =  -492.774404336     A.U. after   14 cycles
 SCF Done:  E(RHF) =  -492.809872699     A.U. after   14 cycles
 SCF Done:  E(RHF) =  -492.819001852     A.U. after   13 cycles
 SCF Done:  E(RHF) =  -492.831432736     A.U. after   14 cycles
 SCF Done:  E(RHF) =  -492.843605685     A.U. after   10 cycles
 SCF Done:  E(RHF) =  -492.843607111     A.U. after    9 cycles
 SCF Done:  E(RHF) =  -492.843608604     A.U. after   10 cycles
 SCF Done:  E(RHF) =  -492.843611267     A.U. after    9 cycles
 SCF Done:  E(RHF) =  -492.843614782     A.U. after   10 cycles
 SCF Done:  E(RHF) =  -492.843618138     A.U. after   10 cycles
 SCF Done:  E(RHF) =  -492.843619556     A.U. after   10 cycles
 SCF Done:  E(RHF) =  -492.843619633     A.U. after    9 cycles
 SCF Done:  E(RHF) =  -492.843619653     A.U. after    8 cycles
 SCF Done:  E(RHF) =  -492.843619655     A.U. after    6 cycles
 Optimization completed.
    -- Stationary point found.

                         Standard orientation:
 ---------------------------------------------------------------------
 Center     Atomic      Atomic             Coordinates (Angstroms)
 Number     Number       Type             X           Y           Z
 ---------------------------------------------------------------------
      1          1           0       -3.809076   -1.134590    0.603792
      2          6           0       -3.400633   -0.418701   -0.095210
      3          1           0       -3.798017    0.565603    0.120837
      4          1           0       -3.714147   -0.707684   -1.092964
      5          6           0       -1.887042   -0.494136   -0.028279
      6          8           0       -1.356045   -1.563519    0.143672
      7          7           0       -1.263690    0.689054   -0.195956
      8          1           0       -1.891922    1.450588   -0.319061
      9          6           0        0.125943    1.173370   -0.311630
     10          1           0        0.204104    1.617423   -1.295620
     11          6           0        0.322413    2.281413    0.733407
     12          1           0        0.271954    1.868183    1.735093
     13          1           0        1.281873    2.756867    0.592307
     14          1           0       -0.454178    3.034888    0.638837
     15          6           0        1.371243    0.267926   -0.254719
     16          8           0        2.397213    0.806414   -0.593498
     17          7           0        1.318725   -0.983611    0.190790
     18          1           0        0.427864   -1.416445    0.315573
     19          6           0        2.517713   -1.792712    0.225556
     20          1           0        3.277562   -1.322401    0.835177
     21          1           0        2.265509   -2.753594    0.653264
     22          1           0        2.926063   -1.943056   -0.767211
 ---------------------------------------------------------------------

 The electronic state is 1-A.
 Alpha  occ. eigenvalues --  -20.53975 -20.50836 -15.60685 -15.56366 -11.37103
 Alpha  occ. eigenvalues --  -11.34044 -11.29229 -11.24501 -11.24336 -11.22822
 Alpha  occ. eigenvalues --   -1.40787  -1.38067  -1.25561  -1.21841  -1.06436
 Alpha  occ. eigenvalues --   -1.00121  -0.95025  -0.88320  -0.82113  -0.77424
 Alpha  occ. eigenvalues --   -0.71205  -0.70597  -0.66144  -0.63460  -0.62437
 Alpha  occ. eigenvalues --   -0.61767  -0.60309  -0.58930  -0.58264  -0.56657
 Alpha  occ. eigenvalues --   -0.54644  -0.53863  -0.53076  -0.52320  -0.49858
 Alpha  occ. eigenvalues --   -0.43342  -0.41141  -0.40271  -0.37349
 Alpha virt. eigenvalues --    0.18587   0.19543   0.21100   0.25791   0.26962
 Alpha virt. eigenvalues --    0.28021   0.28836   0.30127   0.31413   0.31591
 Alpha virt. eigenvalues --    0.33144   0.34339   0.35343   0.35664   0.37740

 Mulliken atomic charges:
              1
     1  H    0.217128
     2  C   -0.582941
     3  H    0.171135
     4  H    0.208981
     5  C    0.780927
     6  O   -0.644008
     7  N   -0.838999
     8  H    0.386596
     9  C    0.001704
    10  H    0.217335
    11  C   -0.491343
    12  H    0.179473
    13  H    0.219265
    14  H    0.153151
    15  C    0.749058
    16  O   -0.639640
    17  N   -0.834222
    18  H    0.481544
    19  C   -0.271089
    20  H    0.187024
    21  H    0.169846
    22  H    0.179076
 Sum of Mulliken atomic charges =   0.00000

 Dipole moment (field-independent basis, Debye):
    X=             -4.4042    Y=              1.3896    Z=              0.3924  Tot=              4.6348
 Quadrupole moment (field-independent basis, Debye-Ang):
   XX=            -60.2653   YY=            -60.0489   ZZ=            -60.7373
   XY=            -10.2366   XZ=              4.5750   YZ=              0.5276

 Normal termination of Gaussian 09 at Thu Feb  9 13:49:27 2017.
