 Gaussian 09, Revision A.02,
 Gaussian 09:  EM64L-G09RevA.02 11-Jun-2009

 -------------------------------------------
 # HF/6-31G* Opt=(ModRedundant) geom=nocrowd
 -------------------------------------------

 ------------------
 Phi Psi fixed scan
 ------------------
 Symbolic Z-matrix:
 Charge =  0 Multiplicity = 1

 SCF Done:  E(RHF) =  -492.780197371     A.U. after   15 cycles
 SCF Done:  E(RHF) =  -492.821373242     A.U. after   15 cycles
 SCF Done:  E(RHF) =  -492.829556807     A.U. after   14 cycles
 SCF Done:  E(RHF) =  -492.834272259     A.U. after   13 cycles
 SCF Done:  E(RHF) =  -492.835977963     A.U. after   13 cycles
 SCF Done:  E(RHF) =  -492.837110550     A.U. after   13 cycles
 SCF Done:  E(RHF) =  -492.837616859     A.U. after   13 cycles
 SCF Done:  E(RHF) =  -492.837829903     A.U. after   13 cycles
 SCF Done:  E(RHF) =  -492.838126572     A.U. after   12 cycles
 SCF Done:  E(RHF) =  -492.838293615     A.U. after   12 cycles
 SCF Done:  E(RHF) =  -492.838635791     A.U. after   12 cycles
 SCF Done:  E(RHF) =  -492.839019718     A.U. after   12 cycles
 SCF Done:  E(RHF) =  -492.839047777     A.U. after   12 cycles
 SCF Done:  E(RHF) =  -492.838998494     A.U. after   11 cycles
 SCF Done:  E(RHF) =  -492.839136218     A.U. after   11 cycles
 SCF Done:  E(RHF) =  -492.839160612     A.U. after   11 cycles
 SCF Done:  E(RHF) =  -492.839174219     A.U. after   11 cycles
 SCF Done:  E(RHF) =  -492.839176096     A.U. after   10 cycles
 SCF Done:  E(RHF) =  -492.839176340     A.U. after    8 cycles
 SCF Done:  E(RHF) =  -492.839176391     A.U. after    8 cycles
 Optimization completed.
    -- Stationary point found.

                         Standard orientation:
 ---------------------------------------------------------------------
 Center     Atomic      Atomic             Coordinates (Angstroms)
 Number     Number       Type             X           Y           Z
 ---------------------------------------------------------------------
      1          1           0        3.554253   -1.579360   -0.548883
      2          6           0        3.236725   -0.709946    0.007236
      3          1           0        3.856276    0.139791   -0.259772
      4          1           0        3.365384   -0.903910    1.067861
      5          6           0        1.773900   -0.450535   -0.278751
      6          8           0        1.069736   -1.262370   -0.802258
      7          7           0        1.340110    0.809191    0.046990
      8          1           0        2.022092    1.359459    0.521541
      9          6           0       -0.022043    1.164248    0.449990
     10          1           0        0.013864    1.453118    1.493890
     11          6           0       -0.497605    2.364241   -0.368907
     12          1           0       -0.509570    2.136523   -1.429708
     13          1           0       -1.485007    2.689036   -0.060297
     14          1           0        0.186868    3.194147   -0.228846
     15          6           0       -0.970075   -0.048779    0.479103
     16          8           0       -0.820819   -0.877615    1.331429
     17          7           0       -2.054817   -0.016359   -0.327535
     18          1           0       -1.993441    0.528058   -1.156466
     19          6           0       -2.936376   -1.167022   -0.375125
     20          1           0       -3.268772   -1.405759    0.623807
     21          1           0       -3.796343   -0.917056   -0.982880
     22          1           0       -2.441152   -2.037220   -0.791074
 ---------------------------------------------------------------------

 The electronic state is 1-A.
 Alpha  occ. eigenvalues --  -20.52433 -20.51215 -15.58633 -15.57819 -11.34842
 Alpha  occ. eigenvalues --  -11.34082 -11.28530 -11.24680 -11.23181 -11.23112
 Alpha  occ. eigenvalues --   -1.39664  -1.38058  -1.23823  -1.22470  -1.05688
 Alpha  occ. eigenvalues --   -0.99333  -0.94693  -0.88506  -0.80212  -0.77266
 Alpha  occ. eigenvalues --   -0.70829  -0.68826  -0.65354  -0.63768  -0.62192
 Alpha  occ. eigenvalues --   -0.61151  -0.59812  -0.57684  -0.57154  -0.56338
 Alpha  occ. eigenvalues --   -0.54701  -0.54392  -0.53222  -0.52162  -0.49428
 Alpha  occ. eigenvalues --   -0.41707  -0.41114  -0.39159  -0.38324
 Alpha virt. eigenvalues --    0.18696   0.19548   0.22477   0.24012   0.26184
 Alpha virt. eigenvalues --    0.28143   0.29365   0.30176   0.31032   0.31299
 Alpha virt. eigenvalues --    0.31961   0.33617   0.34614   0.35137   0.37816

 Mulliken atomic charges:
              1
     1  H    0.216469
     2  C   -0.595377
     3  H    0.177490
     4  H    0.200714
     5  C    0.760504
     6  O   -0.588435
     7  N   -0.799400
     8  H    0.373752
     9  C   -0.020200
    10  H    0.208297
    11  C   -0.491609
    12  H    0.171466
    13  H    0.180342
    14  H    0.171385
    15  C    0.783541
    16  O   -0.615121
    17  N   -0.792985
    18  H    0.385309
    19  C   -0.282085
    20  H    0.201827
    21  H    0.163330
    22  H    0.190787
 Sum of Mulliken atomic charges =   0.00000

 Dipole moment (field-independent basis, Debye):
    X=              0.9438    Y=              4.2384    Z=             -0.8005  Tot=              4.4154
 Quadrupole moment (field-independent basis, Debye-Ang):
   XX=            -47.5792   YY=            -61.7170   ZZ=            -63.2477
   XY=              2.1419   XZ=              6.8855   YZ=              2.0710

 Normal termination of Gaussian 09 at Thu Feb  9 13:16:30 2017.
