 Gaussian 09, Revision A.02,
 Gaussian 09:  EM64L-G09RevA.02 11-Jun-2009

 -------------------------------------------
 # HF/6-31G* Opt=(ModRedundant) geom=nocrowd
 -------------------------------------------

 ------------------
 Phi Psi fixed scan
 ------------------
 Symbolic Z-matrix:
 Charge =  0 Multiplicity = 1

 SCF Done:  E(RHF) =  -492.704371293     A.U. after   17 cycles
 SCF Done:  E(RHF) =  -492.800130338     A.U. after   14 cycles
 SCF Done:  E(RHF) =  -492.828408711     A.U. after   14 cycles
 SCF Done:  E(RHF) =  -492.838518064     A.U. after   14 cycles
 SCF Done:  E(RHF) =  -492.840196141     A.U. after   12 cycles
 SCF Done:  E(RHF) =  -492.840638384     A.U. after   13 cycles
 SCF Done:  E(RHF) =  -492.841052881     A.U. after   12 cycles
 SCF Done:  E(RHF) =  -492.841304513     A.U. after   12 cycles
 SCF Done:  E(RHF) =  -492.841479504     A.U. after   12 cycles
 SCF Done:  E(RHF) =  -492.841612206     A.U. after   11 cycles
 SCF Done:  E(RHF) =  -492.842469312     A.U. after   11 cycles
 SCF Done:  E(RHF) =  -492.842476074     A.U. after   10 cycles
 SCF Done:  E(RHF) =  -492.842479747     A.U. after   10 cycles
 SCF Done:  E(RHF) =  -492.842482213     A.U. after   10 cycles
 SCF Done:  E(RHF) =  -492.842483052     A.U. after   10 cycles
 SCF Done:  E(RHF) =  -492.842483432     A.U. after    9 cycles
 SCF Done:  E(RHF) =  -492.842483491     A.U. after    9 cycles
 SCF Done:  E(RHF) =  -492.842483505     A.U. after    7 cycles
 SCF Done:  E(RHF) =  -492.842483512     A.U. after    7 cycles
 SCF Done:  E(RHF) =  -492.842483515     A.U. after    7 cycles
 Optimization completed.
    -- Stationary point found.

                         Standard orientation:
 ---------------------------------------------------------------------
 Center     Atomic      Atomic             Coordinates (Angstroms)
 Number     Number       Type             X           Y           Z
 ---------------------------------------------------------------------
      1          1           0       -3.642158   -1.583595   -0.238498
      2          6           0       -3.320075   -0.599503    0.072113
      3          1           0       -3.660601   -0.442653    1.090049
      4          1           0       -3.776357    0.148453   -0.564966
      5          6           0       -1.803881   -0.567751    0.066875
      6          8           0       -1.182373   -1.527138    0.447697
      7          7           0       -1.268886    0.595860   -0.356201
      8          1           0       -1.938281    1.267007   -0.656481
      9          6           0        0.096126    1.137017   -0.464198
     10          1           0        0.274397    1.297312   -1.525037
     11          6           0        0.116380    2.494609    0.237991
     12          1           0       -0.012404    2.372022    1.306442
     13          1           0        1.053474    2.999954    0.062505
     14          1           0       -0.689367    3.119696   -0.137603
     15          6           0        1.323546    0.303266   -0.032971
     16          8           0        2.246239    0.885009    0.470606
     17          7           0        1.394960   -0.986729   -0.413354
     18          1           0        0.530937   -1.482729   -0.427672
     19          6           0        2.565624   -1.757733   -0.044359
     20          1           0        3.456909   -1.277106   -0.420656
     21          1           0        2.663722   -1.865278    1.030901
     22          1           0        2.479958   -2.739396   -0.491215
 ---------------------------------------------------------------------

 The electronic state is 1-A.
 Alpha  occ. eigenvalues --  -20.53566 -20.52089 -15.60592 -15.56136 -11.36800
 Alpha  occ. eigenvalues --  -11.34362 -11.29308 -11.24391 -11.24069 -11.22204
 Alpha  occ. eigenvalues --   -1.40560  -1.38911  -1.25478  -1.21691  -1.06241
 Alpha  occ. eigenvalues --   -0.99927  -0.94958  -0.87769  -0.81977  -0.76558
 Alpha  occ. eigenvalues --   -0.70951  -0.70456  -0.66877  -0.63677  -0.62837
 Alpha  occ. eigenvalues --   -0.61102  -0.60381  -0.59160  -0.58059  -0.55827
 Alpha  occ. eigenvalues --   -0.54140  -0.53489  -0.52516  -0.51948  -0.50787
 Alpha  occ. eigenvalues --   -0.43320  -0.42001  -0.40050  -0.37702
 Alpha virt. eigenvalues --    0.18376   0.18864   0.21603   0.25373   0.26941
 Alpha virt. eigenvalues --    0.28508   0.29001   0.29959   0.31566   0.31879
 Alpha virt. eigenvalues --    0.33024   0.33462   0.34700   0.35382   0.38578

 Mulliken atomic charges:
              1
     1  H    0.214664
     2  C   -0.579857
     3  H    0.210679
     4  H    0.169029
     5  C    0.768886
     6  O   -0.636505
     7  N   -0.831956
     8  H    0.387163
     9  C   -0.018699
    10  H    0.209594
    11  C   -0.470174
    12  H    0.184553
    13  H    0.209865
    14  H    0.142167
    15  C    0.752683
    16  O   -0.612024
    17  N   -0.795133
    18  H    0.441459
    19  C   -0.280131
    20  H    0.190919
    21  H    0.175153
    22  H    0.167663
 Sum of Mulliken atomic charges =   0.00000

 Dipole moment (field-independent basis, Debye):
    X=             -4.1938    Y=              1.1066    Z=             -2.1163  Tot=              4.8261
 Quadrupole moment (field-independent basis, Debye-Ang):
   XX=            -57.8906   YY=            -60.5342   ZZ=            -61.1805
   XY=             -8.4782   XZ=             -0.7025   YZ=             -0.7814

 Normal termination of Gaussian 09 at Thu Feb  9 12:23:20 2017.
