 Gaussian 09, Revision A.02,
 Gaussian 09:  EM64L-G09RevA.02 11-Jun-2009

 -------------------------------------------
 # HF/6-31G* Opt=(ModRedundant) geom=nocrowd
 -------------------------------------------

 ------------------
 Phi Psi fixed scan
 ------------------
 Symbolic Z-matrix:
 Charge =  0 Multiplicity = 1

 SCF Done:  E(RHF) =  -488.214603544     A.U. after   32 cycles
 SCF Done:  E(RHF) =  -490.579316654     A.U. after   23 cycles
 SCF Done:  E(RHF) =  -492.012902761     A.U. after   19 cycles
 SCF Done:  E(RHF) =  -492.444037415     A.U. after   16 cycles
 SCF Done:  E(RHF) =  -492.396617783     A.U. after   16 cycles
 SCF Done:  E(RHF) =  -492.672054849     A.U. after   16 cycles
 SCF Done:  E(RHF) =  -492.768749191     A.U. after   14 cycles
 SCF Done:  E(RHF) =  -492.802278404     A.U. after   16 cycles
 SCF Done:  E(RHF) =  -492.820205174     A.U. after   13 cycles
 SCF Done:  E(RHF) =  -492.828992765     A.U. after   13 cycles
 SCF Done:  E(RHF) =  -492.842988303     A.U. after   12 cycles
 SCF Done:  E(RHF) =  -492.843118935     A.U. after   12 cycles
 SCF Done:  E(RHF) =  -492.843129502     A.U. after   11 cycles
 SCF Done:  E(RHF) =  -492.843134177     A.U. after   10 cycles
 SCF Done:  E(RHF) =  -492.843135830     A.U. after   10 cycles
 SCF Done:  E(RHF) =  -492.843137660     A.U. after   10 cycles
 SCF Done:  E(RHF) =  -492.843140281     A.U. after   10 cycles
 SCF Done:  E(RHF) =  -492.843141135     A.U. after   10 cycles
 SCF Done:  E(RHF) =  -492.843141338     A.U. after    9 cycles
 SCF Done:  E(RHF) =  -492.843141372     A.U. after    8 cycles
 Optimization completed.
    -- Stationary point found.

                         Standard orientation:
 ---------------------------------------------------------------------
 Center     Atomic      Atomic             Coordinates (Angstroms)
 Number     Number       Type             X           Y           Z
 ---------------------------------------------------------------------
      1          1           0       -3.810411   -1.095339    0.661725
      2          6           0       -3.396901   -0.424545   -0.077887
      3          1           0       -3.791725    0.572230    0.076643
      4          1           0       -3.707795   -0.773035   -1.057267
      5          6           0       -1.883733   -0.501823   -0.000235
      6          8           0       -1.360046   -1.563548    0.232246
      7          7           0       -1.256057    0.668652   -0.229519
      8          1           0       -1.884473    1.420067   -0.402731
      9          6           0        0.133021    1.159875   -0.342028
     10          1           0        0.233043    1.531762   -1.355287
     11          6           0        0.276425    2.347158    0.619700
     12          1           0        0.193315    2.011299    1.647862
     13          1           0        1.233422    2.825250    0.479066
     14          1           0       -0.507241    3.077428    0.439005
     15          6           0        1.386551    0.273633   -0.193430
     16          8           0        2.434315    0.853891   -0.349145
     17          7           0        1.310791   -1.028482    0.052638
     18          1           0        0.417302   -1.457417    0.173573
     19          6           0        2.515244   -1.823037    0.154677
     20          1           0        3.090205   -1.777479   -0.761668
     21          1           0        3.144783   -1.477388    0.965298
     22          1           0        2.228644   -2.848889    0.342357
 ---------------------------------------------------------------------

 The electronic state is 1-A.
 Alpha  occ. eigenvalues --  -20.54024 -20.50737 -15.60715 -15.56369 -11.37146
 Alpha  occ. eigenvalues --  -11.34055 -11.29338 -11.24516 -11.24356 -11.22587
 Alpha  occ. eigenvalues --   -1.40824  -1.38018  -1.25586  -1.21842  -1.06381
 Alpha  occ. eigenvalues --   -1.00064  -0.95138  -0.88203  -0.82110  -0.77536
 Alpha  occ. eigenvalues --   -0.71144  -0.70640  -0.66314  -0.63512  -0.62471
 Alpha  occ. eigenvalues --   -0.61447  -0.60373  -0.59076  -0.58350  -0.56424
 Alpha  occ. eigenvalues --   -0.54434  -0.53998  -0.52938  -0.52288  -0.49884
 Alpha  occ. eigenvalues --   -0.43301  -0.40914  -0.40477  -0.37310
 Alpha virt. eigenvalues --    0.18600   0.19301   0.21431   0.25946   0.26996
 Alpha virt. eigenvalues --    0.28171   0.28834   0.30116   0.31335   0.31583
 Alpha virt. eigenvalues --    0.33252   0.34210   0.35366   0.35738   0.37960

 Mulliken atomic charges:
              1
     1  H    0.217590
     2  C   -0.583037
     3  H    0.171296
     4  H    0.208653
     5  C    0.781983
     6  O   -0.644956
     7  N   -0.840232
     8  H    0.386982
     9  C   -0.003559
    10  H    0.216340
    11  C   -0.489436
    12  H    0.177498
    13  H    0.224062
    14  H    0.149823
    15  C    0.759692
    16  O   -0.642378
    17  N   -0.844612
    18  H    0.487385
    19  C   -0.268937
    20  H    0.183711
    21  H    0.182145
    22  H    0.169986
 Sum of Mulliken atomic charges =   0.00000

 Dipole moment (field-independent basis, Debye):
    X=             -4.4385    Y=              1.2346    Z=             -0.2544  Tot=              4.6140
 Quadrupole moment (field-independent basis, Debye-Ang):
   XX=            -60.7558   YY=            -60.3075   ZZ=            -60.1380
   XY=            -10.4967   XZ=              3.4757   YZ=              0.2682

 Normal termination of Gaussian 09 at Thu Feb  9 12:06:41 2017.
