 Gaussian 09, Revision A.02,
 Gaussian 09:  EM64L-G09RevA.02 11-Jun-2009

 -------------------------------------------
 # HF/6-31G* Opt=(ModRedundant) geom=nocrowd
 -------------------------------------------

 ------------------
 Phi Psi fixed scan
 ------------------
 Symbolic Z-matrix:
 Charge =  0 Multiplicity = 1

 SCF Done:  E(RHF) =  -492.647610089     A.U. after   18 cycles
 SCF Done:  E(RHF) =  -492.721463902     A.U. after   15 cycles
 SCF Done:  E(RHF) =  -492.793668032     A.U. after   14 cycles
 SCF Done:  E(RHF) =  -492.806087171     A.U. after   14 cycles
 SCF Done:  E(RHF) =  -492.822765554     A.U. after   14 cycles
 SCF Done:  E(RHF) =  -492.826099617     A.U. after   14 cycles
 SCF Done:  E(RHF) =  -492.829120850     A.U. after   13 cycles
 SCF Done:  E(RHF) =  -492.830301969     A.U. after   13 cycles
 SCF Done:  E(RHF) =  -492.831208885     A.U. after   14 cycles
 SCF Done:  E(RHF) =  -492.831819222     A.U. after   13 cycles
 SCF Done:  E(RHF) =  -492.832847555     A.U. after   13 cycles
 SCF Done:  E(RHF) =  -492.832950973     A.U. after   11 cycles
 SCF Done:  E(RHF) =  -492.833046374     A.U. after   12 cycles
 SCF Done:  E(RHF) =  -492.833154370     A.U. after   12 cycles
 SCF Done:  E(RHF) =  -492.833319817     A.U. after   11 cycles
 SCF Done:  E(RHF) =  -492.833401623     A.U. after   12 cycles
 SCF Done:  E(RHF) =  -492.833407666     A.U. after   10 cycles
 SCF Done:  E(RHF) =  -492.833412793     A.U. after   11 cycles
 SCF Done:  E(RHF) =  -492.833415394     A.U. after   10 cycles
 SCF Done:  E(RHF) =  -492.833415577     A.U. after    9 cycles
 Optimization completed.
    -- Stationary point found.

                         Standard orientation:
 ---------------------------------------------------------------------
 Center     Atomic      Atomic             Coordinates (Angstroms)
 Number     Number       Type             X           Y           Z
 ---------------------------------------------------------------------
      1          1           0       -3.752916   -1.368057    0.410162
      2          6           0       -3.271358   -0.401725    0.401493
      3          1           0       -3.167916   -0.046557    1.422387
      4          1           0       -3.890397    0.306144   -0.141033
      5          6           0       -1.901050   -0.541048   -0.228264
      6          8           0       -1.416345   -1.601761   -0.470517
      7          7           0       -1.314958    0.660883   -0.578635
      8          1           0       -1.887873    1.438882   -0.333974
      9          6           0        0.096348    1.020732   -0.482874
     10          1           0        0.442975    1.290934   -1.476397
     11          6           0        0.253475    2.244997    0.427665
     12          1           0       -0.058369    2.000794    1.436310
     13          1           0        1.285232    2.573780    0.452861
     14          1           0       -0.351337    3.068983    0.060265
     15          6           0        1.021301   -0.067052    0.070539
     16          8           0        0.734384   -0.725119    1.026264
     17          7           0        2.288387   -0.006092   -0.417878
     18          1           0        2.411146    0.353869   -1.336956
     19          6           0        3.292316   -0.937230    0.058331
     20          1           0        3.321882   -0.910630    1.137134
     21          1           0        3.086971   -1.955520   -0.253668
     22          1           0        4.256095   -0.633159   -0.328819
 ---------------------------------------------------------------------

 The electronic state is 1-A.
 Alpha  occ. eigenvalues --  -20.52146 -20.51683 -15.58465 -15.57883 -11.34466
 Alpha  occ. eigenvalues --  -11.34091 -11.28795 -11.25381 -11.23687 -11.22647
 Alpha  occ. eigenvalues --   -1.39639  -1.38074  -1.23562  -1.22821  -1.05739
 Alpha  occ. eigenvalues --   -0.98921  -0.95733  -0.87924  -0.80183  -0.77393
 Alpha  occ. eigenvalues --   -0.69561  -0.68461  -0.66588  -0.63741  -0.62606
 Alpha  occ. eigenvalues --   -0.61206  -0.59554  -0.57905  -0.57680  -0.55349
 Alpha  occ. eigenvalues --   -0.55069  -0.54983  -0.53717  -0.51950  -0.48939
 Alpha  occ. eigenvalues --   -0.42273  -0.40823  -0.39086  -0.38182
 Alpha virt. eigenvalues --    0.19400   0.20631   0.20699   0.22955   0.26922
 Alpha virt. eigenvalues --    0.27064   0.28340   0.30561   0.31016   0.31623
 Alpha virt. eigenvalues --    0.32147   0.33355   0.34017   0.34675   0.37775

 Mulliken atomic charges:
              1
     1  H    0.215563
     2  C   -0.597734
     3  H    0.194101
     4  H    0.175643
     5  C    0.760329
     6  O   -0.566605
     7  N   -0.809650
     8  H    0.370403
     9  C    0.010186
    10  H    0.175462
    11  C   -0.516109
    12  H    0.198488
    13  H    0.190092
    14  H    0.169025
    15  C    0.761379
    16  O   -0.593134
    17  N   -0.789899
    18  H    0.377446
    19  C   -0.279701
    20  H    0.204526
    21  H    0.183797
    22  H    0.166394
 Sum of Mulliken atomic charges =   0.00000

 Dipole moment (field-independent basis, Debye):
    X=              0.8151    Y=              4.7845    Z=             -1.3619  Tot=              5.0409
 Quadrupole moment (field-independent basis, Debye-Ang):
   XX=            -46.5569   YY=            -63.4234   ZZ=            -61.8275
   XY=             -4.8557   XZ=             -6.0380   YZ=             -0.2603

 Normal termination of Gaussian 09 at Thu Feb  9 12:55:34 2017.
