 Gaussian 09, Revision A.02,
 Gaussian 09:  EM64L-G09RevA.02 11-Jun-2009

 -------------------------------------------
 # HF/6-31G* Opt=(ModRedundant) geom=nocrowd
 -------------------------------------------

 ------------------
 Phi Psi fixed scan
 ------------------
 Symbolic Z-matrix:
 Charge =  0 Multiplicity = 1

 SCF Done:  E(RHF) =  -492.518920711     A.U. after   21 cycles
 SCF Done:  E(RHF) =  -492.634155170     A.U. after   17 cycles
 SCF Done:  E(RHF) =  -492.744603107     A.U. after   16 cycles
 SCF Done:  E(RHF) =  -492.794657185     A.U. after   16 cycles
 SCF Done:  E(RHF) =  -492.808872798     A.U. after   16 cycles
 SCF Done:  E(RHF) =  -492.812993038     A.U. after   13 cycles
 SCF Done:  E(RHF) =  -492.815305718     A.U. after   13 cycles
 SCF Done:  E(RHF) =  -492.816437654     A.U. after   13 cycles
 SCF Done:  E(RHF) =  -492.816952725     A.U. after   13 cycles
 SCF Done:  E(RHF) =  -492.817331678     A.U. after   13 cycles
 SCF Done:  E(RHF) =  -492.826846944     A.U. after   13 cycles
 SCF Done:  E(RHF) =  -492.826912312     A.U. after   12 cycles
 SCF Done:  E(RHF) =  -492.826937757     A.U. after   12 cycles
 SCF Done:  E(RHF) =  -492.826945354     A.U. after   11 cycles
 SCF Done:  E(RHF) =  -492.826951369     A.U. after   10 cycles
 SCF Done:  E(RHF) =  -492.826953731     A.U. after   10 cycles
 SCF Done:  E(RHF) =  -492.826955435     A.U. after    9 cycles
 SCF Done:  E(RHF) =  -492.826956823     A.U. after   10 cycles
 SCF Done:  E(RHF) =  -492.826957584     A.U. after   10 cycles
 SCF Done:  E(RHF) =  -492.826957701     A.U. after    8 cycles
 Optimization completed.
    -- Stationary point found.

                         Standard orientation:
 ---------------------------------------------------------------------
 Center     Atomic      Atomic             Coordinates (Angstroms)
 Number     Number       Type             X           Y           Z
 ---------------------------------------------------------------------
      1          1           0       -3.838334   -1.169472    0.553298
      2          6           0       -3.277084   -0.247503    0.527442
      3          1           0       -3.066713    0.071574    1.543836
      4          1           0       -3.873630    0.523869    0.049538
      5          6           0       -1.976695   -0.484696   -0.214802
      6          8           0       -1.630356   -1.571318   -0.551306
      7          7           0       -1.304563    0.681959   -0.548845
      8          1           0       -1.818956    1.484547   -0.259130
      9          6           0        0.125045    0.978088   -0.497308
     10          1           0        0.449343    1.251496   -1.498404
     11          6           0        0.345310    2.188826    0.422810
     12          1           0        0.072796    1.937050    1.441867
     13          1           0        1.379192    2.507061    0.411044
     14          1           0       -0.266078    3.024275    0.094854
     15          6           0        1.040261   -0.148189   -0.005456
     16          8           0        0.693825   -0.997718    0.757659
     17          7           0        2.356313    0.074591   -0.286780
     18          1           0        2.569685    0.609640   -1.098293
     19          6           0        3.355439   -0.887647    0.135264
     20          1           0        3.267039   -1.831583   -0.392117
     21          1           0        4.336187   -0.468343   -0.047937
     22          1           0        3.245801   -1.076945    1.192299
 ---------------------------------------------------------------------

 The electronic state is 1-A.
 Alpha  occ. eigenvalues --  -20.52547 -20.51466 -15.58460 -15.57663 -11.34680
 Alpha  occ. eigenvalues --  -11.33906 -11.29055 -11.25522 -11.23979 -11.22515
 Alpha  occ. eigenvalues --   -1.39859  -1.37953  -1.23542  -1.22747  -1.05824
 Alpha  occ. eigenvalues --   -0.98799  -0.95670  -0.88261  -0.80112  -0.77330
 Alpha  occ. eigenvalues --   -0.69469  -0.68202  -0.66552  -0.63934  -0.62793
 Alpha  occ. eigenvalues --   -0.61099  -0.59484  -0.57984  -0.57500  -0.55742
 Alpha  occ. eigenvalues --   -0.55210  -0.55127  -0.53900  -0.51947  -0.48889
 Alpha  occ. eigenvalues --   -0.42633  -0.40533  -0.39210  -0.37831
 Alpha virt. eigenvalues --    0.19084   0.20536   0.20659   0.22918   0.26989
 Alpha virt. eigenvalues --    0.27134   0.27895   0.29917   0.31296   0.31626
 Alpha virt. eigenvalues --    0.32006   0.33021   0.33737   0.34747   0.37656

 Mulliken atomic charges:
              1
     1  H    0.215411
     2  C   -0.598546
     3  H    0.190261
     4  H    0.174806
     5  C    0.762168
     6  O   -0.554157
     7  N   -0.817277
     8  H    0.369860
     9  C    0.009568
    10  H    0.178662
    11  C   -0.514701
    12  H    0.192681
    13  H    0.190593
    14  H    0.170416
    15  C    0.743462
    16  O   -0.575206
    17  N   -0.786015
    18  H    0.374033
    19  C   -0.278207
    20  H    0.180227
    21  H    0.166574
    22  H    0.205387
 Sum of Mulliken atomic charges =   0.00000

 Dipole moment (field-independent basis, Debye):
    X=              1.5123    Y=              5.3774    Z=             -0.5741  Tot=              5.6154
 Quadrupole moment (field-independent basis, Debye-Ang):
   XX=            -47.1450   YY=            -64.2345   ZZ=            -61.3008
   XY=             -4.8298   XZ=             -6.3148   YZ=             -0.9236

 Normal termination of Gaussian 09 at Thu Feb  9 12:59:56 2017.
