 Gaussian 09, Revision A.02,
 Gaussian 09:  EM64L-G09RevA.02 11-Jun-2009

 -------------------------------------------
 # HF/6-31G* Opt=(ModRedundant) geom=nocrowd
 -------------------------------------------

 ------------------
 Phi Psi fixed scan
 ------------------
 Symbolic Z-matrix:
 Charge =  0 Multiplicity = 1

 SCF Done:  E(RHF) =  -492.485180999     A.U. after   19 cycles
 SCF Done:  E(RHF) =  -492.596665496     A.U. after   17 cycles
 SCF Done:  E(RHF) =  -492.732251898     A.U. after   14 cycles
 SCF Done:  E(RHF) =  -492.807422301     A.U. after   14 cycles
 SCF Done:  E(RHF) =  -492.833571181     A.U. after   14 cycles
 SCF Done:  E(RHF) =  -492.839129921     A.U. after   13 cycles
 SCF Done:  E(RHF) =  -492.840169985     A.U. after   12 cycles
 SCF Done:  E(RHF) =  -492.840529426     A.U. after   12 cycles
 SCF Done:  E(RHF) =  -492.840716284     A.U. after   12 cycles
 SCF Done:  E(RHF) =  -492.840838317     A.U. after   12 cycles
 SCF Done:  E(RHF) =  -492.842350010     A.U. after   16 cycles
 SCF Done:  E(RHF) =  -492.842350865     A.U. after    9 cycles
 SCF Done:  E(RHF) =  -492.842351910     A.U. after    9 cycles
 SCF Done:  E(RHF) =  -492.842353866     A.U. after   10 cycles
 SCF Done:  E(RHF) =  -492.842356256     A.U. after   10 cycles
 SCF Done:  E(RHF) =  -492.842357359     A.U. after   10 cycles
 SCF Done:  E(RHF) =  -492.842357927     A.U. after   10 cycles
 SCF Done:  E(RHF) =  -492.842358244     A.U. after   10 cycles
 SCF Done:  E(RHF) =  -492.842358302     A.U. after    8 cycles
 SCF Done:  E(RHF) =  -492.842358313     A.U. after    6 cycles
 Optimization completed.
    -- Stationary point found.

                         Standard orientation:
 ---------------------------------------------------------------------
 Center     Atomic      Atomic             Coordinates (Angstroms)
 Number     Number       Type             X           Y           Z
 ---------------------------------------------------------------------
      1          1           0       -3.746473   -1.048226    0.849456
      2          6           0       -3.362010   -0.509267   -0.005282
      3          1           0       -3.789062    0.485844   -0.026159
      4          1           0       -3.670328   -1.040542   -0.899371
      5          6           0       -1.846781   -0.528290    0.063183
      6          8           0       -1.283166   -1.538585    0.403826
      7          7           0       -1.256479    0.628183   -0.298733
      8          1           0       -1.902417    1.335736   -0.565171
      9          6           0        0.122533    1.140647   -0.414563
     10          1           0        0.270691    1.359690   -1.468996
     11          6           0        0.183854    2.458706    0.361406
     12          1           0        0.062536    2.278205    1.423352
     13          1           0        1.130548    2.948686    0.199213
     14          1           0       -0.612361    3.122307    0.035195
     15          6           0        1.365728    0.286510   -0.080326
     16          8           0        2.376802    0.889407    0.174450
     17          7           0        1.337303   -1.039978   -0.248604
     18          1           0        0.455031   -1.497842   -0.162803
     19          6           0        2.532320   -1.815520    0.010812
     20          1           0        3.349672   -1.457042   -0.598761
     21          1           0        2.835176   -1.760445    1.050984
     22          1           0        2.328269   -2.847108   -0.243172
 ---------------------------------------------------------------------

 The electronic state is 1-A.
 Alpha  occ. eigenvalues --  -20.53811 -20.51478 -15.60714 -15.56162 -11.37020
 Alpha  occ. eigenvalues --  -11.34262 -11.29432 -11.24473 -11.24181 -11.22260
 Alpha  occ. eigenvalues --   -1.40710  -1.38526  -1.25585  -1.21732  -1.06306
 Alpha  occ. eigenvalues --   -0.99980  -0.95062  -0.87942  -0.82070  -0.76991
 Alpha  occ. eigenvalues --   -0.71046  -0.70587  -0.66702  -0.63659  -0.62703
 Alpha  occ. eigenvalues --   -0.60990  -0.60476  -0.59243  -0.58257  -0.56034
 Alpha  occ. eigenvalues --   -0.54189  -0.53746  -0.52638  -0.52026  -0.50467
 Alpha  occ. eigenvalues --   -0.43297  -0.41575  -0.40196  -0.37555
 Alpha virt. eigenvalues --    0.18371   0.19131   0.21457   0.25688   0.27026
 Alpha virt. eigenvalues --    0.28414   0.28772   0.30240   0.31612   0.31862
 Alpha virt. eigenvalues --    0.32878   0.34061   0.34678   0.35792   0.38372

 Mulliken atomic charges:
              1
     1  H    0.217578
     2  C   -0.581690
     3  H    0.170324
     4  H    0.208342
     5  C    0.777999
     6  O   -0.641938
     7  N   -0.836929
     8  H    0.387531
     9  C   -0.017097
    10  H    0.213217
    11  C   -0.477949
    12  H    0.179816
    13  H    0.220033
    14  H    0.143889
    15  C    0.758399
    16  O   -0.625714
    17  N   -0.820741
    18  H    0.466238
    19  C   -0.275110
    20  H    0.189721
    21  H    0.175378
    22  H    0.168706
 Sum of Mulliken atomic charges =   0.00000

 Dipole moment (field-independent basis, Debye):
    X=             -4.3287    Y=              1.1194    Z=             -1.5609  Tot=              4.7357
 Quadrupole moment (field-independent basis, Debye-Ang):
   XX=            -59.6196   YY=            -60.5661   ZZ=            -60.3544
   XY=             -9.5066   XZ=              0.8261   YZ=             -0.4622

 Normal termination of Gaussian 09 at Thu Feb  9 12:18:05 2017.
