 Gaussian 09, Revision A.02,
 Gaussian 09:  EM64L-G09RevA.02 11-Jun-2009

 -------------------------------------------
 # HF/6-31G* Opt=(ModRedundant) geom=nocrowd
 -------------------------------------------

 ------------------
 Phi Psi fixed scan
 ------------------
 Symbolic Z-matrix:
 Charge =  0 Multiplicity = 1

 SCF Done:  E(RHF) =  -492.819022964     A.U. after   15 cycles
 SCF Done:  E(RHF) =  -492.837979991     A.U. after   15 cycles
 SCF Done:  E(RHF) =  -492.842050590     A.U. after   13 cycles
 SCF Done:  E(RHF) =  -492.842572217     A.U. after   13 cycles
 SCF Done:  E(RHF) =  -492.843518302     A.U. after   13 cycles
 SCF Done:  E(RHF) =  -492.844076481     A.U. after   12 cycles
 SCF Done:  E(RHF) =  -492.844452001     A.U. after   16 cycles
 SCF Done:  E(RHF) =  -492.844691837     A.U. after   13 cycles
 SCF Done:  E(RHF) =  -492.844941828     A.U. after   13 cycles
 SCF Done:  E(RHF) =  -492.845171124     A.U. after   13 cycles
 SCF Done:  E(RHF) =  -492.845526795     A.U. after   11 cycles
 SCF Done:  E(RHF) =  -492.845531997     A.U. after   11 cycles
 SCF Done:  E(RHF) =  -492.845534887     A.U. after   10 cycles
 SCF Done:  E(RHF) =  -492.845543272     A.U. after   11 cycles
 SCF Done:  E(RHF) =  -492.845554276     A.U. after   11 cycles
 SCF Done:  E(RHF) =  -492.845569359     A.U. after   10 cycles
 SCF Done:  E(RHF) =  -492.845576760     A.U. after   11 cycles
 SCF Done:  E(RHF) =  -492.845577669     A.U. after   11 cycles
 SCF Done:  E(RHF) =  -492.845579219     A.U. after   10 cycles
 SCF Done:  E(RHF) =  -492.845579622     A.U. after    9 cycles
 Optimization completed.
    -- Stationary point found.

                         Standard orientation:
 ---------------------------------------------------------------------
 Center     Atomic      Atomic             Coordinates (Angstroms)
 Number     Number       Type             X           Y           Z
 ---------------------------------------------------------------------
      1          1           0       -3.302715   -1.966484    0.091470
      2          6           0       -3.138395   -0.898770    0.102251
      3          1           0       -3.559232   -0.497951    1.018952
      4          1           0       -3.650852   -0.442817   -0.737179
      5          6           0       -1.645068   -0.638188    0.096286
      6          8           0       -0.871350   -1.433278    0.554902
      7          7           0       -1.285678    0.556473   -0.430882
      8          1           0       -2.024206    1.123836   -0.780448
      9          6           0        0.033793    1.182153   -0.538368
     10          1           0        0.247196    1.296128   -1.598026
     11          6           0       -0.000212    2.563008    0.107663
     12          1           0       -0.162105    2.477654    1.173306
     13          1           0        0.936231    3.081585   -0.053630
     14          1           0       -0.798084    3.159603   -0.326478
     15          6           0        1.197407    0.352668    0.038280
     16          8           0        1.777727    0.710474    1.021356
     17          7           0        1.590799   -0.702925   -0.717677
     18          1           0        0.878892   -1.099943   -1.288568
     19          6           0        2.515317   -1.662594   -0.146058
     20          1           0        3.397702   -1.147400    0.201863
     21          1           0        2.071197   -2.199677    0.684916
     22          1           0        2.802057   -2.366600   -0.916660
 ---------------------------------------------------------------------

 The electronic state is 1-A.
 Alpha  occ. eigenvalues --  -20.52981 -20.52196 -15.59958 -15.56766 -11.35998
 Alpha  occ. eigenvalues --  -11.34153 -11.28731 -11.24037 -11.23902 -11.22083
 Alpha  occ. eigenvalues --   -1.40145  -1.38790  -1.24948  -1.21890  -1.05929
 Alpha  occ. eigenvalues --   -0.99672  -0.94920  -0.87303  -0.81442  -0.76511
 Alpha  occ. eigenvalues --   -0.70801  -0.69676  -0.66713  -0.63478  -0.62630
 Alpha  occ. eigenvalues --   -0.61097  -0.60310  -0.58496  -0.57821  -0.55650
 Alpha  occ. eigenvalues --   -0.53656  -0.53305  -0.52974  -0.51479  -0.51061
 Alpha  occ. eigenvalues --   -0.42657  -0.41827  -0.39693  -0.37851
 Alpha virt. eigenvalues --    0.18803   0.19558   0.21940   0.24806   0.25851
 Alpha virt. eigenvalues --    0.28138   0.29028   0.29539   0.31335   0.31483
 Alpha virt. eigenvalues --    0.32800   0.33349   0.34411   0.35253   0.38383

 Mulliken atomic charges:
              1
     1  H    0.215523
     2  C   -0.583778
     3  H    0.207010
     4  H    0.170437
     5  C    0.750453
     6  O   -0.610874
     7  N   -0.823762
     8  H    0.384030
     9  C   -0.022826
    10  H    0.193796
    11  C   -0.469159
    12  H    0.201474
    13  H    0.186709
    14  H    0.144255
    15  C    0.768503
    16  O   -0.598052
    17  N   -0.753509
    18  H    0.379367
    19  C   -0.289845
    20  H    0.197580
    21  H    0.190015
    22  H    0.162654
 Sum of Mulliken atomic charges =   0.00000

 Dipole moment (field-independent basis, Debye):
    X=             -3.8352    Y=              0.9445    Z=             -3.7478  Tot=              5.4449
 Quadrupole moment (field-independent basis, Debye-Ang):
   XX=            -54.6446   YY=            -59.4371   ZZ=            -62.5285
   XY=             -5.5885   XZ=             -1.9187   YZ=             -0.0220

 Normal termination of Gaussian 09 at Thu Feb  9 12:41:27 2017.
