 Gaussian 09, Revision A.02,
 Gaussian 09:  EM64L-G09RevA.02 11-Jun-2009

 -------------------------------------------
 # HF/6-31G* Opt=(ModRedundant) geom=nocrowd
 -------------------------------------------

 ------------------
 Phi Psi fixed scan
 ------------------
 Symbolic Z-matrix:
 Charge =  0 Multiplicity = 1

 SCF Done:  E(RHF) =  -492.817375504     A.U. after   15 cycles
 SCF Done:  E(RHF) =  -492.837027364     A.U. after   15 cycles
 SCF Done:  E(RHF) =  -492.841426768     A.U. after   13 cycles
 SCF Done:  E(RHF) =  -492.842438267     A.U. after   13 cycles
 SCF Done:  E(RHF) =  -492.843324139     A.U. after   13 cycles
 SCF Done:  E(RHF) =  -492.843962136     A.U. after   13 cycles
 SCF Done:  E(RHF) =  -492.844266527     A.U. after   12 cycles
 SCF Done:  E(RHF) =  -492.844229723     A.U. after   12 cycles
 SCF Done:  E(RHF) =  -492.844474608     A.U. after   12 cycles
 SCF Done:  E(RHF) =  -492.844797263     A.U. after   12 cycles
 SCF Done:  E(RHF) =  -492.845111943     A.U. after   13 cycles
 SCF Done:  E(RHF) =  -492.845103843     A.U. after   12 cycles
 SCF Done:  E(RHF) =  -492.845251091     A.U. after   11 cycles
 SCF Done:  E(RHF) =  -492.845304723     A.U. after   11 cycles
 SCF Done:  E(RHF) =  -492.845325873     A.U. after   11 cycles
 SCF Done:  E(RHF) =  -492.845330511     A.U. after   10 cycles
 SCF Done:  E(RHF) =  -492.845333827     A.U. after   10 cycles
 SCF Done:  E(RHF) =  -492.845336948     A.U. after   10 cycles
 SCF Done:  E(RHF) =  -492.845337117     A.U. after    8 cycles
 Optimization completed.
    -- Stationary point found.

                         Standard orientation:
 ---------------------------------------------------------------------
 Center     Atomic      Atomic             Coordinates (Angstroms)
 Number     Number       Type             X           Y           Z
 ---------------------------------------------------------------------
      1          1           0       -3.312589   -1.997106    0.239281
      2          6           0       -3.115359   -0.936475    0.190648
      3          1           0       -3.372280   -0.489712    1.146332
      4          1           0       -3.737742   -0.484399   -0.573976
      5          6           0       -1.640581   -0.724543   -0.077145
      6          8           0       -0.828609   -1.584882    0.111071
      7          7           0       -1.323166    0.501186   -0.581508
      8          1           0       -2.077992    1.148631   -0.634530
      9          6           0       -0.010413    1.143671   -0.535768
     10          1           0        0.314451    1.309621   -1.558534
     11          6           0       -0.110782    2.494434    0.167361
     12          1           0       -0.382367    2.356738    1.205014
     13          1           0        0.840350    3.012876    0.127687
     14          1           0       -0.852119    3.121763   -0.320363
     15          6           0        1.056965    0.286158    0.165895
     16          8           0        1.159768    0.286688    1.358504
     17          7           0        1.952170   -0.306531   -0.659699
     18          1           0        1.635192   -0.491501   -1.585047
     19          6           0        2.896610   -1.259755   -0.110012
     20          1           0        3.441281   -0.797084    0.699090
     21          1           0        2.398052   -2.145333    0.268259
     22          1           0        3.594819   -1.542455   -0.887250
 ---------------------------------------------------------------------

 The electronic state is 1-A.
 Alpha  occ. eigenvalues --  -20.52659 -20.51541 -15.59105 -15.57467 -11.35259
 Alpha  occ. eigenvalues --  -11.33971 -11.28419 -11.24333 -11.23514 -11.22647
 Alpha  occ. eigenvalues --   -1.39863  -1.38256  -1.24267  -1.22256  -1.05678
 Alpha  occ. eigenvalues --   -0.99429  -0.95228  -0.87320  -0.80733  -0.76942
 Alpha  occ. eigenvalues --   -0.69949  -0.69424  -0.66774  -0.63251  -0.62144
 Alpha  occ. eigenvalues --   -0.61434  -0.59907  -0.58260  -0.57696  -0.55230
 Alpha  occ. eigenvalues --   -0.54007  -0.53941  -0.53504  -0.51392  -0.50204
 Alpha  occ. eigenvalues --   -0.41924  -0.41633  -0.39233  -0.38195
 Alpha virt. eigenvalues --    0.19722   0.20167   0.21642   0.23603   0.26369
 Alpha virt. eigenvalues --    0.27879   0.28654   0.30302   0.31020   0.31875
 Alpha virt. eigenvalues --    0.32622   0.33622   0.34208   0.35415   0.38116

 Mulliken atomic charges:
              1
     1  H    0.216837
     2  C   -0.592045
     3  H    0.201396
     4  H    0.177006
     5  C    0.756780
     6  O   -0.599872
     7  N   -0.812343
     8  H    0.379101
     9  C   -0.005920
    10  H    0.183983
    11  C   -0.500479
    12  H    0.208470
    13  H    0.183960
    14  H    0.153587
    15  C    0.788137
    16  O   -0.609804
    17  N   -0.775217
    18  H    0.378901
    19  C   -0.288608
    20  H    0.200508
    21  H    0.192178
    22  H    0.163446
 Sum of Mulliken atomic charges =   0.00000

 Dipole moment (field-independent basis, Debye):
    X=             -2.2326    Y=              2.1369    Z=             -3.4624  Tot=              4.6410
 Quadrupole moment (field-independent basis, Debye-Ang):
   XX=            -49.4783   YY=            -60.6415   ZZ=            -62.9713
   XY=             -4.6737   XZ=             -4.1070   YZ=              0.0519

 Normal termination of Gaussian 09 at Thu Feb  9 12:47:07 2017.
