 Gaussian 09, Revision A.02,
 Gaussian 09:  EM64L-G09RevA.02 11-Jun-2009

 -------------------------------------------
 # HF/6-31G* Opt=(ModRedundant) geom=nocrowd
 -------------------------------------------

 ------------------
 Phi Psi fixed scan
 ------------------
 Symbolic Z-matrix:
 Charge =  0 Multiplicity = 1

 SCF Done:  E(RHF) =  -492.637826997     A.U. after   18 cycles
 SCF Done:  E(RHF) =  -492.713350478     A.U. after   15 cycles
 SCF Done:  E(RHF) =  -492.785037385     A.U. after   15 cycles
 SCF Done:  E(RHF) =  -492.796012505     A.U. after   16 cycles
 SCF Done:  E(RHF) =  -492.815173956     A.U. after   14 cycles
 SCF Done:  E(RHF) =  -492.820317890     A.U. after   13 cycles
 SCF Done:  E(RHF) =  -492.824189964     A.U. after   13 cycles
 SCF Done:  E(RHF) =  -492.826274972     A.U. after   16 cycles
 SCF Done:  E(RHF) =  -492.827544233     A.U. after   14 cycles
 SCF Done:  E(RHF) =  -492.828279130     A.U. after   13 cycles
 SCF Done:  E(RHF) =  -492.829577092     A.U. after   12 cycles
 SCF Done:  E(RHF) =  -492.829728386     A.U. after   12 cycles
 SCF Done:  E(RHF) =  -492.829925810     A.U. after   12 cycles
 SCF Done:  E(RHF) =  -492.830070997     A.U. after   12 cycles
 SCF Done:  E(RHF) =  -492.830092744     A.U. after   11 cycles
 SCF Done:  E(RHF) =  -492.830100456     A.U. after   11 cycles
 SCF Done:  E(RHF) =  -492.830102057     A.U. after    9 cycles
 SCF Done:  E(RHF) =  -492.830103072     A.U. after    9 cycles
 SCF Done:  E(RHF) =  -492.830103148     A.U. after    8 cycles
 SCF Done:  E(RHF) =  -492.830103210     A.U. after    8 cycles
 Optimization completed.
    -- Stationary point found.

                         Standard orientation:
 ---------------------------------------------------------------------
 Center     Atomic      Atomic             Coordinates (Angstroms)
 Number     Number       Type             X           Y           Z
 ---------------------------------------------------------------------
      1          1           0       -3.761298   -1.397150    0.220175
      2          6           0       -3.274649   -0.600418   -0.322228
      3          1           0       -3.897394    0.288549   -0.295802
      4          1           0       -3.153507   -0.897365   -1.359625
      5          6           0       -1.914304   -0.345723    0.290691
      6          8           0       -1.439428   -1.065690    1.111786
      7          7           0       -1.322190    0.840985   -0.108270
      8          1           0       -1.894267    1.338073   -0.756036
      9          6           0        0.088725    1.066733   -0.425861
     10          1           0        0.151668    1.268694   -1.491502
     11          6           0        0.570308    2.311570    0.324467
     12          1           0        0.602530    2.130068    1.393634
     13          1           0        1.545078    2.642131   -0.018332
     14          1           0       -0.125674    3.124753    0.154760
     15          6           0        0.976179   -0.180242   -0.287692
     16          8           0        0.607606   -1.235658   -0.714526
     17          7           0        2.270628    0.039788    0.054219
     18          1           0        2.481115    0.826478    0.621992
     19          6           0        3.185453   -1.082751    0.135240
     20          1           0        3.173452   -1.625158   -0.798135
     21          1           0        4.182809   -0.700287    0.308976
     22          1           0        2.920721   -1.768437    0.932465
 ---------------------------------------------------------------------

 The electronic state is 1-A.
 Alpha  occ. eigenvalues --  -20.51887 -20.51737 -15.58384 -15.57802 -11.34536
 Alpha  occ. eigenvalues --  -11.34094 -11.28984 -11.25281 -11.23269 -11.22603
 Alpha  occ. eigenvalues --   -1.39602  -1.38034  -1.23370  -1.22758  -1.05603
 Alpha  occ. eigenvalues --   -0.98883  -0.95110  -0.88700  -0.79856  -0.77444
 Alpha  occ. eigenvalues --   -0.70398  -0.68600  -0.65047  -0.64290  -0.61751
 Alpha  occ. eigenvalues --   -0.61268  -0.60005  -0.57654  -0.56922  -0.56405
 Alpha  occ. eigenvalues --   -0.55186  -0.54239  -0.53881  -0.51944  -0.48793
 Alpha  occ. eigenvalues --   -0.41789  -0.40738  -0.39258  -0.38261
 Alpha virt. eigenvalues --    0.18017   0.20023   0.22764   0.23546   0.26267
 Alpha virt. eigenvalues --    0.27883   0.29403   0.29911   0.30446   0.31792
 Alpha virt. eigenvalues --    0.32394   0.33047   0.34403   0.35174   0.37284

 Mulliken atomic charges:
              1
     1  H    0.215086
     2  C   -0.598348
     3  H    0.174650
     4  H    0.196402
     5  C    0.767712
     6  O   -0.566825
     7  N   -0.799870
     8  H    0.366772
     9  C   -0.020910
    10  H    0.205553
    11  C   -0.501803
    12  H    0.186073
    13  H    0.163356
    14  H    0.179769
    15  C    0.768097
    16  O   -0.599019
    17  N   -0.800850
    18  H    0.389228
    19  C   -0.278701
    20  H    0.203242
    21  H    0.164937
    22  H    0.185449
 Sum of Mulliken atomic charges =   0.00000

 Dipole moment (field-independent basis, Debye):
    X=              0.8946    Y=              4.5838    Z=             -1.4302  Tot=              4.8844
 Quadrupole moment (field-independent basis, Debye-Ang):
   XX=            -46.6572   YY=            -62.7463   ZZ=            -62.5099
   XY=             -1.6820   XZ=              7.5456   YZ=             -0.3793

 Normal termination of Gaussian 09 at Thu Feb  9 13:10:27 2017.
