 Gaussian 09, Revision A.02,
 Gaussian 09:  EM64L-G09RevA.02 11-Jun-2009

 -------------------------------------------
 # HF/6-31G* Opt=(ModRedundant) geom=nocrowd
 -------------------------------------------

 ------------------
 Phi Psi fixed scan
 ------------------
 Symbolic Z-matrix:
 Charge =  0 Multiplicity = 1

 SCF Done:  E(RHF) =  -491.934525243     A.U. after   31 cycles
 SCF Done:  E(RHF) =  -492.151061484     A.U. after   25 cycles
 SCF Done:  E(RHF) =  -492.353173396     A.U. after   28 cycles
 SCF Done:  E(RHF) =  -492.391616167     A.U. after   37 cycles
 SCF Done:  E(RHF) =  -492.551869149     A.U. after   19 cycles
 SCF Done:  E(RHF) =  -492.716804998     A.U. after   14 cycles
 SCF Done:  E(RHF) =  -492.770925646     A.U. after   14 cycles
 SCF Done:  E(RHF) =  -492.811355159     A.U. after   14 cycles
 SCF Done:  E(RHF) =  -492.821083278     A.U. after   13 cycles
 SCF Done:  E(RHF) =  -492.830929918     A.U. after   13 cycles
 SCF Done:  E(RHF) =  -492.842633300     A.U. after   11 cycles
 SCF Done:  E(RHF) =  -492.842634654     A.U. after   10 cycles
 SCF Done:  E(RHF) =  -492.842637726     A.U. after   10 cycles
 SCF Done:  E(RHF) =  -492.842643572     A.U. after   10 cycles
 SCF Done:  E(RHF) =  -492.842649578     A.U. after   11 cycles
 SCF Done:  E(RHF) =  -492.842656828     A.U. after   11 cycles
 SCF Done:  E(RHF) =  -492.842660808     A.U. after   11 cycles
 SCF Done:  E(RHF) =  -492.842661903     A.U. after   11 cycles
 SCF Done:  E(RHF) =  -492.842662708     A.U. after   10 cycles
 SCF Done:  E(RHF) =  -492.842662877     A.U. after    9 cycles
 Optimization completed.
    -- Stationary point found.

                         Standard orientation:
 ---------------------------------------------------------------------
 Center     Atomic      Atomic             Coordinates (Angstroms)
 Number     Number       Type             X           Y           Z
 ---------------------------------------------------------------------
      1          1           0       -3.789972   -1.066528    0.745409
      2          6           0       -3.384750   -0.453155   -0.046962
      3          1           0       -3.788076    0.549175    0.029664
      4          1           0       -3.695937   -0.882066   -0.993685
      5          6           0       -1.870778   -0.513088    0.030750
      6          8           0       -1.337514   -1.556022    0.319289
      7          7           0       -1.252930    0.648118   -0.263340
      8          1           0       -1.886898    1.381921   -0.484266
      9          6           0        0.132734    1.148677   -0.375894
     10          1           0        0.256719    1.443388   -1.413448
     11          6           0        0.229591    2.407678    0.493142
     12          1           0        0.118636    2.151664    1.541193
     13          1           0        1.183342    2.889490    0.348294
     14          1           0       -0.558556    3.107958    0.230738
     15          6           0        1.385620    0.279586   -0.134002
     16          8           0        2.430932    0.881375   -0.095154
     17          7           0        1.315771   -1.048127   -0.092689
     18          1           0        0.425297   -1.484496    0.022589
     19          6           0        2.519457   -1.831627    0.082920
     20          1           0        3.232776   -1.613176   -0.700232
     21          1           0        2.992801   -1.630031    1.037140
     22          1           0        2.251390   -2.878477    0.035991
 ---------------------------------------------------------------------

 The electronic state is 1-A.
 Alpha  occ. eigenvalues --  -20.53974 -20.50970 -15.60729 -15.56284 -11.37123
 Alpha  occ. eigenvalues --  -11.34139 -11.29421 -11.24507 -11.24295 -11.22390
 Alpha  occ. eigenvalues --   -1.40801  -1.38187  -1.25600  -1.21800  -1.06342
 Alpha  occ. eigenvalues --   -1.00015  -0.95143  -0.88078  -0.82097  -0.77376
 Alpha  occ. eigenvalues --   -0.71095  -0.70634  -0.66512  -0.63584  -0.62559
 Alpha  occ. eigenvalues --   -0.61159  -0.60419  -0.59222  -0.58355  -0.56208
 Alpha  occ. eigenvalues --   -0.54236  -0.54006  -0.52793  -0.52171  -0.50112
 Alpha  occ. eigenvalues --   -0.43280  -0.41146  -0.40367  -0.37399
 Alpha virt. eigenvalues --    0.18547   0.19154   0.21504   0.25902   0.27033
 Alpha virt. eigenvalues --    0.28331   0.28861   0.30142   0.31378   0.31726
 Alpha virt. eigenvalues --    0.33144   0.34101   0.34990   0.35917   0.38159

 Mulliken atomic charges:
              1
     1  H    0.217751
     2  C   -0.582641
     3  H    0.171015
     4  H    0.208477
     5  C    0.781201
     6  O   -0.644292
     7  N   -0.839636
     8  H    0.387335
     9  C   -0.011260
    10  H    0.215280
    11  C   -0.485490
    12  H    0.177501
    13  H    0.224901
    14  H    0.146791
    15  C    0.763411
    16  O   -0.637287
    17  N   -0.839460
    18  H    0.482026
    19  C   -0.270721
    20  H    0.187649
    21  H    0.177889
    22  H    0.169560
 Sum of Mulliken atomic charges =   0.00000

 Dipole moment (field-independent basis, Debye):
    X=             -4.4096    Y=              1.1546    Z=             -0.9053  Tot=              4.6473
 Quadrupole moment (field-independent basis, Debye-Ang):
   XX=            -60.5531   YY=            -60.5124   ZZ=            -59.9910
   XY=            -10.2528   XZ=              2.1685   YZ=             -0.0954

 Normal termination of Gaussian 09 at Thu Feb  9 12:13:28 2017.
