 Gaussian 09, Revision A.02,
 Gaussian 09:  EM64L-G09RevA.02 11-Jun-2009

 -------------------------------------------
 # HF/6-31G* Opt=(ModRedundant) geom=nocrowd
 -------------------------------------------

 ------------------
 Phi Psi fixed scan
 ------------------
 Symbolic Z-matrix:
 Charge =  0 Multiplicity = 1

 SCF Done:  E(RHF) =  -492.484745080     A.U. after   20 cycles
 SCF Done:  E(RHF) =  -492.596504528     A.U. after   17 cycles
 SCF Done:  E(RHF) =  -492.732340746     A.U. after   15 cycles
 SCF Done:  E(RHF) =  -492.807917338     A.U. after   14 cycles
 SCF Done:  E(RHF) =  -492.834747651     A.U. after   13 cycles
 SCF Done:  E(RHF) =  -492.840738576     A.U. after   13 cycles
 SCF Done:  E(RHF) =  -492.841741873     A.U. after   13 cycles
 SCF Done:  E(RHF) =  -492.842133591     A.U. after   12 cycles
 SCF Done:  E(RHF) =  -492.842327336     A.U. after   12 cycles
 SCF Done:  E(RHF) =  -492.842484778     A.U. after   12 cycles
 SCF Done:  E(RHF) =  -492.843987966     A.U. after   10 cycles
 SCF Done:  E(RHF) =  -492.843990247     A.U. after   10 cycles
 SCF Done:  E(RHF) =  -492.843991282     A.U. after   10 cycles
 SCF Done:  E(RHF) =  -492.843991130     A.U. after    8 cycles
 SCF Done:  E(RHF) =  -492.843992127     A.U. after   10 cycles
 SCF Done:  E(RHF) =  -492.843992158     A.U. after   10 cycles
 SCF Done:  E(RHF) =  -492.843992137     A.U. after   10 cycles
 SCF Done:  E(RHF) =  -492.843992236     A.U. after   10 cycles
 SCF Done:  E(RHF) =  -492.843992240     A.U. after    7 cycles
 SCF Done:  E(RHF) =  -492.843992241     A.U. after    6 cycles
 Optimization completed.
    -- Stationary point found.

                         Standard orientation:
 ---------------------------------------------------------------------
 Center     Atomic      Atomic             Coordinates (Angstroms)
 Number     Number       Type             X           Y           Z
 ---------------------------------------------------------------------
      1          1           0       -3.713002   -0.680283   -1.108517
      2          6           0       -3.394395   -0.439484   -0.099647
      3          1           0       -3.784414   -1.197999    0.564076
      4          1           0       -3.805376    0.525451    0.171596
      5          6           0       -1.879508   -0.492001   -0.050724
      6          8           0       -1.323693   -1.556328    0.059897
      7          7           0       -1.275490    0.708049   -0.161139
      8          1           0       -1.909572    1.471233   -0.234522
      9          6           0        0.111499    1.189331   -0.283889
     10          1           0        0.170519    1.694053   -1.238274
     11          6           0        0.361957    2.220159    0.826849
     12          1           0        0.335890    1.741864    1.799586
     13          1           0        1.326778    2.687971    0.686123
     14          1           0       -0.399967    2.993898    0.806904
     15          6           0        1.339654    0.261752   -0.314731
     16          8           0        2.318491    0.731560   -0.838096
     17          7           0        1.341114   -0.911055    0.325418
     18          1           0        0.459726   -1.352890    0.478735
     19          6           0        2.528285   -1.739406    0.297361
     20          1           0        3.376311   -1.189248    0.679915
     21          1           0        2.354731   -2.602861    0.925472
     22          1           0        2.765674   -2.074106   -0.706773
 ---------------------------------------------------------------------

 The electronic state is 1-A.
 Alpha  occ. eigenvalues --  -20.53831 -20.51234 -15.60625 -15.56305 -11.36988
 Alpha  occ. eigenvalues --  -11.34096 -11.29103 -11.24460 -11.24252 -11.23034
 Alpha  occ. eigenvalues --   -1.40693  -1.38305  -1.25513  -1.21801  -1.06487
 Alpha  occ. eigenvalues --   -1.00168  -0.94818  -0.88412  -0.82092  -0.77096
 Alpha  occ. eigenvalues --   -0.71266  -0.70480  -0.66030  -0.63418  -0.62415
 Alpha  occ. eigenvalues --   -0.62124  -0.60217  -0.58793  -0.58108  -0.56869
 Alpha  occ. eigenvalues --   -0.54804  -0.53757  -0.53122  -0.52221  -0.50035
 Alpha  occ. eigenvalues --   -0.43383  -0.41475  -0.40050  -0.37509
 Alpha virt. eigenvalues --    0.18559   0.19872   0.20526   0.25574   0.26919
 Alpha virt. eigenvalues --    0.27922   0.28942   0.30132   0.31325   0.31893
 Alpha virt. eigenvalues --    0.32885   0.34394   0.34912   0.35779   0.37345

 Mulliken atomic charges:
              1
     1  H    0.209338
     2  C   -0.582618
     3  H    0.216455
     4  H    0.170803
     5  C    0.777598
     6  O   -0.641525
     7  N   -0.836118
     8  H    0.386171
     9  C    0.001387
    10  H    0.218717
    11  C   -0.492423
    12  H    0.183138
    13  H    0.211627
    14  H    0.156579
    15  C    0.739476
    16  O   -0.629813
    17  N   -0.814677
    18  H    0.466219
    19  C   -0.275888
    20  H    0.190282
    21  H    0.169182
    22  H    0.176089
 Sum of Mulliken atomic charges =   0.00000

 Dipole moment (field-independent basis, Debye):
    X=             -4.3070    Y=              1.6054    Z=              1.0342  Tot=              4.7114
 Quadrupole moment (field-independent basis, Debye-Ang):
   XX=            -59.1422   YY=            -59.7632   ZZ=            -61.7094
   XY=             -9.4830   XZ=              5.3675   YZ=              0.5892

 Normal termination of Gaussian 09 at Thu Feb  9 13:43:11 2017.
