 Gaussian 09, Revision A.02,
 Gaussian 09:  EM64L-G09RevA.02 11-Jun-2009

 -------------------------------------------
 # HF/6-31G* Opt=(ModRedundant) geom=nocrowd
 -------------------------------------------

 ------------------
 Phi Psi fixed scan
 ------------------
 Symbolic Z-matrix:
 Charge =  0 Multiplicity = 1

 SCF Done:  E(RHF) =  -492.740957075     A.U. after   17 cycles
 SCF Done:  E(RHF) =  -492.823872200     A.U. after   15 cycles
 SCF Done:  E(RHF) =  -492.826335567     A.U. after   14 cycles
 SCF Done:  E(RHF) =  -492.828445764     A.U. after   13 cycles
 SCF Done:  E(RHF) =  -492.831273648     A.U. after   13 cycles
 SCF Done:  E(RHF) =  -492.834625875     A.U. after   14 cycles
 SCF Done:  E(RHF) =  -492.835978380     A.U. after   14 cycles
 SCF Done:  E(RHF) =  -492.837232511     A.U. after   14 cycles
 SCF Done:  E(RHF) =  -492.837472830     A.U. after   13 cycles
 SCF Done:  E(RHF) =  -492.837758218     A.U. after   12 cycles
 SCF Done:  E(RHF) =  -492.838006754     A.U. after   12 cycles
 SCF Done:  E(RHF) =  -492.838126219     A.U. after   12 cycles
 SCF Done:  E(RHF) =  -492.838252774     A.U. after   12 cycles
 SCF Done:  E(RHF) =  -492.838495616     A.U. after   12 cycles
 SCF Done:  E(RHF) =  -492.838569306     A.U. after   12 cycles
 SCF Done:  E(RHF) =  -492.838617121     A.U. after   12 cycles
 SCF Done:  E(RHF) =  -492.838638504     A.U. after   11 cycles
 SCF Done:  E(RHF) =  -492.838655339     A.U. after   11 cycles
 SCF Done:  E(RHF) =  -492.838655940     A.U. after    9 cycles
 SCF Done:  E(RHF) =  -492.838656019     A.U. after    7 cycles
 Optimization completed.
    -- Stationary point found.

                         Standard orientation:
 ---------------------------------------------------------------------
 Center     Atomic      Atomic             Coordinates (Angstroms)
 Number     Number       Type             X           Y           Z
 ---------------------------------------------------------------------
      1          1           0       -3.625642   -1.593290    0.308936
      2          6           0       -3.240066   -0.584842    0.293718
      3          1           0       -3.260619   -0.182902    1.302222
      4          1           0       -3.873259    0.036740   -0.331236
      5          6           0       -1.812262   -0.612159   -0.208073
      6          8           0       -1.191319   -1.625604   -0.315052
      7          7           0       -1.323064    0.612271   -0.602552
      8          1           0       -1.963210    1.358078   -0.436963
      9          6           0        0.060317    1.064599   -0.487981
     10          1           0        0.416997    1.307152   -1.484589
     11          6           0        0.128540    2.332612    0.366877
     12          1           0       -0.194744    2.117775    1.377591
     13          1           0        1.143133    2.712957    0.400317
     14          1           0       -0.504118    3.108761   -0.054369
     15          6           0        1.016130    0.042073    0.136746
     16          8           0        0.821773   -0.405981    1.229361
     17          7           0        2.197557   -0.092721   -0.513303
     18          1           0        2.206599    0.091295   -1.490550
     19          6           0        3.198580   -1.012925   -0.010500
     20          1           0        3.385765   -0.802933    1.031763
     21          1           0        2.883051   -2.046446   -0.101443
     22          1           0        4.113532   -0.867501   -0.569889
 ---------------------------------------------------------------------

 The electronic state is 1-A.
 Alpha  occ. eigenvalues --  -20.52000 -20.51714 -15.58331 -15.58209 -11.34396
 Alpha  occ. eigenvalues --  -11.34245 -11.28577 -11.25140 -11.23349 -11.22878
 Alpha  occ. eigenvalues --   -1.39526  -1.38158  -1.23673  -1.22787  -1.05659
 Alpha  occ. eigenvalues --   -0.99078  -0.95696  -0.87663  -0.80252  -0.77425
 Alpha  occ. eigenvalues --   -0.69619  -0.68795  -0.66627  -0.63610  -0.62266
 Alpha  occ. eigenvalues --   -0.61391  -0.59634  -0.58023  -0.57697  -0.55055
 Alpha  occ. eigenvalues --   -0.54875  -0.54763  -0.53566  -0.51831  -0.49185
 Alpha  occ. eigenvalues --   -0.41961  -0.41147  -0.38827  -0.38540
 Alpha virt. eigenvalues --    0.19709   0.20639   0.20872   0.23058   0.26815
 Alpha virt. eigenvalues --    0.27219   0.28669   0.30643   0.31048   0.31601
 Alpha virt. eigenvalues --    0.32228   0.33617   0.34107   0.34913   0.37804

 Mulliken atomic charges:
              1
     1  H    0.215976
     2  C   -0.596443
     3  H    0.197114
     4  H    0.176720
     5  C    0.757859
     6  O   -0.577901
     7  N   -0.805696
     8  H    0.372306
     9  C    0.006034
    10  H    0.176496
    11  C   -0.514394
    12  H    0.203798
    13  H    0.187003
    14  H    0.164924
    15  C    0.780583
    16  O   -0.608170
    17  N   -0.790942
    18  H    0.379821
    19  C   -0.281897
    20  H    0.203863
    21  H    0.187124
    22  H    0.165824
 Sum of Mulliken atomic charges =   0.00000

 Dipole moment (field-independent basis, Debye):
    X=             -0.0759    Y=              4.0329    Z=             -2.2073  Tot=              4.5981
 Quadrupole moment (field-independent basis, Debye-Ang):
   XX=            -46.5598   YY=            -62.4823   ZZ=            -62.3902
   XY=             -4.7484   XZ=             -5.5140   YZ=              0.1016

 Normal termination of Gaussian 09 at Thu Feb  9 12:52:32 2017.
