 Gaussian 09, Revision A.02,
 Gaussian 09:  EM64L-G09RevA.02 11-Jun-2009

 -------------------------------------------
 # HF/6-31G* Opt=(ModRedundant) geom=nocrowd
 -------------------------------------------

 ------------------
 Phi Psi fixed scan
 ------------------
 Symbolic Z-matrix:
 Charge =  0 Multiplicity = 1

 SCF Done:  E(RHF) =  -492.792504354     A.U. after   15 cycles
 SCF Done:  E(RHF) =  -492.831442727     A.U. after   15 cycles
 SCF Done:  E(RHF) =  -492.836699231     A.U. after   13 cycles
 SCF Done:  E(RHF) =  -492.838704483     A.U. after   14 cycles
 SCF Done:  E(RHF) =  -492.839774974     A.U. after   13 cycles
 SCF Done:  E(RHF) =  -492.840810646     A.U. after   13 cycles
 SCF Done:  E(RHF) =  -492.841318113     A.U. after   13 cycles
 SCF Done:  E(RHF) =  -492.841686264     A.U. after   12 cycles
 SCF Done:  E(RHF) =  -492.841821164     A.U. after   12 cycles
 SCF Done:  E(RHF) =  -492.842014659     A.U. after   13 cycles
 SCF Done:  E(RHF) =  -492.842137874     A.U. after   12 cycles
 SCF Done:  E(RHF) =  -492.842476300     A.U. after   13 cycles
 SCF Done:  E(RHF) =  -492.842559615     A.U. after   12 cycles
 SCF Done:  E(RHF) =  -492.842620861     A.U. after   11 cycles
 SCF Done:  E(RHF) =  -492.842634613     A.U. after   10 cycles
 SCF Done:  E(RHF) =  -492.842645659     A.U. after   11 cycles
 SCF Done:  E(RHF) =  -492.842651829     A.U. after   10 cycles
 SCF Done:  E(RHF) =  -492.842653351     A.U. after   10 cycles
 SCF Done:  E(RHF) =  -492.842653415     A.U. after    8 cycles
 Optimization completed.
    -- Stationary point found.

                         Standard orientation:
 ---------------------------------------------------------------------
 Center     Atomic      Atomic             Coordinates (Angstroms)
 Number     Number       Type             X           Y           Z
 ---------------------------------------------------------------------
      1          1           0       -3.458816   -1.823213    0.265780
      2          6           0       -3.177094   -0.781517    0.227286
      3          1           0       -3.321101   -0.341651    1.209544
      4          1           0       -3.815723   -0.257246   -0.475868
      5          6           0       -1.716672   -0.681798   -0.156762
      6          8           0       -0.978965   -1.622005   -0.117823
      7          7           0       -1.326929    0.550931   -0.609320
      8          1           0       -2.032738    1.250986   -0.540703
      9          6           0        0.020198    1.108228   -0.510009
     10          1           0        0.371920    1.313319   -1.516568
     11          6           0       -0.008979    2.423518    0.267273
     12          1           0       -0.317159    2.245731    1.289042
     13          1           0        0.975160    2.878435    0.277572
     14          1           0       -0.694324    3.125514   -0.199707
     15          6           0        1.024941    0.168803    0.172734
     16          8           0        0.956478   -0.056177    1.346846
     17          7           0        2.086005   -0.186128   -0.588808
     18          1           0        1.951515   -0.188470   -1.574480
     19          6           0        3.064778   -1.118588   -0.064761
     20          1           0        3.425536   -0.760219    0.887535
     21          1           0        2.644722   -2.108393    0.075548
     22          1           0        3.894345   -1.174830   -0.757553
 ---------------------------------------------------------------------

 The electronic state is 1-A.
 Alpha  occ. eigenvalues --  -20.52364 -20.51473 -15.58621 -15.57980 -11.34805
 Alpha  occ. eigenvalues --  -11.34064 -11.28435 -11.24775 -11.23187 -11.22982
 Alpha  occ. eigenvalues --   -1.39647  -1.38172  -1.23914  -1.22573  -1.05619
 Alpha  occ. eigenvalues --   -0.99257  -0.95510  -0.87457  -0.80401  -0.77281
 Alpha  occ. eigenvalues --   -0.69697  -0.69165  -0.66685  -0.63442  -0.62014
 Alpha  occ. eigenvalues --   -0.61552  -0.59727  -0.58178  -0.57683  -0.55078
 Alpha  occ. eigenvalues --   -0.54433  -0.54417  -0.53511  -0.51617  -0.49606
 Alpha  occ. eigenvalues --   -0.41790  -0.41472  -0.38918  -0.38498
 Alpha virt. eigenvalues --    0.19783   0.20521   0.21235   0.23247   0.26660
 Alpha virt. eigenvalues --    0.27514   0.28741   0.30580   0.31012   0.31751
 Alpha virt. eigenvalues --    0.32377   0.33715   0.34089   0.35261   0.37860

 Mulliken atomic charges:
              1
     1  H    0.216556
     2  C   -0.594675
     3  H    0.199300
     4  H    0.177675
     5  C    0.756631
     6  O   -0.588882
     7  N   -0.806363
     8  H    0.375338
     9  C    0.000604
    10  H    0.179554
    11  C   -0.509901
    12  H    0.207350
    13  H    0.184843
    14  H    0.159463
    15  C    0.790554
    16  O   -0.614121
    17  N   -0.786631
    18  H    0.380288
    19  C   -0.284905
    20  H    0.202497
    21  H    0.190027
    22  H    0.164798
 Sum of Mulliken atomic charges =   0.00000

 Dipole moment (field-independent basis, Debye):
    X=             -1.1238    Y=              3.0968    Z=             -2.9393  Tot=              4.4150
 Quadrupole moment (field-independent basis, Debye-Ang):
   XX=            -47.5332   YY=            -61.5040   ZZ=            -62.8215
   XY=             -4.6242   XZ=             -4.8983   YZ=              0.1495

 Normal termination of Gaussian 09 at Thu Feb  9 12:49:41 2017.
