 Gaussian 09, Revision A.02,
 Gaussian 09:  EM64L-G09RevA.02 11-Jun-2009

 -------------------------------------------
 # HF/6-31G* Opt=(ModRedundant) geom=nocrowd
 -------------------------------------------

 ------------------
 Phi Psi fixed scan
 ------------------
 Symbolic Z-matrix:
 Charge =  0 Multiplicity = 1

 SCF Done:  E(RHF) =  -492.704038192     A.U. after   17 cycles
 SCF Done:  E(RHF) =  -492.801115579     A.U. after   14 cycles
 SCF Done:  E(RHF) =  -492.831956129     A.U. after   15 cycles
 SCF Done:  E(RHF) =  -492.840482957     A.U. after   14 cycles
 SCF Done:  E(RHF) =  -492.842117698     A.U. after   13 cycles
 SCF Done:  E(RHF) =  -492.842450883     A.U. after   13 cycles
 SCF Done:  E(RHF) =  -492.842774714     A.U. after   13 cycles
 SCF Done:  E(RHF) =  -492.843055777     A.U. after   12 cycles
 SCF Done:  E(RHF) =  -492.843217134     A.U. after   11 cycles
 SCF Done:  E(RHF) =  -492.843324535     A.U. after   13 cycles
 SCF Done:  E(RHF) =  -492.844099686     A.U. after   10 cycles
 SCF Done:  E(RHF) =  -492.844104684     A.U. after   10 cycles
 SCF Done:  E(RHF) =  -492.844114493     A.U. after   11 cycles
 SCF Done:  E(RHF) =  -492.844129756     A.U. after   11 cycles
 SCF Done:  E(RHF) =  -492.844142642     A.U. after   11 cycles
 SCF Done:  E(RHF) =  -492.844148776     A.U. after   11 cycles
 SCF Done:  E(RHF) =  -492.844152606     A.U. after   11 cycles
 SCF Done:  E(RHF) =  -492.844153962     A.U. after   10 cycles
 SCF Done:  E(RHF) =  -492.844154033     A.U. after    8 cycles
 SCF Done:  E(RHF) =  -492.844154048     A.U. after    7 cycles
 Optimization completed.
    -- Stationary point found.

                         Standard orientation:
 ---------------------------------------------------------------------
 Center     Atomic      Atomic             Coordinates (Angstroms)
 Number     Number       Type             X           Y           Z
 ---------------------------------------------------------------------
      1          1           0       -3.726803   -1.306575    0.534968
      2          6           0       -3.372059   -0.497232   -0.087191
      3          1           0       -3.809006    0.436004    0.247444
      4          1           0       -3.699005   -0.686845   -1.104346
      5          6           0       -1.856164   -0.500046   -0.062492
      6          8           0       -1.254891   -1.542717   -0.006465
      7          7           0       -1.291349    0.722839   -0.128475
      8          1           0       -1.939899    1.476730   -0.160067
      9          6           0        0.088840    1.208640   -0.264083
     10          1           0        0.131686    1.749704   -1.198686
     11          6           0        0.384236    2.186434    0.881776
     12          1           0        0.367602    1.672501    1.835447
     13          1           0        1.357754    2.639374    0.740967
     14          1           0       -0.357418    2.979555    0.905080
     15          6           0        1.290877    0.253609   -0.368071
     16          8           0        2.187175    0.610920   -1.085822
     17          7           0        1.384918   -0.801309    0.461756
     18          1           0        0.522572   -1.242096    0.697878
     19          6           0        2.547336   -1.662149    0.371411
     20          1           0        3.447400   -1.079707    0.504023
     21          1           0        2.486164   -2.400351    1.160048
     22          1           0        2.607310   -2.170160   -0.585525
 ---------------------------------------------------------------------

 The electronic state is 1-A.
 Alpha  occ. eigenvalues --  -20.53591 -20.51803 -15.60495 -15.56277 -11.36774
 Alpha  occ. eigenvalues --  -11.34166 -11.28944 -11.24381 -11.24148 -11.23167
 Alpha  occ. eigenvalues --   -1.40539  -1.38643  -1.25406  -1.21748  -1.06487
 Alpha  occ. eigenvalues --   -1.00170  -0.94568  -0.88460  -0.82012  -0.76704
 Alpha  occ. eigenvalues --   -0.71278  -0.70238  -0.66002  -0.63353  -0.62666
 Alpha  occ. eigenvalues --   -0.62224  -0.60092  -0.58665  -0.57863  -0.56995
 Alpha  occ. eigenvalues --   -0.54895  -0.53737  -0.53084  -0.51951  -0.50377
 Alpha  occ. eigenvalues --   -0.43383  -0.41744  -0.39902  -0.37718
 Alpha virt. eigenvalues --    0.18550   0.19885   0.20350   0.25425   0.26800
 Alpha virt. eigenvalues --    0.27902   0.29080   0.30057   0.31043   0.32255
 Alpha virt. eigenvalues --    0.32573   0.34347   0.34573   0.35644   0.36649

 Mulliken atomic charges:
              1
     1  H    0.215761
     2  C   -0.582396
     3  H    0.170663
     4  H    0.209371
     5  C    0.770797
     6  O   -0.636937
     7  N   -0.831755
     8  H    0.385598
     9  C   -0.005040
    10  H    0.220415
    11  C   -0.491331
    12  H    0.186590
    13  H    0.202259
    14  H    0.158637
    15  C    0.737349
    16  O   -0.615984
    17  N   -0.791390
    18  H    0.443038
    19  C   -0.280995
    20  H    0.191791
    21  H    0.168011
    22  H    0.175548
 Sum of Mulliken atomic charges =   0.00000

 Dipole moment (field-independent basis, Debye):
    X=             -4.1510    Y=              1.8604    Z=              1.6674  Tot=              4.8448
 Quadrupole moment (field-independent basis, Debye-Ang):
   XX=            -57.4855   YY=            -59.4619   ZZ=            -62.9127
   XY=             -8.2347   XZ=              5.7971   YZ=              0.2827

 Normal termination of Gaussian 09 at Thu Feb  9 13:31:03 2017.
