 Gaussian 09, Revision A.02,
 Gaussian 09:  EM64L-G09RevA.02 11-Jun-2009

 -------------------------------------------
 # HF/6-31G* Opt=(ModRedundant) geom=nocrowd
 -------------------------------------------

 ------------------
 Phi Psi fixed scan
 ------------------
 Symbolic Z-matrix:
 Charge =  0 Multiplicity = 1

 SCF Done:  E(RHF) =  -492.787194474     A.U. after   15 cycles
 SCF Done:  E(RHF) =  -492.833373201     A.U. after   15 cycles
 SCF Done:  E(RHF) =  -492.839334484     A.U. after   13 cycles
 SCF Done:  E(RHF) =  -492.841120302     A.U. after   13 cycles
 SCF Done:  E(RHF) =  -492.842068812     A.U. after   13 cycles
 SCF Done:  E(RHF) =  -492.842647852     A.U. after   14 cycles
 SCF Done:  E(RHF) =  -492.843054806     A.U. after   12 cycles
 SCF Done:  E(RHF) =  -492.843267880     A.U. after   13 cycles
 SCF Done:  E(RHF) =  -492.843460490     A.U. after   12 cycles
 SCF Done:  E(RHF) =  -492.843898858     A.U. after   14 cycles
 SCF Done:  E(RHF) =  -492.844177339     A.U. after   11 cycles
 SCF Done:  E(RHF) =  -492.844190168     A.U. after   12 cycles
 SCF Done:  E(RHF) =  -492.844198739     A.U. after   11 cycles
 SCF Done:  E(RHF) =  -492.844211806     A.U. after   11 cycles
 SCF Done:  E(RHF) =  -492.844226818     A.U. after   11 cycles
 SCF Done:  E(RHF) =  -492.844251300     A.U. after   12 cycles
 SCF Done:  E(RHF) =  -492.844255626     A.U. after   11 cycles
 SCF Done:  E(RHF) =  -492.844257490     A.U. after   10 cycles
 SCF Done:  E(RHF) =  -492.844257645     A.U. after    8 cycles
 SCF Done:  E(RHF) =  -492.844257679     A.U. after    8 cycles
 Optimization completed.
    -- Stationary point found.

                         Standard orientation:
 ---------------------------------------------------------------------
 Center     Atomic      Atomic             Coordinates (Angstroms)
 Number     Number       Type             X           Y           Z
 ---------------------------------------------------------------------
      1          1           0        3.607251   -1.471544   -0.536295
      2          6           0        3.317297   -0.600244    0.033329
      3          1           0        3.785120    0.281799   -0.387934
      4          1           0        3.674314   -0.727206    1.050283
      5          6           0        1.803854   -0.522042    0.059879
      6          8           0        1.135876   -1.522784    0.052516
      7          7           0        1.305026    0.731720    0.114764
      8          1           0        1.980139    1.462603    0.112925
      9          6           0       -0.061917    1.236301    0.271814
     10          1           0       -0.092618    1.772771    1.209755
     11          6           0       -0.376785    2.214662   -0.865848
     12          1           0       -0.360256    1.711935   -1.824784
     13          1           0       -1.356224    2.655415   -0.719617
     14          1           0        0.352540    3.019387   -0.885046
     15          6           0       -1.229826    0.243921    0.409225
     16          8           0       -1.992450    0.408318    1.320488
     17          7           0       -1.457818   -0.630008   -0.599667
     18          1           0       -0.634426   -0.998820   -1.020178
     19          6           0       -2.544769   -1.579753   -0.457283
     20          1           0       -3.467819   -1.050649   -0.273136
     21          1           0       -2.636672   -2.134876   -1.381672
     22          1           0       -2.376339   -2.274142    0.359290
 ---------------------------------------------------------------------

 The electronic state is 1-A.
 Alpha  occ. eigenvalues --  -20.53268 -20.52246 -15.60253 -15.56426 -11.36427
 Alpha  occ. eigenvalues --  -11.34188 -11.28739 -11.24242 -11.24057 -11.23249
 Alpha  occ. eigenvalues --   -1.40331  -1.38876  -1.25202  -1.21758  -1.06401
 Alpha  occ. eigenvalues --   -1.00093  -0.94365  -0.88483  -0.81809  -0.76518
 Alpha  occ. eigenvalues --   -0.71180  -0.69798  -0.66133  -0.63339  -0.62862
 Alpha  occ. eigenvalues --   -0.62080  -0.59942  -0.58536  -0.57594  -0.56950
 Alpha  occ. eigenvalues --   -0.54928  -0.53717  -0.53179  -0.51559  -0.50841
 Alpha  occ. eigenvalues --   -0.43211  -0.41821  -0.39798  -0.37869
 Alpha virt. eigenvalues --    0.18675   0.19531   0.20910   0.25314   0.26408
 Alpha virt. eigenvalues --    0.27969   0.29043   0.29797   0.30485   0.32220
 Alpha virt. eigenvalues --    0.32606   0.34124   0.34306   0.34993   0.36366

 Mulliken atomic charges:
              1
     1  H    0.215236
     2  C   -0.582550
     3  H    0.170678
     4  H    0.208798
     5  C    0.759691
     6  O   -0.627692
     7  N   -0.827139
     8  H    0.384584
     9  C   -0.015977
    10  H    0.221980
    11  C   -0.487009
    12  H    0.184838
    13  H    0.193918
    14  H    0.158668
    15  C    0.747499
    16  O   -0.604494
    17  N   -0.764829
    18  H    0.410497
    19  C   -0.285371
    20  H    0.193842
    21  H    0.166050
    22  H    0.178781
 Sum of Mulliken atomic charges =   0.00000

 Dipole moment (field-independent basis, Debye):
    X=              3.9554    Y=              2.1911    Z=             -2.3511  Tot=              5.0965
 Quadrupole moment (field-independent basis, Debye-Ang):
   XX=            -55.6564   YY=            -59.2391   ZZ=            -63.9318
   XY=              6.5256   XZ=              5.7408   YZ=              0.6630

 Normal termination of Gaussian 09 at Thu Feb  9 13:27:51 2017.
