 Gaussian 09, Revision A.02,
 Gaussian 09:  EM64L-G09RevA.02 11-Jun-2009

 -------------------------------------------
 # HF/6-31G* Opt=(ModRedundant) geom=nocrowd
 -------------------------------------------

 ------------------
 Phi Psi fixed scan
 ------------------
 Symbolic Z-matrix:
 Charge =  0 Multiplicity = 1

 SCF Done:  E(RHF) =  -492.813868113     A.U. after   15 cycles
 SCF Done:  E(RHF) =  -492.834992149     A.U. after   15 cycles
 SCF Done:  E(RHF) =  -492.840337121     A.U. after   13 cycles
 SCF Done:  E(RHF) =  -492.841635148     A.U. after   13 cycles
 SCF Done:  E(RHF) =  -492.841979820     A.U. after   13 cycles
 SCF Done:  E(RHF) =  -492.843076142     A.U. after   12 cycles
 SCF Done:  E(RHF) =  -492.843608921     A.U. after   13 cycles
 SCF Done:  E(RHF) =  -492.843823503     A.U. after   11 cycles
 SCF Done:  E(RHF) =  -492.844085861     A.U. after   13 cycles
 SCF Done:  E(RHF) =  -492.844344561     A.U. after   12 cycles
 SCF Done:  E(RHF) =  -492.844693132     A.U. after   11 cycles
 SCF Done:  E(RHF) =  -492.844704033     A.U. after   11 cycles
 SCF Done:  E(RHF) =  -492.844714742     A.U. after   11 cycles
 SCF Done:  E(RHF) =  -492.844724191     A.U. after   11 cycles
 SCF Done:  E(RHF) =  -492.844743545     A.U. after   11 cycles
 SCF Done:  E(RHF) =  -492.844754101     A.U. after   11 cycles
 SCF Done:  E(RHF) =  -492.844757373     A.U. after   10 cycles
 SCF Done:  E(RHF) =  -492.844758585     A.U. after    9 cycles
 SCF Done:  E(RHF) =  -492.844759124     A.U. after    9 cycles
 SCF Done:  E(RHF) =  -492.844759177     A.U. after    8 cycles
 Optimization completed.
    -- Stationary point found.

                         Standard orientation:
 ---------------------------------------------------------------------
 Center     Atomic      Atomic             Coordinates (Angstroms)
 Number     Number       Type             X           Y           Z
 ---------------------------------------------------------------------
      1          1           0        3.457966   -1.627142   -0.579671
      2          6           0        3.235300   -0.713429   -0.047861
      3          1           0        3.733206    0.119727   -0.530444
      4          1           0        3.620824   -0.804954    0.962664
      5          6           0        1.730805   -0.545390    0.018950
      6          8           0        0.995729   -1.495307    0.011151
      7          7           0        1.309082    0.737774    0.106271
      8          1           0        2.017871    1.435833    0.123733
      9          6           0       -0.039271    1.265901    0.314216
     10          1           0       -0.046502    1.762005    1.275308
     11          6           0       -0.368405    2.292747   -0.772492
     12          1           0       -0.360920    1.843677   -1.757960
     13          1           0       -1.346475    2.726958   -0.598967
     14          1           0        0.361173    3.097389   -0.760883
     15          6           0       -1.160687    0.222320    0.457608
     16          8           0       -1.717895    0.111530    1.511574
     17          7           0       -1.574143   -0.406295   -0.672544
     18          1           0       -0.859469   -0.553132   -1.349590
     19          6           0       -2.510657   -1.506662   -0.544383
     20          1           0       -3.387646   -1.172115   -0.011428
     21          1           0       -2.803854   -1.826261   -1.536097
     22          1           0       -2.075932   -2.345046   -0.010776
 ---------------------------------------------------------------------

 The electronic state is 1-A.
 Alpha  occ. eigenvalues --  -20.53020 -20.52145 -15.59956 -15.56685 -11.36047
 Alpha  occ. eigenvalues --  -11.34061 -11.28551 -11.24055 -11.23938 -11.23325
 Alpha  occ. eigenvalues --   -1.40155  -1.38715  -1.24951  -1.21816  -1.06257
 Alpha  occ. eigenvalues --   -0.99962  -0.94241  -0.88526  -0.81491  -0.76559
 Alpha  occ. eigenvalues --   -0.71070  -0.69357  -0.66246  -0.63448  -0.62680
 Alpha  occ. eigenvalues --   -0.61704  -0.59841  -0.58396  -0.57364  -0.56781
 Alpha  occ. eigenvalues --   -0.54892  -0.53719  -0.53335  -0.51328  -0.51142
 Alpha  occ. eigenvalues --   -0.42727  -0.41620  -0.39681  -0.37907
 Alpha virt. eigenvalues --    0.19013   0.19494   0.21351   0.24598   0.25883
 Alpha virt. eigenvalues --    0.28144   0.28800   0.29872   0.30147   0.31844
 Alpha virt. eigenvalues --    0.32773   0.34112   0.34181   0.35020   0.36714

 Mulliken atomic charges:
              1
     1  H    0.215501
     2  C   -0.584270
     3  H    0.171207
     4  H    0.207386
     5  C    0.753696
     6  O   -0.615380
     7  N   -0.823684
     8  H    0.383353
     9  C   -0.025350
    10  H    0.220829
    11  C   -0.479803
    12  H    0.174398
    13  H    0.189939
    14  H    0.159114
    15  C    0.760002
    16  O   -0.599250
    17  N   -0.749341
    18  H    0.383546
    19  C   -0.288647
    20  H    0.196797
    21  H    0.163211
    22  H    0.186744
 Sum of Mulliken atomic charges =   0.00000

 Dipole moment (field-independent basis, Debye):
    X=              3.6779    Y=              2.6913    Z=             -2.8700  Tot=              5.3857
 Quadrupole moment (field-independent basis, Debye-Ang):
   XX=            -54.0249   YY=            -59.2934   ZZ=            -64.2129
   XY=              4.7810   XZ=              5.6042   YZ=              1.7955

 Normal termination of Gaussian 09 at Thu Feb  9 13:25:00 2017.
