 Gaussian 09, Revision A.02,
 Gaussian 09:  EM64L-G09RevA.02 11-Jun-2009

 -------------------------------------------
 # HF/6-31G* Opt=(ModRedundant) geom=nocrowd
 -------------------------------------------

 ------------------
 Phi Psi fixed scan
 ------------------
 Symbolic Z-matrix:
 Charge =  0 Multiplicity = 1

 SCF Done:  E(RHF) =  -492.825700367     A.U. after   15 cycles
 SCF Done:  E(RHF) =  -492.839465430     A.U. after   15 cycles
 SCF Done:  E(RHF) =  -492.842967123     A.U. after   13 cycles
 SCF Done:  E(RHF) =  -492.843506900     A.U. after   13 cycles
 SCF Done:  E(RHF) =  -492.844239408     A.U. after   13 cycles
 SCF Done:  E(RHF) =  -492.844812974     A.U. after   13 cycles
 SCF Done:  E(RHF) =  -492.844997857     A.U. after   12 cycles
 SCF Done:  E(RHF) =  -492.845380599     A.U. after   12 cycles
 SCF Done:  E(RHF) =  -492.845586671     A.U. after   11 cycles
 SCF Done:  E(RHF) =  -492.845914849     A.U. after   12 cycles
 SCF Done:  E(RHF) =  -492.846190676     A.U. after   12 cycles
 SCF Done:  E(RHF) =  -492.846297935     A.U. after   11 cycles
 SCF Done:  E(RHF) =  -492.846335158     A.U. after   11 cycles
 SCF Done:  E(RHF) =  -492.846341068     A.U. after   10 cycles
 SCF Done:  E(RHF) =  -492.846344954     A.U. after   10 cycles
 SCF Done:  E(RHF) =  -492.846348821     A.U. after   11 cycles
 SCF Done:  E(RHF) =  -492.846352330     A.U. after   11 cycles
 SCF Done:  E(RHF) =  -492.846353772     A.U. after   10 cycles
 SCF Done:  E(RHF) =  -492.846354408     A.U. after    9 cycles
 SCF Done:  E(RHF) =  -492.846354594     A.U. after    8 cycles
 Optimization completed.
    -- Stationary point found.

                         Standard orientation:
 ---------------------------------------------------------------------
 Center     Atomic      Atomic             Coordinates (Angstroms)
 Number     Number       Type             X           Y           Z
 ---------------------------------------------------------------------
      1          1           0       -3.259651   -2.048197    0.166416
      2          6           0       -3.102028   -0.979718    0.151092
      3          1           0       -3.453847   -0.566275    1.091221
      4          1           0       -3.679164   -0.537471   -0.653229
      5          6           0       -1.617505   -0.708230    0.019808
      6          8           0       -0.796700   -1.512681    0.363352
      7          7           0       -1.308784    0.501015   -0.512587
      8          1           0       -2.075227    1.098436   -0.726601
      9          6           0       -0.007256    1.167285   -0.548385
     10          1           0        0.266121    1.296894   -1.591693
     11          6           0       -0.107758    2.541056    0.106248
     12          1           0       -0.325863    2.440207    1.160310
     13          1           0        0.826291    3.079935    0.001292
     14          1           0       -0.889187    3.129020   -0.367965
     15          6           0        1.119533    0.352481    0.114188
     16          8           0        1.450021    0.560657    1.244848
     17          7           0        1.784397   -0.488103   -0.717193
     18          1           0        1.260269   -0.812855   -1.499198
     19          6           0        2.704352   -1.452400   -0.145787
     20          1           0        3.434345   -0.935491    0.458528
     21          1           0        2.188712   -2.178518    0.472944
     22          1           0        3.215320   -1.962709   -0.952159
 ---------------------------------------------------------------------

 The electronic state is 1-A.
 Alpha  occ. eigenvalues --  -20.52806 -20.51848 -15.59591 -15.57022 -11.35665
 Alpha  occ. eigenvalues --  -11.34011 -11.28536 -11.23996 -11.23799 -11.22337
 Alpha  occ. eigenvalues --   -1.40005  -1.38487  -1.24648  -1.21996  -1.05805
 Alpha  occ. eigenvalues --   -0.99560  -0.95000  -0.87267  -0.81166  -0.76622
 Alpha  occ. eigenvalues --   -0.70402  -0.69523  -0.66802  -0.63216  -0.62430
 Alpha  occ. eigenvalues --   -0.61216  -0.60142  -0.58333  -0.57724  -0.55464
 Alpha  occ. eigenvalues --   -0.53688  -0.53495  -0.53384  -0.51198  -0.50881
 Alpha  occ. eigenvalues --   -0.42246  -0.41676  -0.39469  -0.37977
 Alpha virt. eigenvalues --    0.19393   0.19831   0.21886   0.24123   0.26019
 Alpha virt. eigenvalues --    0.28108   0.28786   0.29858   0.31179   0.31775
 Alpha virt. eigenvalues --    0.32806   0.33446   0.34414   0.35411   0.38370

 Mulliken atomic charges:
              1
     1  H    0.216162
     2  C   -0.587553
     3  H    0.204516
     4  H    0.173339
     5  C    0.755980
     6  O   -0.607574
     7  N   -0.820899
     8  H    0.382457
     9  C   -0.013985
    10  H    0.188895
    11  C   -0.484821
    12  H    0.206609
    13  H    0.184063
    14  H    0.147889
    15  C    0.777212
    16  O   -0.601142
    17  N   -0.761312
    18  H    0.377184
    19  C   -0.290707
    20  H    0.198668
    21  H    0.192626
    22  H    0.162393
 Sum of Mulliken atomic charges =   0.00000

 Dipole moment (field-independent basis, Debye):
    X=             -3.1970    Y=              1.3688    Z=             -3.7821  Tot=              5.1380
 Quadrupole moment (field-independent basis, Debye-Ang):
   XX=            -52.0096   YY=            -59.9502   ZZ=            -62.8224
   XY=             -5.0212   XZ=             -3.0452   YZ=              0.0142

 Normal termination of Gaussian 09 at Thu Feb  9 12:44:22 2017.
