 Gaussian 09, Revision A.02,
 Gaussian 09:  EM64L-G09RevA.02 11-Jun-2009

 ----------------------------------------------------------------------
 # b3lyp/6-31G* Opt=(ModRedundant, maxcycles=1000, calcfc) geom=nocrowd
 ----------------------------------------------------------------------

 ------------------
 Phi Psi fixed scan
 ------------------
 Symbolic Z-matrix:
 Charge =  0 Multiplicity = 1

 SCF Done:  E(RB3LYP) =  -495.839404043     A.U. after   16 cycles

  Exact polarizability:   0.000   0.000   0.000   0.000   0.000   0.000
 Approx polarizability: 104.389  -4.120 103.001 -10.014   1.975 127.787

 SCF Done:  E(RB3LYP) =  -495.843073524     A.U. after   12 cycles
 SCF Done:  E(RB3LYP) =  -495.846495387     A.U. after   12 cycles
 SCF Done:  E(RB3LYP) =  -495.847090773     A.U. after   14 cycles
 SCF Done:  E(RB3LYP) =  -495.801231683     A.U. after   15 cycles
 SCF Done:  E(RB3LYP) =  -495.847096629     A.U. after   15 cycles
 SCF Done:  E(RB3LYP) =  -495.847426959     A.U. after   13 cycles
 SCF Done:  E(RB3LYP) =  -495.847409409     A.U. after   12 cycles
 SCF Done:  E(RB3LYP) =  -495.847488590     A.U. after   12 cycles
 SCF Done:  E(RB3LYP) =  -495.845365659     A.U. after   12 cycles
 SCF Done:  E(RB3LYP) =  -495.847496726     A.U. after   13 cycles
 SCF Done:  E(RB3LYP) =  -495.847525808     A.U. after   11 cycles
 SCF Done:  E(RB3LYP) =  -495.847533632     A.U. after   10 cycles
 SCF Done:  E(RB3LYP) =  -495.847533824     A.U. after    8 cycles
 SCF Done:  E(RB3LYP) =  -495.847533980     A.U. after    7 cycles
 SCF Done:  E(RB3LYP) =  -495.847534432     A.U. after    9 cycles
 SCF Done:  E(RB3LYP) =  -495.847534756     A.U. after    8 cycles
 SCF Done:  E(RB3LYP) =  -495.847534815     A.U. after    7 cycles
 Optimization completed.
    -- Stationary point found.

                         Standard orientation:
 ---------------------------------------------------------------------
 Center     Atomic      Atomic             Coordinates (Angstroms)
 Number     Number       Type             X           Y           Z
 ---------------------------------------------------------------------
      1          1           0        3.395523   -1.765363   -0.358205
      2          6           0        3.210077   -0.693100   -0.457269
      3          1           0        3.235831   -0.417780   -1.516699
      4          1           0        4.023225   -0.169936    0.058662
      5          6           0        1.891603   -0.358591    0.225618
      6          8           0        1.560380   -0.846968    1.295218
      7          7           0        1.086409    0.535540   -0.445051
      8          1           0        1.480448    1.032943   -1.232981
      9          6           0       -0.086892    1.123791    0.203936
     10          1           0        0.171341    1.376031    1.237534
     11          6           0       -0.527744    2.386422   -0.543258
     12          1           0       -0.791317    2.158589   -1.583047
     13          1           0       -1.408923    2.807297   -0.052753
     14          1           0        0.266100    3.142321   -0.537289
     15          6           0       -1.280466    0.154135    0.330859
     16          8           0       -2.127291    0.339953    1.194631
     17          7           0       -1.374329   -0.791799   -0.645881
     18          1           0       -0.544891   -0.947808   -1.202159
     19          6           0       -2.410280   -1.809244   -0.631652
     20          1           0       -3.218490   -1.447581    0.005682
     21          1           0       -2.792687   -1.978140   -1.643953
     22          1           0       -2.043233   -2.761113   -0.226460
 ---------------------------------------------------------------------

 The electronic state is 1-A.
 Alpha  occ. eigenvalues --  -19.11763 -19.10151 -14.37039 -14.35377 -10.29482
 Alpha  occ. eigenvalues --  -10.27596 -10.23491 -10.21182 -10.20086 -10.19598
 Alpha  occ. eigenvalues --   -1.03907  -1.02111  -0.93252  -0.90926  -0.78439
 Alpha  occ. eigenvalues --   -0.73588  -0.70623  -0.64456  -0.59568  -0.57304
 Alpha  occ. eigenvalues --   -0.52399  -0.50198  -0.48166  -0.45486  -0.45002
 Alpha  occ. eigenvalues --   -0.43632  -0.42561  -0.41835  -0.40619  -0.39468
 Alpha  occ. eigenvalues --   -0.38906  -0.38590  -0.37852  -0.36051  -0.34254
 Alpha  occ. eigenvalues --   -0.27627  -0.25569  -0.24611  -0.23495
 Alpha virt. eigenvalues --    0.01820   0.03398   0.06134   0.10121   0.11201
 Alpha virt. eigenvalues --    0.12221   0.13737   0.14415   0.14840   0.15868
 Alpha virt. eigenvalues --    0.16696   0.17456   0.17512   0.18266   0.19577

 Mulliken atomic charges:
              1
     1  H    0.190442
     2  C   -0.542340
     3  H    0.146001
     4  H    0.188019
     5  C    0.583267
     6  O   -0.486448
     7  N   -0.628625
     8  H    0.324656
     9  C   -0.011043
    10  H    0.185834
    11  C   -0.485097
    12  H    0.151159
    13  H    0.191784
    14  H    0.153218
    15  C    0.615058
    16  O   -0.524496
    17  N   -0.583798
    18  H    0.328391
    19  C   -0.308951
    20  H    0.200428
    21  H    0.150145
    22  H    0.162395
 Sum of Mulliken atomic charges =   0.00000

 Dipole moment (field-independent basis, Debye):
    X=              2.6459    Y=              0.8095    Z=             -5.2516  Tot=              5.9359
 Quadrupole moment (field-independent basis, Debye-Ang):
   XX=            -58.9362   YY=            -55.1683   ZZ=            -64.0109
   XY=              5.0047   XZ=              0.2988   YZ=              2.1345

 Normal termination of Gaussian 09 at Fri Feb 10 23:40:44 2017.
