 Gaussian 09, Revision A.02,
 Gaussian 09:  EM64L-G09RevA.02 11-Jun-2009

 ----------------------------------------------------------------------
 # b3lyp/6-31G* Opt=(ModRedundant, maxcycles=1000, calcfc) geom=nocrowd
 ----------------------------------------------------------------------

 ------------------
 Phi Psi fixed scan
 ------------------
 Symbolic Z-matrix:
 Charge =  0 Multiplicity = 1

 SCF Done:  E(RB3LYP) =  -495.824471272     A.U. after   15 cycles

  Exact polarizability:   0.000   0.000   0.000   0.000   0.000   0.000
 Approx polarizability: 106.793   7.225 115.184   8.927  23.755 114.078

 SCF Done:  E(RB3LYP) =  -495.829539897     A.U. after   13 cycles
 SCF Done:  E(RB3LYP) =  -495.835241183     A.U. after   12 cycles
 SCF Done:  E(RB3LYP) =  -495.836833990     A.U. after   14 cycles
 SCF Done:  E(RB3LYP) =  -495.837141517     A.U. after   16 cycles
 SCF Done:  E(RB3LYP) =  -495.837489165     A.U. after   14 cycles
 SCF Done:  E(RB3LYP) =  -495.837640059     A.U. after   12 cycles
 SCF Done:  E(RB3LYP) =  -495.825094947     A.U. after   16 cycles
 SCF Done:  E(RB3LYP) =  -495.837670046     A.U. after   16 cycles
 SCF Done:  E(RB3LYP) =  -495.837953535     A.U. after   11 cycles
 SCF Done:  E(RB3LYP) =  -495.837972685     A.U. after   11 cycles
 SCF Done:  E(RB3LYP) =  -495.837980689     A.U. after   11 cycles
 SCF Done:  E(RB3LYP) =  -495.837995825     A.U. after   11 cycles
 SCF Done:  E(RB3LYP) =  -495.838027475     A.U. after   11 cycles
 SCF Done:  E(RB3LYP) =  -495.838033334     A.U. after   10 cycles
 SCF Done:  E(RB3LYP) =  -495.838035224     A.U. after   10 cycles
 SCF Done:  E(RB3LYP) =  -495.838035996     A.U. after    8 cycles
 SCF Done:  E(RB3LYP) =  -495.838036965     A.U. after   10 cycles
 SCF Done:  E(RB3LYP) =  -495.838037036     A.U. after    8 cycles
 Optimization completed.
    -- Stationary point found.

                         Standard orientation:
 ---------------------------------------------------------------------
 Center     Atomic      Atomic             Coordinates (Angstroms)
 Number     Number       Type             X           Y           Z
 ---------------------------------------------------------------------
      1          1           0        3.905697   -1.055682   -0.712094
      2          6           0        2.904491   -0.864510   -1.102873
      3          1           0        2.467662   -1.826545   -1.397405
      4          1           0        2.974839   -0.230941   -1.993660
      5          6           0        2.058596   -0.245890    0.002055
      6          8           0        2.248605   -0.477100    1.182880
      7          7           0        1.085127    0.634410   -0.445129
      8          1           0        0.896711    0.606738   -1.440930
      9          6           0       -0.061588    1.001721    0.391334
     10          1           0        0.328887    1.062495    1.409699
     11          6           0       -0.611275    2.364759   -0.035139
     12          1           0       -0.901201    2.388062   -1.095113
     13          1           0       -1.486581    2.639966    0.562501
     14          1           0        0.156776    3.131573    0.102021
     15          6           0       -1.089170   -0.157750    0.449214
     16          8           0       -0.992176   -1.054569    1.272865
     17          7           0       -2.058451   -0.139480   -0.521648
     18          1           0       -2.156056    0.684197   -1.096354
     19          6           0       -3.094966   -1.154939   -0.601033
     20          1           0       -2.808438   -1.964483    0.071347
     21          1           0       -4.071346   -0.763784   -0.287773
     22          1           0       -3.181635   -1.543105   -1.622105
 ---------------------------------------------------------------------

 The electronic state is 1-A.
 Alpha  occ. eigenvalues --  -19.10881 -19.10651 -14.36495 -14.36000 -10.28394
 Alpha  occ. eigenvalues --  -10.28325 -10.23469 -10.22003 -10.20082 -10.18996
 Alpha  occ. eigenvalues --   -1.03235  -1.02365  -0.92539  -0.91628  -0.78292
 Alpha  occ. eigenvalues --   -0.72898  -0.70898  -0.64985  -0.58608  -0.58211
 Alpha  occ. eigenvalues --   -0.53322  -0.48441  -0.47271  -0.46158  -0.44650
 Alpha  occ. eigenvalues --   -0.43793  -0.42882  -0.41885  -0.40377  -0.39640
 Alpha  occ. eigenvalues --   -0.39199  -0.38517  -0.36996  -0.35874  -0.35116
 Alpha  occ. eigenvalues --   -0.27541  -0.25435  -0.24582  -0.22885
 Alpha virt. eigenvalues --    0.01566   0.03932   0.05507   0.08711   0.11301
 Alpha virt. eigenvalues --    0.12521   0.13509   0.14014   0.15519   0.15798
 Alpha virt. eigenvalues --    0.16296   0.16909   0.17898   0.18331   0.19656

 Mulliken atomic charges:
              1
     1  H    0.189202
     2  C   -0.546636
     3  H    0.182426
     4  H    0.149514
     5  C    0.594001
     6  O   -0.476482
     7  N   -0.585262
     8  H    0.309038
     9  C   -0.043114
    10  H    0.202966
    11  C   -0.476623
    12  H    0.129624
    13  H    0.166631
    14  H    0.176602
    15  C    0.589820
    16  O   -0.493742
    17  N   -0.597595
    18  H    0.321945
    19  C   -0.310975
    20  H    0.207546
    21  H    0.157825
    22  H    0.153290
 Sum of Mulliken atomic charges =   0.00000

 Dipole moment (field-independent basis, Debye):
    X=             -2.4859    Y=              2.5857    Z=             -5.4506  Tot=              6.5249
 Quadrupole moment (field-independent basis, Debye-Ang):
   XX=            -55.9912   YY=            -58.8338   ZZ=            -62.2608
   XY=             -1.2722   XZ=             -2.7922   YZ=              4.3505

 Normal termination of Gaussian 09 at Fri Feb 10 23:45:49 2017.
