 Gaussian 09, Revision A.02,
 Gaussian 09:  EM64L-G09RevA.02 11-Jun-2009

 ----------------------------------------------------------------------
 # b3lyp/6-31G* Opt=(ModRedundant, maxcycles=1000, calcfc) geom=nocrowd
 ----------------------------------------------------------------------

 ------------------
 Phi Psi fixed scan
 ------------------
 Symbolic Z-matrix:
 Charge =  0 Multiplicity = 1

 SCF Done:  E(RB3LYP) =  -495.821720276     A.U. after   15 cycles

  Exact polarizability:   0.000   0.000   0.000   0.000   0.000   0.000
 Approx polarizability: 111.969  11.111 119.192   8.657  21.441 105.401

 SCF Done:  E(RB3LYP) =  -495.827497986     A.U. after   13 cycles
 SCF Done:  E(RB3LYP) =  -495.834226473     A.U. after   13 cycles
 SCF Done:  E(RB3LYP) =  -495.836529989     A.U. after   15 cycles
 SCF Done:  E(RB3LYP) =  -495.837719462     A.U. after   13 cycles
 SCF Done:  E(RB3LYP) =  -495.836729644     A.U. after   15 cycles
 SCF Done:  E(RB3LYP) =  -495.838074965     A.U. after   14 cycles
 SCF Done:  E(RB3LYP) =  -495.838066846     A.U. after   12 cycles
 SCF Done:  E(RB3LYP) =  -495.838198098     A.U. after   12 cycles
 SCF Done:  E(RB3LYP) =  -495.838213804     A.U. after   10 cycles
 SCF Done:  E(RB3LYP) =  -495.838222310     A.U. after    9 cycles
 SCF Done:  E(RB3LYP) =  -495.838234739     A.U. after   10 cycles
 SCF Done:  E(RB3LYP) =  -495.838245069     A.U. after   10 cycles
 SCF Done:  E(RB3LYP) =  -495.838248431     A.U. after   10 cycles
 SCF Done:  E(RB3LYP) =  -495.838248768     A.U. after    8 cycles
 SCF Done:  E(RB3LYP) =  -495.838248779     A.U. after    7 cycles
 SCF Done:  E(RB3LYP) =  -495.838248785     A.U. after    7 cycles
 SCF Done:  E(RB3LYP) =  -495.838248790     A.U. after    7 cycles
 SCF Done:  E(RB3LYP) =  -495.838248788     A.U. after    6 cycles
 Optimization completed.
    -- Stationary point found.

                         Standard orientation:
 ---------------------------------------------------------------------
 Center     Atomic      Atomic             Coordinates (Angstroms)
 Number     Number       Type             X           Y           Z
 ---------------------------------------------------------------------
      1          1           0       -3.893930   -1.097238    0.693182
      2          6           0       -2.908628   -0.849005    1.091403
      3          1           0       -2.423232   -1.780369    1.408173
      4          1           0       -3.019934   -0.204196    1.970160
      5          6           0       -2.081892   -0.202696   -0.010749
      6          8           0       -2.295843   -0.394241   -1.194041
      7          7           0       -1.097707    0.666982    0.444447
      8          1           0       -0.901092    0.605112    1.438016
      9          6           0        0.072117    0.979631   -0.381438
     10          1           0       -0.305554    1.019902   -1.406717
     11          6           0        0.642914    2.344805    0.008116
     12          1           0        0.941537    2.385258    1.064811
     13          1           0        1.513246    2.600543   -0.606255
     14          1           0       -0.118223    3.115982   -0.140608
     15          6           0        1.056878   -0.219513   -0.378546
     16          8           0        0.787026   -1.258082   -0.963835
     17          7           0        2.186521   -0.068906    0.382886
     18          1           0        2.401999    0.840922    0.761525
     19          6           0        3.201280   -1.105401    0.473397
     20          1           0        2.773333   -2.017113    0.054868
     21          1           0        4.101976   -0.843492   -0.096310
     22          1           0        3.482710   -1.280173    1.517733
 ---------------------------------------------------------------------

 The electronic state is 1-A.
 Alpha  occ. eigenvalues --  -19.10843 -19.10527 -14.36598 -14.35701 -10.28404
 Alpha  occ. eigenvalues --  -10.28203 -10.23480 -10.22046 -10.20018 -10.18768
 Alpha  occ. eigenvalues --   -1.03255  -1.02216  -0.92359  -0.91677  -0.78196
 Alpha  occ. eigenvalues --   -0.72768  -0.70869  -0.64951  -0.58593  -0.57920
 Alpha  occ. eigenvalues --   -0.53330  -0.48132  -0.47178  -0.46218  -0.44728
 Alpha  occ. eigenvalues --   -0.43752  -0.42796  -0.41858  -0.40171  -0.39575
 Alpha  occ. eigenvalues --   -0.39054  -0.38633  -0.37284  -0.35539  -0.34859
 Alpha  occ. eigenvalues --   -0.27393  -0.25474  -0.24505  -0.22883
 Alpha virt. eigenvalues --    0.01342   0.04195   0.06289   0.08725   0.11267
 Alpha virt. eigenvalues --    0.12846   0.13400   0.14277   0.15383   0.15741
 Alpha virt. eigenvalues --    0.16188   0.16526   0.18049   0.18222   0.19712

 Mulliken atomic charges:
              1
     1  H    0.188005
     2  C   -0.548722
     3  H    0.183252
     4  H    0.151441
     5  C    0.598979
     6  O   -0.478010
     7  N   -0.581886
     8  H    0.309677
     9  C   -0.040279
    10  H    0.202601
    11  C   -0.483953
    12  H    0.135470
    13  H    0.160691
    14  H    0.178438
    15  C    0.583768
    16  O   -0.496204
    17  N   -0.598175
    18  H    0.326724
    19  C   -0.311554
    20  H    0.206963
    21  H    0.159112
    22  H    0.153662
 Sum of Mulliken atomic charges =   0.00000

 Dipole moment (field-independent basis, Debye):
    X=              3.0741    Y=              2.7676    Z=              4.7486  Tot=              6.2976
 Quadrupole moment (field-independent basis, Debye-Ang):
   XX=            -54.8115   YY=            -59.7606   ZZ=            -61.4879
   XY=              1.7392   XZ=             -4.2395   YZ=             -4.0092

 Normal termination of Gaussian 09 at Fri Feb 10 23:36:45 2017.
