 Gaussian 09, Revision A.02,
 Gaussian 09:  EM64L-G09RevA.02 11-Jun-2009

 ----------------------------------------------------------------------
 # b3lyp/6-31G* Opt=(ModRedundant, maxcycles=1000, calcfc) geom=nocrowd
 ----------------------------------------------------------------------

 ------------------
 Phi Psi fixed scan
 ------------------
 Symbolic Z-matrix:
 Charge =  0 Multiplicity = 1

 SCF Done:  E(RB3LYP) =  -495.821849441     A.U. after   15 cycles

  Exact polarizability:   0.000   0.000   0.000   0.000   0.000   0.000
 Approx polarizability: 118.842  14.267 119.902   1.790  12.494  97.597

 SCF Done:  E(RB3LYP) =  -495.827014358     A.U. after   12 cycles
 SCF Done:  E(RB3LYP) =  -495.833986832     A.U. after   12 cycles
 SCF Done:  E(RB3LYP) =  -495.836841301     A.U. after   16 cycles
 SCF Done:  E(RB3LYP) =  -495.838163783     A.U. after   13 cycles
 SCF Done:  E(RB3LYP) =  -495.835880972     A.U. after   15 cycles
 SCF Done:  E(RB3LYP) =  -495.839386267     A.U. after   14 cycles
 SCF Done:  E(RB3LYP) =  -495.839991986     A.U. after   12 cycles
 SCF Done:  E(RB3LYP) =  -495.839843440     A.U. after   13 cycles
 SCF Done:  E(RB3LYP) =  -495.840394490     A.U. after   12 cycles
 SCF Done:  E(RB3LYP) =  -495.840718854     A.U. after   11 cycles
 SCF Done:  E(RB3LYP) =  -495.840802414     A.U. after   12 cycles
 SCF Done:  E(RB3LYP) =  -495.840833552     A.U. after   11 cycles
 SCF Done:  E(RB3LYP) =  -495.840849795     A.U. after   10 cycles
 SCF Done:  E(RB3LYP) =  -495.840871756     A.U. after   11 cycles
 SCF Done:  E(RB3LYP) =  -495.840894562     A.U. after   11 cycles
 SCF Done:  E(RB3LYP) =  -495.840898042     A.U. after   10 cycles
 SCF Done:  E(RB3LYP) =  -495.840898670     A.U. after    9 cycles
 SCF Done:  E(RB3LYP) =  -495.840898843     A.U. after    7 cycles
 SCF Done:  E(RB3LYP) =  -495.840898845     A.U. after    6 cycles
 Optimization completed.
    -- Stationary point found.

                         Standard orientation:
 ---------------------------------------------------------------------
 Center     Atomic      Atomic             Coordinates (Angstroms)
 Number     Number       Type             X           Y           Z
 ---------------------------------------------------------------------
      1          1           0        3.924389   -1.139969   -0.411679
      2          6           0        2.990425   -0.853724   -0.897963
      3          1           0        2.484286   -1.763684   -1.242589
      4          1           0        3.206262   -0.228468   -1.771578
      5          6           0        2.098029   -0.153727    0.112341
      6          8           0        2.225236   -0.290247    1.316424
      7          7           0        1.153975    0.705852   -0.445104
      8          1           0        1.018594    0.578499   -1.443175
      9          6           0       -0.083802    0.963349    0.285947
     10          1           0        0.216094    1.002006    1.339192
     11          6           0       -0.673317    2.317023   -0.121623
     12          1           0       -1.011960    2.320916   -1.165344
     13          1           0       -1.518297    2.600307    0.517430
     14          1           0        0.091566    3.090834   -0.013719
     15          6           0       -1.017881   -0.273617    0.169229
     16          8           0       -0.567754   -1.408131    0.261812
     17          7           0       -2.332293   -0.022208   -0.110387
     18          1           0       -2.656983    0.932380   -0.117273
     19          6           0       -3.323620   -1.082981   -0.183556
     20          1           0       -2.786021   -2.029089   -0.255119
     21          1           0       -3.962377   -1.105949    0.708542
     22          1           0       -3.956187   -0.954208   -1.068394
 ---------------------------------------------------------------------

 The electronic state is 1-A.
 Alpha  occ. eigenvalues --  -19.11086 -19.10264 -14.36746 -14.35067 -10.28592
 Alpha  occ. eigenvalues --  -10.27856 -10.23469 -10.22121 -10.19896 -10.18276
 Alpha  occ. eigenvalues --   -1.03446  -1.01961  -0.92312  -0.91528  -0.77986
 Alpha  occ. eigenvalues --   -0.72495  -0.70858  -0.64763  -0.58691  -0.57390
 Alpha  occ. eigenvalues --   -0.53397  -0.47491  -0.47126  -0.46171  -0.44968
 Alpha  occ. eigenvalues --   -0.43658  -0.42781  -0.41769  -0.39884  -0.39290
 Alpha  occ. eigenvalues --   -0.39024  -0.38686  -0.37596  -0.35235  -0.34359
 Alpha  occ. eigenvalues --   -0.26906  -0.25504  -0.24473  -0.23249
 Alpha virt. eigenvalues --    0.01600   0.04177   0.06822   0.08891   0.11365
 Alpha virt. eigenvalues --    0.13085   0.13712   0.14399   0.15254   0.15760
 Alpha virt. eigenvalues --    0.16300   0.16524   0.18099   0.18674   0.19890

 Mulliken atomic charges:
              1
     1  H    0.184390
     2  C   -0.552077
     3  H    0.189533
     4  H    0.151603
     5  C    0.609265
     6  O   -0.489683
     7  N   -0.572098
     8  H    0.311237
     9  C   -0.059138
    10  H    0.204986
    11  C   -0.485267
    12  H    0.148102
    13  H    0.148318
    14  H    0.179771
    15  C    0.592947
    16  O   -0.505043
    17  N   -0.596468
    18  H    0.328965
    19  C   -0.311354
    20  H    0.206120
    21  H    0.160934
    22  H    0.154956
 Sum of Mulliken atomic charges =   0.00000

 Dipole moment (field-independent basis, Debye):
    X=             -3.5327    Y=              2.7201    Z=             -3.3746  Tot=              5.5917
 Quadrupole moment (field-independent basis, Debye-Ang):
   XX=            -52.5027   YY=            -60.6508   ZZ=            -61.0889
   XY=             -2.1033   XZ=             -6.6724   YZ=              2.3770

 Normal termination of Gaussian 09 at Fri Feb 10 23:35:49 2017.
