 Gaussian 09, Revision A.02,
 Gaussian 09:  EM64L-G09RevA.02 11-Jun-2009

 ----------------------------------------------------------------------
 # b3lyp/6-31G* Opt=(ModRedundant, maxcycles=1000, calcfc) geom=nocrowd
 ----------------------------------------------------------------------

 ------------------
 Phi Psi fixed scan
 ------------------
 Symbolic Z-matrix:
 Charge =  0 Multiplicity = 1

 SCF Done:  E(RB3LYP) =  -495.847255332     A.U. after   15 cycles

  Exact polarizability:   0.000   0.000   0.000   0.000   0.000   0.000
 Approx polarizability: 113.253 -10.861 125.585   4.335 -17.632  97.737

 SCF Done:  E(RB3LYP) =  -495.850310892     A.U. after   12 cycles
 SCF Done:  E(RB3LYP) =  -495.853454830     A.U. after   13 cycles
 SCF Done:  E(RB3LYP) =  -495.853904792     A.U. after   13 cycles
 SCF Done:  E(RB3LYP) =  -495.732280267     A.U. after   15 cycles
 SCF Done:  E(RB3LYP) =  -495.765866329     A.U. after   13 cycles
 SCF Done:  E(RB3LYP) =  -495.793542715     A.U. after   13 cycles
 SCF Done:  E(RB3LYP) =  -495.815648980     A.U. after   13 cycles
 SCF Done:  E(RB3LYP) =  -495.831428793     A.U. after   13 cycles
 SCF Done:  E(RB3LYP) =  -495.841667170     A.U. after   13 cycles
 SCF Done:  E(RB3LYP) =  -495.852768768     A.U. after   12 cycles
 SCF Done:  E(RB3LYP) =  -495.853905960     A.U. after   12 cycles
 SCF Done:  E(RB3LYP) =  -495.853904713     A.U. after   11 cycles
 SCF Done:  E(RB3LYP) =  -495.854049791     A.U. after   11 cycles
 SCF Done:  E(RB3LYP) =  -495.854203158     A.U. after   12 cycles
 SCF Done:  E(RB3LYP) =  -495.854279725     A.U. after   12 cycles
 SCF Done:  E(RB3LYP) =  -495.854303250     A.U. after   10 cycles
 SCF Done:  E(RB3LYP) =  -495.854315375     A.U. after   10 cycles
 SCF Done:  E(RB3LYP) =  -495.854318677     A.U. after   10 cycles
 SCF Done:  E(RB3LYP) =  -495.854318764     A.U. after    7 cycles
 Optimization completed.
    -- Stationary point found.

                         Standard orientation:
 ---------------------------------------------------------------------
 Center     Atomic      Atomic             Coordinates (Angstroms)
 Number     Number       Type             X           Y           Z
 ---------------------------------------------------------------------
      1          1           0        3.085690   -1.466246   -1.268335
      2          6           0        3.137686   -0.525944   -0.710288
      3          1           0        3.336287    0.292558   -1.408727
      4          1           0        3.975037   -0.608535   -0.011041
      5          6           0        1.856177   -0.356599    0.088027
      6          8           0        1.535769   -1.165759    0.962792
      7          7           0        1.111330    0.741762   -0.206247
      8          1           0        1.377207    1.299745   -1.006538
      9          6           0       -0.163719    1.088547    0.438102
     10          1           0       -0.023032    0.883513    1.506996
     11          6           0       -0.456349    2.570302    0.228654
     12          1           0       -0.607047    2.792994   -0.832961
     13          1           0       -1.378519    2.845884    0.743981
     14          1           0        0.366331    3.180004    0.616277
     15          6           0       -1.357474    0.212303   -0.041154
     16          8           0       -2.341627    0.719219   -0.572198
     17          7           0       -1.208115   -1.116630    0.188021
     18          1           0       -0.351077   -1.422205    0.645553
     19          6           0       -2.217435   -2.088812   -0.188868
     20          1           0       -3.023150   -1.557038   -0.696875
     21          1           0       -1.800976   -2.845106   -0.865128
     22          1           0       -2.625707   -2.597950    0.692794
 ---------------------------------------------------------------------

 The electronic state is 1-A.
 Alpha  occ. eigenvalues --  -19.12379 -19.10287 -14.37594 -14.34360 -10.30153
 Alpha  occ. eigenvalues --  -10.27559 -10.23856 -10.20722 -10.20283 -10.18541
 Alpha  occ. eigenvalues --   -1.04320  -1.01999  -0.93448  -0.90539  -0.78462
 Alpha  occ. eigenvalues --   -0.73567  -0.70558  -0.63860  -0.60105  -0.56712
 Alpha  occ. eigenvalues --   -0.52973  -0.49660  -0.48690  -0.45682  -0.45169
 Alpha  occ. eigenvalues --   -0.43666  -0.42035  -0.41714  -0.41075  -0.38916
 Alpha  occ. eigenvalues --   -0.38648  -0.37664  -0.37188  -0.36317  -0.35312
 Alpha  occ. eigenvalues --   -0.28205  -0.26306  -0.23978  -0.23444
 Alpha virt. eigenvalues --    0.00986   0.03552   0.06801   0.10716   0.11732
 Alpha virt. eigenvalues --    0.12773   0.14287   0.14979   0.15979   0.16604
 Alpha virt. eigenvalues --    0.17088   0.17587   0.17835   0.18419   0.21092

 Mulliken atomic charges:
              1
     1  H    0.188408
     2  C   -0.532286
     3  H    0.148723
     4  H    0.192210
     5  C    0.606035
     6  O   -0.534756
     7  N   -0.585955
     8  H    0.330044
     9  C   -0.052583
    10  H    0.178804
    11  C   -0.461540
    12  H    0.161151
    13  H    0.179782
    14  H    0.145780
    15  C    0.601062
    16  O   -0.525740
    17  N   -0.607343
    18  H    0.373069
    19  C   -0.310669
    20  H    0.196171
    21  H    0.153147
    22  H    0.156485
 Sum of Mulliken atomic charges =   0.00000

 Dipole moment (field-independent basis, Debye):
    X=              2.9112    Y=              0.4788    Z=             -1.0888  Tot=              3.1448
 Quadrupole moment (field-independent basis, Debye-Ang):
   XX=            -62.0560   YY=            -57.0025   ZZ=            -60.2645
   XY=              7.3540   XZ=             -7.4135   YZ=              2.5933

 Normal termination of Gaussian 09 at Fri Feb 10 23:48:58 2017.
