 Gaussian 09, Revision A.02,
 Gaussian 09:  EM64L-G09RevA.02 11-Jun-2009

 ----------------------------------------------------------------------
 # b3lyp/6-31G* Opt=(ModRedundant, maxcycles=1000, calcfc) geom=nocrowd
 ----------------------------------------------------------------------

 ------------------
 Phi Psi fixed scan
 ------------------
 Symbolic Z-matrix:
 Charge =  0 Multiplicity = 1

 SCF Done:  E(RB3LYP) =  -495.841395861     A.U. after   15 cycles

  Exact polarizability:   0.000   0.000   0.000   0.000   0.000   0.000
 Approx polarizability: 109.491  -2.790 107.415 -14.720   7.640 116.116

 SCF Done:  E(RB3LYP) =  -495.844327866     A.U. after   12 cycles
 SCF Done:  E(RB3LYP) =  -495.847128801     A.U. after   12 cycles
 SCF Done:  E(RB3LYP) =  -495.848070309     A.U. after   13 cycles
 SCF Done:  E(RB3LYP) =  -495.848537284     A.U. after   14 cycles
 SCF Done:  E(RB3LYP) =  -495.849132834     A.U. after   12 cycles
 SCF Done:  E(RB3LYP) =  -495.849171535     A.U. after   12 cycles
 SCF Done:  E(RB3LYP) =  -495.848784330     A.U. after   12 cycles
 SCF Done:  E(RB3LYP) =  -495.849157456     A.U. after   12 cycles
 SCF Done:  E(RB3LYP) =  -495.849208682     A.U. after   11 cycles
 SCF Done:  E(RB3LYP) =  -495.849210304     A.U. after    8 cycles
 SCF Done:  E(RB3LYP) =  -495.849211152     A.U. after    9 cycles
 SCF Done:  E(RB3LYP) =  -495.849211787     A.U. after   10 cycles
 SCF Done:  E(RB3LYP) =  -495.849211798     A.U. after    7 cycles
 SCF Done:  E(RB3LYP) =  -495.849211814     A.U. after    6 cycles
 Optimization completed.
    -- Stationary point found.

                         Standard orientation:
 ---------------------------------------------------------------------
 Center     Atomic      Atomic             Coordinates (Angstroms)
 Number     Number       Type             X           Y           Z
 ---------------------------------------------------------------------
      1          1           0       -3.908432   -1.285882   -0.040038
      2          6           0       -3.161779   -0.794824    0.587107
      3          1           0       -2.832678   -1.511469    1.349405
      4          1           0       -3.612929    0.063826    1.094586
      5          6           0       -1.972242   -0.405704   -0.274445
      6          8           0       -1.651374   -1.027448   -1.278506
      7          7           0       -1.286780    0.716405    0.147321
      8          1           0       -1.391462    0.947801    1.129019
      9          6           0        0.047072    0.961216   -0.380264
     10          1           0       -0.004546    0.764620   -1.454722
     11          6           0        0.462719    2.415965   -0.125367
     12          1           0        0.519458    2.617073    0.950794
     13          1           0        1.449252    2.617263   -0.554944
     14          1           0       -0.263381    3.101765   -0.572375
     15          6           0        1.058516    0.000286    0.281654
     16          8           0        0.928880   -0.341750    1.452072
     17          7           0        2.125328   -0.341430   -0.495072
     18          1           0        2.063992   -0.156357   -1.486766
     19          6           0        3.165995   -1.245182   -0.032657
     20          1           0        3.101876   -1.291231    1.055126
     21          1           0        3.034086   -2.257178   -0.435795
     22          1           0        4.153193   -0.872006   -0.324719
 ---------------------------------------------------------------------

 The electronic state is 1-A.
 Alpha  occ. eigenvalues --  -19.11222 -19.10889 -14.36457 -14.35183 -10.28325
 Alpha  occ. eigenvalues --  -10.28311 -10.23301 -10.21866 -10.19160 -10.18658
 Alpha  occ. eigenvalues --   -1.03456  -1.02418  -0.92151  -0.91754  -0.77915
 Alpha  occ. eigenvalues --   -0.72660  -0.70986  -0.63888  -0.58747  -0.57390
 Alpha  occ. eigenvalues --   -0.53253  -0.47866  -0.47584  -0.45907  -0.44858
 Alpha  occ. eigenvalues --   -0.43916  -0.42429  -0.41409  -0.40351  -0.39362
 Alpha  occ. eigenvalues --   -0.39142  -0.37989  -0.37264  -0.35334  -0.34952
 Alpha  occ. eigenvalues --   -0.26528  -0.25626  -0.25003  -0.23823
 Alpha virt. eigenvalues --    0.02369   0.02986   0.07340   0.08839   0.12089
 Alpha virt. eigenvalues --    0.12555   0.14108   0.15160   0.15336   0.15935
 Alpha virt. eigenvalues --    0.16552   0.17152   0.17622   0.18732   0.19695

 Mulliken atomic charges:
              1
     1  H    0.184406
     2  C   -0.545408
     3  H    0.187654
     4  H    0.156162
     5  C    0.594582
     6  O   -0.508455
     7  N   -0.566600
     8  H    0.327453
     9  C   -0.062226
    10  H    0.165736
    11  C   -0.454556
    12  H    0.160107
    13  H    0.154512
    14  H    0.166116
    15  C    0.618011
    16  O   -0.532897
    17  N   -0.586314
    18  H    0.329993
    19  C   -0.310310
    20  H    0.201830
    21  H    0.164774
    22  H    0.155430
 Sum of Mulliken atomic charges =   0.00000

 Dipole moment (field-independent basis, Debye):
    X=              1.3799    Y=              1.8303    Z=             -0.3048  Tot=              2.3124
 Quadrupole moment (field-independent basis, Debye-Ang):
   XX=            -51.0316   YY=            -59.2650   ZZ=            -63.1803
   XY=             -2.7888   XZ=             -9.8238   YZ=             -1.2609

 Normal termination of Gaussian 09 at Fri Feb 10 23:28:34 2017.
