 Gaussian 09, Revision A.02,
 Gaussian 09:  EM64L-G09RevA.02 11-Jun-2009

 ----------------------------------------------------------------------
 # b3lyp/6-31G* Opt=(ModRedundant, maxcycles=1000, calcfc) geom=nocrowd
 ----------------------------------------------------------------------

 ------------------
 Phi Psi fixed scan
 ------------------
 Symbolic Z-matrix:
 Charge =  0 Multiplicity = 1

 SCF Done:  E(RB3LYP) =  -495.842767808     A.U. after   15 cycles

  Exact polarizability:   0.000   0.000   0.000   0.000   0.000   0.000
 Approx polarizability: 106.368  -6.823 109.908 -11.912  13.918 117.091

 SCF Done:  E(RB3LYP) =  -495.845151518     A.U. after   11 cycles
 SCF Done:  E(RB3LYP) =  -495.847828882     A.U. after   12 cycles
 SCF Done:  E(RB3LYP) =  -495.848814503     A.U. after   13 cycles
 SCF Done:  E(RB3LYP) =  -495.820165648     A.U. after   15 cycles
 SCF Done:  E(RB3LYP) =  -495.848815972     A.U. after   14 cycles
 SCF Done:  E(RB3LYP) =  -495.849279000     A.U. after   12 cycles
 SCF Done:  E(RB3LYP) =  -495.847187476     A.U. after   13 cycles
 SCF Done:  E(RB3LYP) =  -495.849619424     A.U. after   13 cycles
 SCF Done:  E(RB3LYP) =  -495.849797506     A.U. after   13 cycles
 SCF Done:  E(RB3LYP) =  -495.849824064     A.U. after   11 cycles
 SCF Done:  E(RB3LYP) =  -495.849853462     A.U. after   11 cycles
 SCF Done:  E(RB3LYP) =  -495.849856333     A.U. after    9 cycles
 SCF Done:  E(RB3LYP) =  -495.849863178     A.U. after   10 cycles
 SCF Done:  E(RB3LYP) =  -495.849870007     A.U. after   10 cycles
 SCF Done:  E(RB3LYP) =  -495.849873337     A.U. after   10 cycles
 SCF Done:  E(RB3LYP) =  -495.849873513     A.U. after    9 cycles
 SCF Done:  E(RB3LYP) =  -495.849873571     A.U. after    7 cycles
 SCF Done:  E(RB3LYP) =  -495.849873733     A.U. after    8 cycles
 SCF Done:  E(RB3LYP) =  -495.849873854     A.U. after    8 cycles
 Optimization completed.
    -- Stationary point found.

                         Standard orientation:
 ---------------------------------------------------------------------
 Center     Atomic      Atomic             Coordinates (Angstroms)
 Number     Number       Type             X           Y           Z
 ---------------------------------------------------------------------
      1          1           0       -3.894700   -1.272362    0.011258
      2          6           0       -3.131388   -0.811703    0.642535
      3          1           0       -2.841078   -1.544821    1.404280
      4          1           0       -3.552374    0.064436    1.145380
      5          6           0       -1.920142   -0.481074   -0.213692
      6          8           0       -1.540881   -1.206328   -1.125378
      7          7           0       -1.286274    0.702253    0.093522
      8          1           0       -1.439663    1.071931    1.024392
      9          6           0        0.035288    0.966569   -0.462547
     10          1           0       -0.010934    0.680864   -1.516702
     11          6           0        0.378714    2.453883   -0.330127
     12          1           0        0.440957    2.737497    0.726296
     13          1           0        1.348974    2.665179   -0.791335
     14          1           0       -0.384317    3.066751   -0.819890
     15          6           0        1.092164    0.122974    0.279177
     16          8           0        1.125703    0.103901    1.505346
     17          7           0        2.004175   -0.502733   -0.516692
     18          1           0        1.768560   -0.611043   -1.493730
     19          6           0        3.037356   -1.366443    0.032145
     20          1           0        3.214812   -1.059060    1.063495
     21          1           0        2.732865   -2.420949    0.029385
     22          1           0        3.961064   -1.260879   -0.545326
 ---------------------------------------------------------------------

 The electronic state is 1-A.
 Alpha  occ. eigenvalues --  -19.11060 -19.11011 -14.36300 -14.35558 -10.28547
 Alpha  occ. eigenvalues --  -10.28171 -10.23313 -10.21722 -10.18932 -10.18926
 Alpha  occ. eigenvalues --   -1.03400  -1.02479  -0.92020  -0.91910  -0.77921
 Alpha  occ. eigenvalues --   -0.72774  -0.70977  -0.63806  -0.58713  -0.57566
 Alpha  occ. eigenvalues --   -0.53191  -0.47945  -0.47890  -0.46121  -0.44606
 Alpha  occ. eigenvalues --   -0.44023  -0.42225  -0.41387  -0.40280  -0.39537
 Alpha  occ. eigenvalues --   -0.39041  -0.37969  -0.36969  -0.35437  -0.35094
 Alpha  occ. eigenvalues --   -0.26787  -0.25611  -0.25025  -0.23709
 Alpha virt. eigenvalues --    0.02184   0.02984   0.07839   0.08606   0.12116
 Alpha virt. eigenvalues --    0.12525   0.13757   0.15153   0.15483   0.16151
 Alpha virt. eigenvalues --    0.16423   0.17499   0.17857   0.18858   0.19980

 Mulliken atomic charges:
              1
     1  H    0.185647
     2  C   -0.541300
     3  H    0.186757
     4  H    0.153183
     5  C    0.595710
     6  O   -0.514435
     7  N   -0.570709
     8  H    0.329380
     9  C   -0.051547
    10  H    0.159503
    11  C   -0.461198
    12  H    0.165414
    13  H    0.158089
    14  H    0.162391
    15  C    0.615834
    16  O   -0.534967
    17  N   -0.583491
    18  H    0.335695
    19  C   -0.309954
    20  H    0.199123
    21  H    0.165703
    22  H    0.155173
 Sum of Mulliken atomic charges =   0.00000

 Dipole moment (field-independent basis, Debye):
    X=              0.5655    Y=              1.2237    Z=             -0.6105  Tot=              1.4799
 Quadrupole moment (field-independent basis, Debye-Ang):
   XX=            -52.2078   YY=            -58.8435   ZZ=            -63.1066
   XY=             -4.5000   XZ=             -9.4151   YZ=             -2.0259

 Normal termination of Gaussian 09 at Fri Feb 10 23:36:57 2017.
