 Gaussian 09, Revision A.02,
 Gaussian 09:  EM64L-G09RevA.02 11-Jun-2009

 ----------------------------------------------------------------------
 # b3lyp/6-31G* Opt=(ModRedundant, maxcycles=1000, calcfc) geom=nocrowd
 ----------------------------------------------------------------------

 ------------------
 Phi Psi fixed scan
 ------------------
 Symbolic Z-matrix:
 Charge =  0 Multiplicity = 1

 SCF Done:  E(RB3LYP) =  -495.845164159     A.U. after   15 cycles

  Exact polarizability:   0.000   0.000   0.000   0.000   0.000   0.000
 Approx polarizability: 103.000  -5.352 121.628  -2.979  22.678 110.221

 SCF Done:  E(RB3LYP) =  -495.847912089     A.U. after   12 cycles
 SCF Done:  E(RB3LYP) =  -495.850767325     A.U. after   12 cycles
 SCF Done:  E(RB3LYP) =  -495.851671707     A.U. after   12 cycles
 SCF Done:  E(RB3LYP) =  -495.847013659     A.U. after   13 cycles
 SCF Done:  E(RB3LYP) =  -495.851761063     A.U. after   12 cycles
 SCF Done:  E(RB3LYP) =  -495.852339891     A.U. after   12 cycles
 SCF Done:  E(RB3LYP) =  -495.852356962     A.U. after   13 cycles
 SCF Done:  E(RB3LYP) =  -495.852417681     A.U. after   11 cycles
 SCF Done:  E(RB3LYP) =  -495.852366646     A.U. after   12 cycles
 SCF Done:  E(RB3LYP) =  -495.852470085     A.U. after   12 cycles
 SCF Done:  E(RB3LYP) =  -495.852506267     A.U. after   11 cycles
 SCF Done:  E(RB3LYP) =  -495.852531823     A.U. after   11 cycles
 SCF Done:  E(RB3LYP) =  -495.852549531     A.U. after   10 cycles
 SCF Done:  E(RB3LYP) =  -495.852561941     A.U. after   11 cycles
 SCF Done:  E(RB3LYP) =  -495.852565947     A.U. after   10 cycles
 SCF Done:  E(RB3LYP) =  -495.852575825     A.U. after   10 cycles
 SCF Done:  E(RB3LYP) =  -495.852579916     A.U. after   10 cycles
 SCF Done:  E(RB3LYP) =  -495.852579936     A.U. after    7 cycles
 SCF Done:  E(RB3LYP) =  -495.852579945     A.U. after    7 cycles
 Optimization completed.
    -- Stationary point found.

                         Standard orientation:
 ---------------------------------------------------------------------
 Center     Atomic      Atomic             Coordinates (Angstroms)
 Number     Number       Type             X           Y           Z
 ---------------------------------------------------------------------
      1          1           0       -3.879389   -1.080983    0.034106
      2          6           0       -3.071819   -0.797918    0.715350
      3          1           0       -2.877983   -1.656303    1.366945
      4          1           0       -3.400388    0.046886    1.328193
      5          6           0       -1.824755   -0.507427   -0.101921
      6          8           0       -1.389550   -1.305636   -0.930310
      7          7           0       -1.231227    0.705017    0.119166
      8          1           0       -1.480983    1.229134    0.947411
      9          6           0        0.047423    1.027189   -0.517036
     10          1           0       -0.032018    0.691324   -1.554060
     11          6           0        0.299162    2.532462   -0.462026
     12          1           0        0.444172    2.853809    0.574208
     13          1           0        1.208951    2.784727   -1.015707
     14          1           0       -0.540366    3.079152   -0.903241
     15          6           0        1.186892    0.265695    0.197540
     16          8           0        1.627271    0.642483    1.278466
     17          7           0        1.671519   -0.802051   -0.498976
     18          1           0        1.032953   -1.196686   -1.181171
     19          6           0        2.659620   -1.691673    0.091787
     20          1           0        3.330637   -1.094604    0.711026
     21          1           0        2.199028   -2.461689    0.725058
     22          1           0        3.232424   -2.180267   -0.701513
 ---------------------------------------------------------------------

 The electronic state is 1-A.
 Alpha  occ. eigenvalues --  -19.11690 -19.10849 -14.36678 -14.35375 -10.29371
 Alpha  occ. eigenvalues --  -10.27786 -10.23389 -10.21178 -10.19683 -10.18569
 Alpha  occ. eigenvalues --   -1.03733  -1.02458  -0.92680  -0.91293  -0.78109
 Alpha  occ. eigenvalues --   -0.73201  -0.70702  -0.63735  -0.59323  -0.57041
 Alpha  occ. eigenvalues --   -0.52905  -0.48820  -0.48315  -0.46169  -0.44709
 Alpha  occ. eigenvalues --   -0.43821  -0.41926  -0.41643  -0.40429  -0.39632
 Alpha  occ. eigenvalues --   -0.38605  -0.37921  -0.36700  -0.35725  -0.35513
 Alpha  occ. eigenvalues --   -0.27564  -0.25816  -0.25138  -0.23401
 Alpha virt. eigenvalues --    0.01628   0.02945   0.07580   0.09904   0.11928
 Alpha virt. eigenvalues --    0.12606   0.13385   0.15122   0.15965   0.16445
 Alpha virt. eigenvalues --    0.16964   0.17402   0.18073   0.19051   0.20153

 Mulliken atomic charges:
              1
     1  H    0.189060
     2  C   -0.534862
     3  H    0.187212
     4  H    0.149097
     5  C    0.599969
     6  O   -0.526116
     7  N   -0.579898
     8  H    0.330891
     9  C   -0.041891
    10  H    0.164168
    11  C   -0.470748
    12  H    0.172894
    13  H    0.163931
    14  H    0.152866
    15  C    0.602799
    16  O   -0.529387
    17  N   -0.581059
    18  H    0.351477
    19  C   -0.308106
    20  H    0.191870
    21  H    0.161146
    22  H    0.154687
 Sum of Mulliken atomic charges =   0.00000

 Dipole moment (field-independent basis, Debye):
    X=             -1.4516    Y=              0.4612    Z=             -0.2022  Tot=              1.5364
 Quadrupole moment (field-independent basis, Debye-Ang):
   XX=            -55.8729   YY=            -58.0233   ZZ=            -62.5067
   XY=             -6.2471   XZ=             -8.3690   YZ=             -3.0521

 Normal termination of Gaussian 09 at Fri Feb 10 23:25:13 2017.
