 Gaussian 09, Revision A.02,
 Gaussian 09:  EM64L-G09RevA.02 11-Jun-2009

 ----------------------------------------------------------------------
 # b3lyp/6-31G* Opt=(ModRedundant, maxcycles=1000, calcfc) geom=nocrowd
 ----------------------------------------------------------------------

 ------------------
 Phi Psi fixed scan
 ------------------
 Symbolic Z-matrix:
 Charge =  0 Multiplicity = 1

 SCF Done:  E(RB3LYP) =  -495.843302644     A.U. after   15 cycles

  Exact polarizability:   0.000   0.000   0.000   0.000   0.000   0.000
 Approx polarizability: 117.226 -13.475 122.455   2.557 -13.162  96.942

 SCF Done:  E(RB3LYP) =  -495.847290684     A.U. after   12 cycles
 SCF Done:  E(RB3LYP) =  -495.851725431     A.U. after   13 cycles
 SCF Done:  E(RB3LYP) =  -495.852579963     A.U. after   13 cycles
 SCF Done:  E(RB3LYP) =  -495.844226140     A.U. after   13 cycles
 SCF Done:  E(RB3LYP) =  -495.852634510     A.U. after   13 cycles
 SCF Done:  E(RB3LYP) =  -495.852845885     A.U. after   11 cycles
 SCF Done:  E(RB3LYP) =  -495.847494655     A.U. after   13 cycles
 SCF Done:  E(RB3LYP) =  -495.852962651     A.U. after   13 cycles
 SCF Done:  E(RB3LYP) =  -495.853059046     A.U. after   12 cycles
 SCF Done:  E(RB3LYP) =  -495.853169016     A.U. after   12 cycles
 SCF Done:  E(RB3LYP) =  -495.853205384     A.U. after   11 cycles
 SCF Done:  E(RB3LYP) =  -495.853219353     A.U. after   10 cycles
 SCF Done:  E(RB3LYP) =  -495.853223200     A.U. after   10 cycles
 SCF Done:  E(RB3LYP) =  -495.853224270     A.U. after   10 cycles
 SCF Done:  E(RB3LYP) =  -495.853225110     A.U. after    9 cycles
 SCF Done:  E(RB3LYP) =  -495.853225911     A.U. after    9 cycles
 SCF Done:  E(RB3LYP) =  -495.853226809     A.U. after   11 cycles
 SCF Done:  E(RB3LYP) =  -495.853226894     A.U. after    9 cycles
 SCF Done:  E(RB3LYP) =  -495.853226935     A.U. after    9 cycles
 Optimization completed on the basis of negligible forces.
    -- Stationary point found.

                         Standard orientation:
 ---------------------------------------------------------------------
 Center     Atomic      Atomic             Coordinates (Angstroms)
 Number     Number       Type             X           Y           Z
 ---------------------------------------------------------------------
      1          1           0        3.190416   -1.465633   -1.145421
      2          6           0        3.183975   -0.494035   -0.641652
      3          1           0        3.366857    0.292434   -1.380028
      4          1           0        4.003677   -0.498378    0.083250
      5          6           0        1.873632   -0.340130    0.111904
      6          8           0        1.545577   -1.136460    0.995838
      7          7           0        1.104995    0.723531   -0.238373
      8          1           0        1.391168    1.278112   -1.033694
      9          6           0       -0.169658    1.095743    0.390618
     10          1           0       -0.023189    0.955877    1.470565
     11          6           0       -0.468666    2.564106    0.102459
     12          1           0       -0.587572    2.736458   -0.973532
     13          1           0       -1.408355    2.850774    0.576310
     14          1           0        0.338001    3.200086    0.481346
     15          6           0       -1.379325    0.196901    0.000842
     16          8           0       -2.462410    0.695479   -0.291196
     17          7           0       -1.139487   -1.138731    0.012168
     18          1           0       -0.273884   -1.454490    0.446103
     19          6           0       -2.203345   -2.095645   -0.238508
     20          1           0       -2.905046   -1.661846   -0.953012
     21          1           0       -1.777457   -3.013131   -0.655084
     22          1           0       -2.758190   -2.347660    0.675527
 ---------------------------------------------------------------------

 The electronic state is 1-A.
 Alpha  occ. eigenvalues --  -19.12340 -19.10354 -14.37598 -14.34299 -10.30149
 Alpha  occ. eigenvalues --  -10.27546 -10.23967 -10.20769 -10.20315 -10.18610
 Alpha  occ. eigenvalues --   -1.04328  -1.02079  -0.93486  -0.90485  -0.78497
 Alpha  occ. eigenvalues --   -0.73590  -0.70473  -0.63976  -0.60159  -0.56692
 Alpha  occ. eigenvalues --   -0.52986  -0.49772  -0.48660  -0.45698  -0.45157
 Alpha  occ. eigenvalues --   -0.43473  -0.42085  -0.41728  -0.41021  -0.39079
 Alpha  occ. eigenvalues --   -0.38588  -0.37981  -0.37238  -0.36349  -0.34951
 Alpha  occ. eigenvalues --   -0.28189  -0.26338  -0.24394  -0.23169
 Alpha virt. eigenvalues --    0.00962   0.03494   0.06670   0.10757   0.11583
 Alpha virt. eigenvalues --    0.12837   0.14288   0.14802   0.15900   0.16259
 Alpha virt. eigenvalues --    0.16646   0.17545   0.18127   0.18614   0.21200

 Mulliken atomic charges:
              1
     1  H    0.188416
     2  C   -0.532395
     3  H    0.148121
     4  H    0.192115
     5  C    0.604146
     6  O   -0.535667
     7  N   -0.585527
     8  H    0.330026
     9  C   -0.054300
    10  H    0.184131
    11  C   -0.464853
    12  H    0.154567
    13  H    0.188548
    14  H    0.146051
    15  C    0.601690
    16  O   -0.524771
    17  N   -0.608710
    18  H    0.373100
    19  C   -0.302016
    20  H    0.187510
    21  H    0.151260
    22  H    0.158559
 Sum of Mulliken atomic charges =   0.00000

 Dipole moment (field-independent basis, Debye):
    X=              3.1353    Y=              0.5377    Z=             -1.5156  Tot=              3.5236
 Quadrupole moment (field-independent basis, Debye-Ang):
   XX=            -62.9194   YY=            -56.6376   ZZ=            -59.9899
   XY=              7.4147   XZ=             -6.1435   YZ=              2.1920

 Normal termination of Gaussian 09 at Fri Feb 10 23:44:21 2017.
