 Gaussian 09, Revision A.02,
 Gaussian 09:  EM64L-G09RevA.02 11-Jun-2009

 ----------------------------------------------------------------------
 # b3lyp/6-31G* Opt=(ModRedundant, maxcycles=1000, calcfc) geom=nocrowd
 ----------------------------------------------------------------------

 ------------------
 Phi Psi fixed scan
 ------------------
 Symbolic Z-matrix:
 Charge =  0 Multiplicity = 1

 SCF Done:  E(RB3LYP) =  -495.843878673     A.U. after   15 cycles

  Exact polarizability:   0.000   0.000   0.000   0.000   0.000   0.000
 Approx polarizability: 103.903  -7.843 115.526  -7.557  19.463 114.562

 SCF Done:  E(RB3LYP) =  -495.846236416     A.U. after   11 cycles
 SCF Done:  E(RB3LYP) =  -495.848953098     A.U. after   12 cycles
 SCF Done:  E(RB3LYP) =  -495.849953902     A.U. after   12 cycles
 SCF Done:  E(RB3LYP) =  -495.843456628     A.U. after   13 cycles
 SCF Done:  E(RB3LYP) =  -495.846473661     A.U. after   12 cycles
 SCF Done:  E(RB3LYP) =  -495.847779509     A.U. after   12 cycles
 SCF Done:  E(RB3LYP) =  -495.847586774     A.U. after   12 cycles
 SCF Done:  E(RB3LYP) =  -495.848569273     A.U. after   12 cycles
 SCF Done:  E(RB3LYP) =  -495.847977945     A.U. after   12 cycles
 SCF Done:  E(RB3LYP) =  -495.850236778     A.U. after   13 cycles
 SCF Done:  E(RB3LYP) =  -495.850785312     A.U. after   13 cycles
 SCF Done:  E(RB3LYP) =  -495.850754803     A.U. after   12 cycles
 SCF Done:  E(RB3LYP) =  -495.850820509     A.U. after   12 cycles
 SCF Done:  E(RB3LYP) =  -495.850867508     A.U. after   12 cycles
 SCF Done:  E(RB3LYP) =  -495.850880356     A.U. after   10 cycles
 SCF Done:  E(RB3LYP) =  -495.850887042     A.U. after   10 cycles
 SCF Done:  E(RB3LYP) =  -495.850890799     A.U. after   10 cycles
 SCF Done:  E(RB3LYP) =  -495.850891317     A.U. after    9 cycles
 SCF Done:  E(RB3LYP) =  -495.850891387     A.U. after    7 cycles
 Optimization completed.
    -- Stationary point found.

                         Standard orientation:
 ---------------------------------------------------------------------
 Center     Atomic      Atomic             Coordinates (Angstroms)
 Number     Number       Type             X           Y           Z
 ---------------------------------------------------------------------
      1          1           0       -3.877491   -1.213540    0.028227
      2          6           0       -3.093893   -0.827266    0.685305
      3          1           0       -2.846609   -1.617820    1.402514
      4          1           0       -3.476323    0.039086    1.233483
      5          6           0       -1.863935   -0.516804   -0.151135
      6          8           0       -1.438925   -1.291494   -1.002927
      7          7           0       -1.268697    0.696162    0.091633
      8          1           0       -1.473368    1.159069    0.968298
      9          6           0        0.031116    0.991938   -0.506054
     10          1           0       -0.025851    0.662156   -1.546253
     11          6           0        0.313988    2.493806   -0.440248
     12          1           0        0.410561    2.815061    0.602088
     13          1           0        1.254862    2.726408   -0.949439
     14          1           0       -0.492320    3.056916   -0.920681
     15          6           0        1.133363    0.217701    0.245954
     16          8           0        1.360242    0.440166    1.430753
     17          7           0        1.851363   -0.653523   -0.518627
     18          1           0        1.405110   -0.970662   -1.369853
     19          6           0        2.861781   -1.518029    0.071724
     20          1           0        3.317165   -0.985346    0.907698
     21          1           0        2.432938   -2.455094    0.450413
     22          1           0        3.627604   -1.752164   -0.673420
 ---------------------------------------------------------------------

 The electronic state is 1-A.
 Alpha  occ. eigenvalues --  -19.11285 -19.10971 -14.36081 -14.35933 -10.28912
 Alpha  occ. eigenvalues --  -10.27989 -10.23320 -10.21485 -10.19291 -10.18703
 Alpha  occ. eigenvalues --   -1.03485  -1.02530  -0.92273  -0.91682  -0.77973
 Alpha  occ. eigenvalues --   -0.72963  -0.70862  -0.63753  -0.58852  -0.57486
 Alpha  occ. eigenvalues --   -0.53063  -0.48317  -0.48072  -0.46245  -0.44506
 Alpha  occ. eigenvalues --   -0.44011  -0.42058  -0.41464  -0.40178  -0.39759
 Alpha  occ. eigenvalues --   -0.38862  -0.37954  -0.36723  -0.35616  -0.35263
 Alpha  occ. eigenvalues --   -0.27159  -0.25614  -0.25189  -0.23555
 Alpha virt. eigenvalues --    0.01914   0.02938   0.08062   0.08788   0.12021
 Alpha virt. eigenvalues --    0.12626   0.13362   0.15146   0.15717   0.16300
 Alpha virt. eigenvalues --    0.16646   0.17598   0.18107   0.18898   0.20127

 Mulliken atomic charges:
              1
     1  H    0.187293
     2  C   -0.537598
     3  H    0.186574
     4  H    0.150529
     5  C    0.597642
     6  O   -0.521542
     7  N   -0.575605
     8  H    0.330438
     9  C   -0.043915
    10  H    0.159634
    11  C   -0.467561
    12  H    0.169940
    13  H    0.161054
    14  H    0.157669
    15  C    0.610433
    16  O   -0.533252
    17  N   -0.580182
    18  H    0.342955
    19  C   -0.308858
    20  H    0.194918
    21  H    0.164605
    22  H    0.154826
 Sum of Mulliken atomic charges =   0.00000

 Dipole moment (field-independent basis, Debye):
    X=             -0.4482    Y=              0.7063    Z=             -0.5256  Tot=              0.9879
 Quadrupole moment (field-independent basis, Debye-Ang):
   XX=            -53.9059   YY=            -58.4245   ZZ=            -62.8770
   XY=             -5.6052   XZ=             -8.7776   YZ=             -2.6295

 Normal termination of Gaussian 09 at Fri Feb 10 23:29:33 2017.
