 Gaussian 09, Revision A.02,
 Gaussian 09:  EM64L-G09RevA.02 11-Jun-2009

 ----------------------------------------------------------------------
 # b3lyp/6-31G* Opt=(ModRedundant, maxcycles=1000, calcfc) geom=nocrowd
 ----------------------------------------------------------------------

 ------------------
 Phi Psi fixed scan
 ------------------
 Symbolic Z-matrix:
 Charge =  0 Multiplicity = 1

 SCF Done:  E(RB3LYP) =  -495.839345022     A.U. after   15 cycles

  Exact polarizability:   0.000   0.000   0.000   0.000   0.000   0.000
 Approx polarizability: 112.639   2.498 108.783 -14.967   3.410 111.563

 SCF Done:  E(RB3LYP) =  -495.842260127     A.U. after   12 cycles
 SCF Done:  E(RB3LYP) =  -495.845556286     A.U. after   13 cycles
 SCF Done:  E(RB3LYP) =  -495.846900178     A.U. after   16 cycles
 SCF Done:  E(RB3LYP) =  -495.810251715     A.U. after   15 cycles
 SCF Done:  E(RB3LYP) =  -495.846915435     A.U. after   14 cycles
 SCF Done:  E(RB3LYP) =  -495.847565748     A.U. after   13 cycles
 SCF Done:  E(RB3LYP) =  -495.819529523     A.U. after   14 cycles
 SCF Done:  E(RB3LYP) =  -495.847649132     A.U. after   13 cycles
 SCF Done:  E(RB3LYP) =  -495.848113586     A.U. after   12 cycles
 SCF Done:  E(RB3LYP) =  -495.848124847     A.U. after   12 cycles
 SCF Done:  E(RB3LYP) =  -495.848239848     A.U. after   11 cycles
 SCF Done:  E(RB3LYP) =  -495.848287619     A.U. after   12 cycles
 SCF Done:  E(RB3LYP) =  -495.848298075     A.U. after   11 cycles
 SCF Done:  E(RB3LYP) =  -495.848300592     A.U. after    9 cycles
 SCF Done:  E(RB3LYP) =  -495.848301764     A.U. after    9 cycles
 SCF Done:  E(RB3LYP) =  -495.848302608     A.U. after    8 cycles
 SCF Done:  E(RB3LYP) =  -495.848304485     A.U. after    9 cycles
 SCF Done:  E(RB3LYP) =  -495.848305935     A.U. after   10 cycles
 SCF Done:  E(RB3LYP) =  -495.848305952     A.U. after    7 cycles
 Optimization completed.
    -- Stationary point found.

                         Standard orientation:
 ---------------------------------------------------------------------
 Center     Atomic      Atomic             Coordinates (Angstroms)
 Number     Number       Type             X           Y           Z
 ---------------------------------------------------------------------
      1          1           0        3.931886   -1.241761    0.087895
      2          6           0        3.177318   -0.782564   -0.553158
      3          1           0        2.817603   -1.539502   -1.260833
      4          1           0        3.626462    0.035331   -1.126171
      5          6           0        2.014656   -0.316065    0.305746
      6          8           0        1.759801   -0.802142    1.398358
      7          7           0        1.274180    0.722484   -0.231325
      8          1           0        1.339046    0.810611   -1.239704
      9          6           0       -0.059970    0.962146    0.291297
     10          1           0        0.013931    0.869882    1.378901
     11          6           0       -0.537320    2.371084   -0.089952
     12          1           0       -0.610995    2.475697   -1.179178
     13          1           0       -1.526256    2.580105    0.329631
     14          1           0        0.167759    3.120270    0.282340
     15          6           0       -1.036120   -0.115635   -0.239894
     16          8           0       -0.772304   -0.784484   -1.232112
     17          7           0       -2.225991   -0.186778    0.424055
     18          1           0       -2.303849    0.296106    1.308558
     19          6           0       -3.252322   -1.158570    0.083835
     20          1           0       -3.019441   -1.546752   -0.908336
     21          1           0       -3.271634   -1.995209    0.793562
     22          1           0       -4.239271   -0.684082    0.067010
 ---------------------------------------------------------------------

 The electronic state is 1-A.
 Alpha  occ. eigenvalues --  -19.11383 -19.10753 -14.36515 -14.34959 -10.28446
 Alpha  occ. eigenvalues --  -10.28126 -10.23303 -10.21958 -10.19372 -10.18439
 Alpha  occ. eigenvalues --   -1.03541  -1.02326  -0.92243  -0.91642  -0.77908
 Alpha  occ. eigenvalues --   -0.72571  -0.70927  -0.64025  -0.58724  -0.57287
 Alpha  occ. eigenvalues --   -0.53287  -0.47761  -0.47363  -0.45668  -0.45121
 Alpha  occ. eigenvalues --   -0.43797  -0.42629  -0.41448  -0.40335  -0.39314
 Alpha  occ. eigenvalues --   -0.39150  -0.38004  -0.37538  -0.35285  -0.34782
 Alpha  occ. eigenvalues --   -0.26375  -0.25634  -0.25007  -0.23836
 Alpha virt. eigenvalues --    0.02499   0.03025   0.06862   0.08907   0.11951
 Alpha virt. eigenvalues --    0.12770   0.14258   0.15010   0.15543   0.15789
 Alpha virt. eigenvalues --    0.16603   0.16776   0.17726   0.18670   0.19414

 Mulliken atomic charges:
              1
     1  H    0.183505
     2  C   -0.548556
     3  H    0.189139
     4  H    0.157084
     5  C    0.595677
     6  O   -0.504777
     7  N   -0.564437
     8  H    0.324330
     9  C   -0.071939
    10  H    0.176596
    11  C   -0.450396
    12  H    0.155613
    13  H    0.149446
    14  H    0.168512
    15  C    0.617611
    16  O   -0.528713
    17  N   -0.587558
    18  H    0.326766
    19  C   -0.309870
    20  H    0.203041
    21  H    0.163542
    22  H    0.155386
 Sum of Mulliken atomic charges =   0.00000

 Dipole moment (field-independent basis, Debye):
    X=             -2.0132    Y=              2.3289    Z=             -0.3255  Tot=              3.0956
 Quadrupole moment (field-independent basis, Debye-Ang):
   XX=            -50.3887   YY=            -59.8543   ZZ=            -62.8573
   XY=              1.0241   XZ=             -9.7848   YZ=              0.6913

 Normal termination of Gaussian 09 at Fri Feb 10 23:30:38 2017.
