 Gaussian 09, Revision A.02,
 Gaussian 09:  EM64L-G09RevA.02 11-Jun-2009

 ----------------------------------------------------------------------
 # b3lyp/6-31G* Opt=(ModRedundant, maxcycles=1000, calcfc) geom=nocrowd
 ----------------------------------------------------------------------

 ------------------
 Phi Psi fixed scan
 ------------------
 Symbolic Z-matrix:
 Charge =  0 Multiplicity = 1

 SCF Done:  E(RB3LYP) =  -495.836008240     A.U. after   15 cycles

  Exact polarizability:   0.000   0.000   0.000   0.000   0.000   0.000
 Approx polarizability: 115.515  -7.282 112.165 -12.752  -2.627 105.652

 SCF Done:  E(RB3LYP) =  -495.839298087     A.U. after   12 cycles
 SCF Done:  E(RB3LYP) =  -495.843233126     A.U. after   12 cycles
 SCF Done:  E(RB3LYP) =  -495.845022112     A.U. after   13 cycles
 SCF Done:  E(RB3LYP) =  -495.842473426     A.U. after   15 cycles
 SCF Done:  E(RB3LYP) =  -495.845297314     A.U. after   13 cycles
 SCF Done:  E(RB3LYP) =  -495.846077278     A.U. after   12 cycles
 SCF Done:  E(RB3LYP) =  -495.832772752     A.U. after   14 cycles
 SCF Done:  E(RB3LYP) =  -495.846355497     A.U. after   13 cycles
 SCF Done:  E(RB3LYP) =  -495.846723876     A.U. after   12 cycles
 SCF Done:  E(RB3LYP) =  -495.846807962     A.U. after   11 cycles
 SCF Done:  E(RB3LYP) =  -495.846819073     A.U. after   12 cycles
 SCF Done:  E(RB3LYP) =  -495.846855358     A.U. after   11 cycles
 SCF Done:  E(RB3LYP) =  -495.846857696     A.U. after   10 cycles
 SCF Done:  E(RB3LYP) =  -495.846858027     A.U. after    8 cycles
 SCF Done:  E(RB3LYP) =  -495.846858107     A.U. after    7 cycles
 SCF Done:  E(RB3LYP) =  -495.846858271     A.U. after    8 cycles
 SCF Done:  E(RB3LYP) =  -495.846858352     A.U. after    8 cycles
 Optimization completed.
    -- Stationary point found.

                         Standard orientation:
 ---------------------------------------------------------------------
 Center     Atomic      Atomic             Coordinates (Angstroms)
 Number     Number       Type             X           Y           Z
 ---------------------------------------------------------------------
      1          1           0        3.947956   -1.191122    0.050941
      2          6           0        3.155776   -0.790228   -0.583588
      3          1           0        2.750912   -1.606526   -1.193988
      4          1           0        3.569084   -0.031605   -1.256860
      5          6           0        2.046019   -0.239700    0.294337
      6          8           0        1.876001   -0.594383    1.450940
      7          7           0        1.251781    0.724292   -0.308420
      8          1           0        1.271645    0.701863   -1.322461
      9          6           0       -0.071513    0.963636    0.240456
     10          1           0        0.043047    0.945381    1.329004
     11          6           0       -0.592368    2.335920   -0.212226
     12          1           0       -0.721222    2.368521   -1.300852
     13          1           0       -1.560151    2.574545    0.239767
     14          1           0        0.121198    3.114422    0.072960
     15          6           0       -1.022034   -0.195492   -0.161943
     16          8           0       -0.653964   -1.103160   -0.897302
     17          7           0       -2.302488   -0.080716    0.299246
     18          1           0       -2.493151    0.616147    1.005697
     19          6           0       -3.299609   -1.117226    0.083261
     20          1           0       -2.969007   -1.721547   -0.762084
     21          1           0       -3.409012   -1.769687    0.959047
     22          1           0       -4.270275   -0.666544   -0.147830
 ---------------------------------------------------------------------

 The electronic state is 1-A.
 Alpha  occ. eigenvalues --  -19.11497 -19.10572 -14.36576 -14.34832 -10.28555
 Alpha  occ. eigenvalues --  -10.27962 -10.23346 -10.22036 -10.19553 -10.18253
 Alpha  occ. eigenvalues --   -1.03627  -1.02195  -0.92297  -0.91554  -0.77878
 Alpha  occ. eigenvalues --   -0.72475  -0.70856  -0.64219  -0.58678  -0.57249
 Alpha  occ. eigenvalues --   -0.53317  -0.47615  -0.47190  -0.45472  -0.45393
 Alpha  occ. eigenvalues --   -0.43704  -0.42750  -0.41512  -0.40212  -0.39419
 Alpha  occ. eigenvalues --   -0.39029  -0.38059  -0.37702  -0.35252  -0.34593
 Alpha  occ. eigenvalues --   -0.26395  -0.25608  -0.24990  -0.23747
 Alpha virt. eigenvalues --    0.02530   0.03129   0.06418   0.08939   0.11788
 Alpha virt. eigenvalues --    0.12965   0.14438   0.14822   0.15514   0.15836
 Alpha virt. eigenvalues --    0.16476   0.16731   0.17868   0.18810   0.19370

 Mulliken atomic charges:
              1
     1  H    0.182723
     2  C   -0.550489
     3  H    0.191166
     4  H    0.155835
     5  C    0.598584
     6  O   -0.501928
     7  N   -0.563681
     8  H    0.320416
     9  C   -0.078516
    10  H    0.188874
    11  C   -0.449931
    12  H    0.153591
    13  H    0.142799
    14  H    0.170779
    15  C    0.613773
    16  O   -0.522677
    17  N   -0.589188
    18  H    0.325896
    19  C   -0.308870
    20  H    0.202817
    21  H    0.163004
    22  H    0.155023
 Sum of Mulliken atomic charges =   0.00000

 Dipole moment (field-independent basis, Debye):
    X=             -2.5661    Y=              2.5664    Z=             -1.0808  Tot=              3.7868
 Quadrupole moment (field-independent basis, Debye-Ang):
   XX=            -50.3705   YY=            -60.3885   ZZ=            -62.2903
   XY=             -0.2941   XZ=             -9.4266   YZ=              0.6278

 Normal termination of Gaussian 09 at Fri Feb 10 23:41:25 2017.
