 Gaussian 09, Revision A.02,
 Gaussian 09:  EM64L-G09RevA.02 11-Jun-2009

 ----------------------------------------------------------------------
 # b3lyp/6-31G* Opt=(ModRedundant, maxcycles=1000, calcfc) geom=nocrowd
 ----------------------------------------------------------------------

 ------------------
 Phi Psi fixed scan
 ------------------
 Symbolic Z-matrix:
 Charge =  0 Multiplicity = 1

 SCF Done:  E(RB3LYP) =  -495.839867052     A.U. after   15 cycles

  Exact polarizability:   0.000   0.000   0.000   0.000   0.000   0.000
 Approx polarizability: 113.007 -10.333 111.825 -10.204  -1.591 110.390

 SCF Done:  E(RB3LYP) =  -495.843410528     A.U. after   12 cycles
 SCF Done:  E(RB3LYP) =  -495.847129703     A.U. after   13 cycles
 SCF Done:  E(RB3LYP) =  -495.847670362     A.U. after   14 cycles
 SCF Done:  E(RB3LYP) =  -495.825838516     A.U. after   14 cycles
 SCF Done:  E(RB3LYP) =  -495.847682475     A.U. after   14 cycles
 SCF Done:  E(RB3LYP) =  -495.847815029     A.U. after   12 cycles
 SCF Done:  E(RB3LYP) =  -495.845708112     A.U. after   13 cycles
 SCF Done:  E(RB3LYP) =  -495.847897198     A.U. after   13 cycles
 SCF Done:  E(RB3LYP) =  -495.847945567     A.U. after   11 cycles
 SCF Done:  E(RB3LYP) =  -495.847953833     A.U. after   11 cycles
 SCF Done:  E(RB3LYP) =  -495.847957839     A.U. after   10 cycles
 SCF Done:  E(RB3LYP) =  -495.847963044     A.U. after   10 cycles
 SCF Done:  E(RB3LYP) =  -495.847968579     A.U. after   10 cycles
 SCF Done:  E(RB3LYP) =  -495.847973386     A.U. after   10 cycles
 SCF Done:  E(RB3LYP) =  -495.847975870     A.U. after   10 cycles
 SCF Done:  E(RB3LYP) =  -495.847976748     A.U. after   10 cycles
 SCF Done:  E(RB3LYP) =  -495.847976814     A.U. after    7 cycles
 Optimization completed.
    -- Stationary point found.

                         Standard orientation:
 ---------------------------------------------------------------------
 Center     Atomic      Atomic             Coordinates (Angstroms)
 Number     Number       Type             X           Y           Z
 ---------------------------------------------------------------------
      1          1           0        3.423899   -1.658454   -0.482073
      2          6           0        3.228360   -0.583516   -0.462973
      3          1           0        3.281702   -0.186970   -1.482092
      4          1           0        4.020525   -0.115983    0.132551
      5          6           0        1.889608   -0.337428    0.219018
      6          8           0        1.543714   -0.945977    1.224877
      7          7           0        1.102065    0.623741   -0.357415
      8          1           0        1.431806    1.086234   -1.193186
      9          6           0       -0.136865    1.118855    0.241498
     10          1           0        0.044850    1.230413    1.317257
     11          6           0       -0.491069    2.484993   -0.353185
     12          1           0       -0.630573    2.417059   -1.439719
     13          1           0       -1.427312    2.833078    0.085732
     14          1           0        0.297852    3.215533   -0.145443
     15          6           0       -1.366275    0.181931    0.161211
     16          8           0       -2.435650    0.572519    0.617536
     17          7           0       -1.199886   -1.018595   -0.454860
     18          1           0       -0.252312   -1.331276   -0.603796
     19          6           0       -2.253305   -2.020199   -0.452802
     20          1           0       -3.205434   -1.503356   -0.327279
     21          1           0       -2.254846   -2.565658   -1.401906
     22          1           0       -2.132652   -2.736784    0.369980
 ---------------------------------------------------------------------

 The electronic state is 1-A.
 Alpha  occ. eigenvalues --  -19.11768 -19.10349 -14.37151 -14.35497 -10.29649
 Alpha  occ. eigenvalues --  -10.27858 -10.23782 -10.21179 -10.20195 -10.19008
 Alpha  occ. eigenvalues --   -1.03949  -1.02329  -0.93285  -0.91109  -0.78384
 Alpha  occ. eigenvalues --   -0.73520  -0.70719  -0.64331  -0.59835  -0.57554
 Alpha  occ. eigenvalues --   -0.53016  -0.49843  -0.48242  -0.45816  -0.45099
 Alpha  occ. eigenvalues --   -0.43686  -0.42342  -0.41740  -0.40559  -0.39524
 Alpha  occ. eigenvalues --   -0.38873  -0.38454  -0.37578  -0.36229  -0.34270
 Alpha  occ. eigenvalues --   -0.27952  -0.25868  -0.24798  -0.23310
 Alpha virt. eigenvalues --    0.01721   0.03241   0.06277   0.10251   0.11334
 Alpha virt. eigenvalues --    0.12529   0.13971   0.14472   0.14926   0.15739
 Alpha virt. eigenvalues --    0.16786   0.17287   0.18022   0.18263   0.19417

 Mulliken atomic charges:
              1
     1  H    0.187001
     2  C   -0.538322
     3  H    0.146479
     4  H    0.190213
     5  C    0.571850
     6  O   -0.505071
     7  N   -0.617430
     8  H    0.327356
     9  C   -0.012451
    10  H    0.192171
    11  C   -0.482998
    12  H    0.146529
    13  H    0.199660
    14  H    0.151738
    15  C    0.614652
    16  O   -0.529146
    17  N   -0.586406
    18  H    0.339821
    19  C   -0.310772
    20  H    0.198584
    21  H    0.150791
    22  H    0.165749
 Sum of Mulliken atomic charges =   0.00000

 Dipole moment (field-independent basis, Debye):
    X=              3.0867    Y=              0.3267    Z=             -3.8440  Tot=              4.9407
 Quadrupole moment (field-independent basis, Debye-Ang):
   XX=            -61.9806   YY=            -55.3838   ZZ=            -62.1449
   XY=              6.4425   XZ=             -1.7710   YZ=              2.0416

 Normal termination of Gaussian 09 at Fri Feb 10 23:24:57 2017.
