 Gaussian 09, Revision A.02,
 Gaussian 09:  EM64L-G09RevA.02 11-Jun-2009

 ----------------------------------------------------------------------
 # b3lyp/6-31G* Opt=(ModRedundant, maxcycles=1000, calcfc) geom=nocrowd
 ----------------------------------------------------------------------

 ------------------
 Phi Psi fixed scan
 ------------------
 Symbolic Z-matrix:
 Charge =  0 Multiplicity = 1

 SCF Done:  E(RB3LYP) =  -495.846803893     A.U. after   15 cycles

  Exact polarizability:   0.000   0.000   0.000   0.000   0.000   0.000
 Approx polarizability: 104.352  -0.165 125.870   0.961  23.249 105.402

 SCF Done:  E(RB3LYP) =  -495.849444566     A.U. after   11 cycles
 SCF Done:  E(RB3LYP) =  -495.852553356     A.U. after   12 cycles
 SCF Done:  E(RB3LYP) =  -495.853555143     A.U. after   13 cycles
 SCF Done:  E(RB3LYP) =  -495.851682464     A.U. after   12 cycles
 SCF Done:  E(RB3LYP) =  -495.853589102     A.U. after   12 cycles
 SCF Done:  E(RB3LYP) =  -495.853833575     A.U. after   12 cycles
 SCF Done:  E(RB3LYP) =  -495.853434851     A.U. after   13 cycles
 SCF Done:  E(RB3LYP) =  -495.853995919     A.U. after   12 cycles
 SCF Done:  E(RB3LYP) =  -495.854049436     A.U. after   12 cycles
 SCF Done:  E(RB3LYP) =  -495.854071756     A.U. after   11 cycles
 SCF Done:  E(RB3LYP) =  -495.854095533     A.U. after   10 cycles
 SCF Done:  E(RB3LYP) =  -495.854140008     A.U. after   11 cycles
 SCF Done:  E(RB3LYP) =  -495.854150951     A.U. after   11 cycles
 SCF Done:  E(RB3LYP) =  -495.854152355     A.U. after   10 cycles
 SCF Done:  E(RB3LYP) =  -495.854152731     A.U. after    7 cycles
 SCF Done:  E(RB3LYP) =  -495.854152968     A.U. after    7 cycles
 SCF Done:  E(RB3LYP) =  -495.854153191     A.U. after    7 cycles
 SCF Done:  E(RB3LYP) =  -495.854153206     A.U. after    6 cycles
 Optimization completed.
    -- Stationary point found.

                         Standard orientation:
 ---------------------------------------------------------------------
 Center     Atomic      Atomic             Coordinates (Angstroms)
 Number     Number       Type             X           Y           Z
 ---------------------------------------------------------------------
      1          1           0       -3.890601   -0.948649    0.066821
      2          6           0       -3.066132   -0.712063    0.745577
      3          1           0       -2.900526   -1.591335    1.376687
      4          1           0       -3.355761    0.131339    1.379587
      5          6           0       -1.816807   -0.455038   -0.079131
      6          8           0       -1.422844   -1.262368   -0.922238
      7          7           0       -1.178497    0.728258    0.151497
      8          1           0       -1.439229    1.276084    0.960591
      9          6           0        0.090532    1.062265   -0.505533
     10          1           0       -0.017352    0.753957   -1.549607
     11          6           0        0.347892    2.562833   -0.416088
     12          1           0        0.527865    2.857739    0.622272
     13          1           0        1.242571    2.826557   -0.987636
     14          1           0       -0.501831    3.123376   -0.818955
     15          6           0        1.251513    0.264460    0.140665
     16          8           0        1.903193    0.716356    1.076720
     17          7           0        1.484299   -0.942083   -0.446231
     18          1           0        0.716069   -1.313703   -0.998977
     19          6           0        2.447238   -1.875754    0.114812
     20          1           0        3.275769   -1.305084    0.537359
     21          1           0        2.012143   -2.493030    0.912578
     22          1           0        2.822059   -2.532607   -0.675248
 ---------------------------------------------------------------------

 The electronic state is 1-A.
 Alpha  occ. eigenvalues --  -19.12095 -19.10641 -14.37181 -14.34847 -10.29800
 Alpha  occ. eigenvalues --  -10.27609 -10.23528 -10.20962 -10.20004 -10.18517
 Alpha  occ. eigenvalues --   -1.04043  -1.02272  -0.93068  -0.90928  -0.78275
 Alpha  occ. eigenvalues --   -0.73408  -0.70609  -0.63755  -0.59745  -0.56725
 Alpha  occ. eigenvalues --   -0.52844  -0.49242  -0.48556  -0.45966  -0.44961
 Alpha  occ. eigenvalues --   -0.43722  -0.41840  -0.41798  -0.40809  -0.39376
 Alpha  occ. eigenvalues --   -0.38505  -0.37806  -0.36856  -0.35894  -0.35621
 Alpha  occ. eigenvalues --   -0.27910  -0.26119  -0.24795  -0.23302
 Alpha virt. eigenvalues --    0.01326   0.03080   0.07200   0.10523   0.11906
 Alpha virt. eigenvalues --    0.12550   0.13769   0.15054   0.16009   0.16579
 Alpha virt. eigenvalues --    0.16987   0.17289   0.18062   0.19040   0.20427

 Mulliken atomic charges:
              1
     1  H    0.190755
     2  C   -0.533556
     3  H    0.187860
     4  H    0.149389
     5  C    0.601658
     6  O   -0.528535
     7  N   -0.582775
     8  H    0.330875
     9  C   -0.045158
    10  H    0.169561
    11  C   -0.468576
    12  H    0.172509
    13  H    0.167251
    14  H    0.149336
    15  C    0.598690
    16  O   -0.527317
    17  N   -0.589660
    18  H    0.361943
    19  C   -0.306525
    20  H    0.190288
    21  H    0.157386
    22  H    0.154601
 Sum of Mulliken atomic charges =   0.00000

 Dipole moment (field-independent basis, Debye):
    X=             -2.1744    Y=              0.3975    Z=              0.2371  Tot=              2.2232
 Quadrupole moment (field-independent basis, Debye-Ang):
   XX=            -58.2628   YY=            -57.5542   ZZ=            -61.8612
   XY=             -6.6649   XZ=             -8.3613   YZ=             -3.1527

 Normal termination of Gaussian 09 at Fri Feb 10 23:46:13 2017.
