 Gaussian 09, Revision A.02,
 Gaussian 09:  EM64L-G09RevA.02 11-Jun-2009

 ----------------------------------------------------------------------
 # b3lyp/6-31G* Opt=(ModRedundant, maxcycles=1000, calcfc) geom=nocrowd
 ----------------------------------------------------------------------

 ------------------
 Phi Psi fixed scan
 ------------------
 Symbolic Z-matrix:
 Charge =  0 Multiplicity = 1

 SCF Done:  E(RB3LYP) =  -495.840729495     A.U. after   16 cycles

  Exact polarizability:   0.000   0.000   0.000   0.000   0.000   0.000
 Approx polarizability: 108.759  -7.379 107.716 -11.622   1.451 118.803

 SCF Done:  E(RB3LYP) =  -495.844400369     A.U. after   12 cycles
 SCF Done:  E(RB3LYP) =  -495.847524227     A.U. after   13 cycles
 SCF Done:  E(RB3LYP) =  -495.847818954     A.U. after   14 cycles
 SCF Done:  E(RB3LYP) =  -495.848046812     A.U. after   12 cycles
 SCF Done:  E(RB3LYP) =  -495.847950527     A.U. after   12 cycles
 SCF Done:  E(RB3LYP) =  -495.847835123     A.U. after   14 cycles
 SCF Done:  E(RB3LYP) =  -495.848077269     A.U. after   12 cycles
 SCF Done:  E(RB3LYP) =  -495.847896536     A.U. after   12 cycles
 SCF Done:  E(RB3LYP) =  -495.848084940     A.U. after   12 cycles
 SCF Done:  E(RB3LYP) =  -495.848106404     A.U. after   11 cycles
 SCF Done:  E(RB3LYP) =  -495.848115119     A.U. after   11 cycles
 SCF Done:  E(RB3LYP) =  -495.848116808     A.U. after    9 cycles
 SCF Done:  E(RB3LYP) =  -495.848117478     A.U. after    8 cycles
 SCF Done:  E(RB3LYP) =  -495.848117654     A.U. after    7 cycles
 SCF Done:  E(RB3LYP) =  -495.848117728     A.U. after    8 cycles
 Optimization completed.
    -- Stationary point found.

                         Standard orientation:
 ---------------------------------------------------------------------
 Center     Atomic      Atomic             Coordinates (Angstroms)
 Number     Number       Type             X           Y           Z
 ---------------------------------------------------------------------
      1          1           0        3.377757   -1.730070   -0.390543
      2          6           0        3.205419   -0.652194   -0.443688
      3          1           0        3.249221   -0.330162   -1.489292
      4          1           0        4.017753   -0.163087    0.105451
      5          6           0        1.883407   -0.331392    0.239808
      6          8           0        1.548886   -0.843363    1.298423
      7          7           0        1.088282    0.583334   -0.409558
      8          1           0        1.451111    1.047439   -1.231046
      9          6           0       -0.120719    1.131065    0.204785
     10          1           0        0.096504    1.335337    1.258783
     11          6           0       -0.525840    2.432485   -0.494392
     12          1           0       -0.728967    2.261804   -1.559078
     13          1           0       -1.436978    2.817784   -0.032016
     14          1           0        0.262889    3.187496   -0.403203
     15          6           0       -1.329266    0.169913    0.245949
     16          8           0       -2.304960    0.468543    0.924790
     17          7           0       -1.257179   -0.930102   -0.548859
     18          1           0       -0.363754   -1.131854   -0.973233
     19          6           0       -2.284100   -1.955983   -0.544092
     20          1           0       -3.162505   -1.538983   -0.049455
     21          1           0       -2.546027   -2.244149   -1.568119
     22          1           0       -1.959539   -2.848986    0.004750
 ---------------------------------------------------------------------

 The electronic state is 1-A.
 Alpha  occ. eigenvalues --  -19.11698 -19.10129 -14.37118 -14.35505 -10.29534
 Alpha  occ. eigenvalues --  -10.27695 -10.23592 -10.21224 -10.20143 -10.19333
 Alpha  occ. eigenvalues --   -1.03889  -1.02140  -0.93285  -0.91041  -0.78394
 Alpha  occ. eigenvalues --   -0.73556  -0.70766  -0.64402  -0.59709  -0.57538
 Alpha  occ. eigenvalues --   -0.52770  -0.50044  -0.48196  -0.45568  -0.45074
 Alpha  occ. eigenvalues --   -0.43796  -0.42458  -0.41736  -0.40582  -0.39554
 Alpha  occ. eigenvalues --   -0.38817  -0.38570  -0.37748  -0.36110  -0.34174
 Alpha  occ. eigenvalues --   -0.27771  -0.25641  -0.24562  -0.23448
 Alpha virt. eigenvalues --    0.01845   0.03510   0.06103   0.10127   0.11235
 Alpha virt. eigenvalues --    0.12345   0.13860   0.14445   0.14846   0.15844
 Alpha virt. eigenvalues --    0.16779   0.17388   0.17706   0.18165   0.19557

 Mulliken atomic charges:
              1
     1  H    0.188717
     2  C   -0.540570
     3  H    0.145106
     4  H    0.189595
     5  C    0.577225
     6  O   -0.491687
     7  N   -0.630187
     8  H    0.326444
     9  C   -0.006228
    10  H    0.190008
    11  C   -0.484970
    12  H    0.147729
    13  H    0.196251
    14  H    0.153065
    15  C    0.616940
    16  O   -0.530308
    17  N   -0.584127
    18  H    0.330958
    19  C   -0.310366
    20  H    0.201559
    21  H    0.150778
    22  H    0.164068
 Sum of Mulliken atomic charges =   0.00000

 Dipole moment (field-independent basis, Debye):
    X=              2.9219    Y=              0.4519    Z=             -4.7624  Tot=              5.6056
 Quadrupole moment (field-independent basis, Debye-Ang):
   XX=            -60.8278   YY=            -55.0269   ZZ=            -63.0780
   XY=              5.6245   XZ=             -0.5538   YZ=              1.9967

 Normal termination of Gaussian 09 at Fri Feb 10 23:46:16 2017.
