 Gaussian 09, Revision A.02,
 Gaussian 09:  EM64L-G09RevA.02 11-Jun-2009

 ----------------------------------------------------------------------
 # b3lyp/6-31G* Opt=(ModRedundant, maxcycles=1000, calcfc) geom=nocrowd
 ----------------------------------------------------------------------

 ------------------
 Phi Psi fixed scan
 ------------------
 Symbolic Z-matrix:
 Charge =  0 Multiplicity = 1

 SCF Done:  E(RB3LYP) =  -495.833125944     A.U. after   15 cycles

  Exact polarizability:   0.000   0.000   0.000   0.000   0.000   0.000
 Approx polarizability: 100.474  -0.347  99.042   0.613 -12.079 135.521

 SCF Done:  E(RB3LYP) =  -495.836719606     A.U. after   12 cycles
 SCF Done:  E(RB3LYP) =  -495.840668163     A.U. after   13 cycles
 SCF Done:  E(RB3LYP) =  -495.841596584     A.U. after   14 cycles
 SCF Done:  E(RB3LYP) =  -495.825776610     A.U. after   15 cycles
 SCF Done:  E(RB3LYP) =  -495.832702031     A.U. after   12 cycles
 SCF Done:  E(RB3LYP) =  -495.836969789     A.U. after   12 cycles
 SCF Done:  E(RB3LYP) =  -495.839296200     A.U. after   12 cycles
 SCF Done:  E(RB3LYP) =  -495.839262149     A.U. after   12 cycles
 SCF Done:  E(RB3LYP) =  -495.840401605     A.U. after   13 cycles
 SCF Done:  E(RB3LYP) =  -495.841977270     A.U. after   11 cycles
 SCF Done:  E(RB3LYP) =  -495.841995049     A.U. after   10 cycles
 SCF Done:  E(RB3LYP) =  -495.842021248     A.U. after   11 cycles
 SCF Done:  E(RB3LYP) =  -495.842040545     A.U. after   11 cycles
 SCF Done:  E(RB3LYP) =  -495.842047173     A.U. after   10 cycles
 SCF Done:  E(RB3LYP) =  -495.842048954     A.U. after   10 cycles
 SCF Done:  E(RB3LYP) =  -495.842051131     A.U. after   10 cycles
 SCF Done:  E(RB3LYP) =  -495.842053284     A.U. after   10 cycles
 SCF Done:  E(RB3LYP) =  -495.842053476     A.U. after    8 cycles
 SCF Done:  E(RB3LYP) =  -495.842053490     A.U. after    7 cycles
 Optimization completed.
    -- Stationary point found.

                         Standard orientation:
 ---------------------------------------------------------------------
 Center     Atomic      Atomic             Coordinates (Angstroms)
 Number     Number       Type             X           Y           Z
 ---------------------------------------------------------------------
      1          1           0        3.402928   -1.737089   -0.749752
      2          6           0        3.225043   -0.659820   -0.702988
      3          1           0        3.184635   -0.257133   -1.720365
      4          1           0        4.076734   -0.209045   -0.181325
      5          6           0        1.958495   -0.409417    0.104578
      6          8           0        1.717767   -0.995885    1.147694
      7          7           0        1.097644    0.525719   -0.424863
      8          1           0        1.437859    1.097927   -1.186795
      9          6           0       -0.039070    1.041594    0.343647
     10          1           0        0.278825    1.179582    1.381988
     11          6           0       -0.512197    2.374048   -0.242360
     12          1           0       -0.832917    2.267368   -1.284968
     13          1           0       -1.363110    2.751748    0.331610
     14          1           0        0.288351    3.121641   -0.195698
     15          6           0       -1.197865    0.022228    0.443125
     16          8           0       -1.692086   -0.276372    1.518516
     17          7           0       -1.727245   -0.361776   -0.763469
     18          1           0       -1.116373   -0.273620   -1.565739
     19          6           0       -2.770355   -1.373731   -0.832093
     20          1           0       -3.407809   -1.258991    0.045571
     21          1           0       -3.366604   -1.226726   -1.737637
     22          1           0       -2.365068   -2.394617   -0.831684
 ---------------------------------------------------------------------

 The electronic state is 1-A.
 Alpha  occ. eigenvalues --  -19.11235 -19.10584 -14.36711 -14.35576 -10.29013
 Alpha  occ. eigenvalues --  -10.27712 -10.23474 -10.21363 -10.19952 -10.19706
 Alpha  occ. eigenvalues --   -1.03459  -1.02366  -0.92923  -0.91065  -0.78444
 Alpha  occ. eigenvalues --   -0.73361  -0.70461  -0.64727  -0.59334  -0.57317
 Alpha  occ. eigenvalues --   -0.52128  -0.50031  -0.47806  -0.45316  -0.44742
 Alpha  occ. eigenvalues --   -0.43750  -0.42600  -0.41914  -0.40328  -0.39421
 Alpha  occ. eigenvalues --   -0.39267  -0.38404  -0.37885  -0.35892  -0.34638
 Alpha  occ. eigenvalues --   -0.27347  -0.24993  -0.24792  -0.23548
 Alpha virt. eigenvalues --    0.02248   0.02702   0.05999   0.09123   0.11481
 Alpha virt. eigenvalues --    0.12229   0.13192   0.14745   0.14876   0.15517
 Alpha virt. eigenvalues --    0.16415   0.17488   0.17709   0.18794   0.19507

 Mulliken atomic charges:
              1
     1  H    0.190579
     2  C   -0.541357
     3  H    0.143100
     4  H    0.186125
     5  C    0.588619
     6  O   -0.483085
     7  N   -0.615419
     8  H    0.319145
     9  C   -0.032966
    10  H    0.186328
    11  C   -0.481317
    12  H    0.148200
    13  H    0.183505
    14  H    0.155737
    15  C    0.614794
    16  O   -0.502099
    17  N   -0.580586
    18  H    0.319010
    19  C   -0.306426
    20  H    0.197727
    21  H    0.149503
    22  H    0.160884
 Sum of Mulliken atomic charges =   0.00000

 Dipole moment (field-independent basis, Debye):
    X=              1.2688    Y=              2.3717    Z=             -5.7484  Tot=              6.3466
 Quadrupole moment (field-independent basis, Debye-Ang):
   XX=            -55.9551   YY=            -57.1366   ZZ=            -63.7188
   XY=              3.6589   XZ=              0.4639   YZ=              4.0553

 Normal termination of Gaussian 09 at Fri Feb 10 23:43:26 2017.
