 Gaussian 09, Revision A.02,
 Gaussian 09:  EM64L-G09RevA.02 11-Jun-2009

 ----------------------------------------------------------------------
 # b3lyp/6-31G* Opt=(ModRedundant, maxcycles=1000, calcfc) geom=nocrowd
 ----------------------------------------------------------------------

 ------------------
 Phi Psi fixed scan
 ------------------
 Symbolic Z-matrix:
 Charge =  0 Multiplicity = 1

 SCF Done:  E(RB3LYP) =  -495.848165130     A.U. after   15 cycles

  Exact polarizability:   0.000   0.000   0.000   0.000   0.000   0.000
 Approx polarizability: 108.107   5.940 127.086   3.642  21.369 100.941

 SCF Done:  E(RB3LYP) =  -495.850843587     A.U. after   11 cycles
 SCF Done:  E(RB3LYP) =  -495.853743056     A.U. after   12 cycles
 SCF Done:  E(RB3LYP) =  -495.854343341     A.U. after   12 cycles
 SCF Done:  E(RB3LYP) =  -495.837744015     A.U. after   13 cycles
 SCF Done:  E(RB3LYP) =  -495.844858240     A.U. after   13 cycles
 SCF Done:  E(RB3LYP) =  -495.849036568     A.U. after   13 cycles
 SCF Done:  E(RB3LYP) =  -495.851531973     A.U. after   12 cycles
 SCF Done:  E(RB3LYP) =  -495.851413983     A.U. after   13 cycles
 SCF Done:  E(RB3LYP) =  -495.852511186     A.U. after   12 cycles
 SCF Done:  E(RB3LYP) =  -495.854626879     A.U. after   11 cycles
 SCF Done:  E(RB3LYP) =  -495.854676491     A.U. after   11 cycles
 SCF Done:  E(RB3LYP) =  -495.854695852     A.U. after   10 cycles
 SCF Done:  E(RB3LYP) =  -495.854721444     A.U. after   11 cycles
 SCF Done:  E(RB3LYP) =  -495.854742065     A.U. after   11 cycles
 SCF Done:  E(RB3LYP) =  -495.854756748     A.U. after   11 cycles
 SCF Done:  E(RB3LYP) =  -495.854766238     A.U. after   11 cycles
 SCF Done:  E(RB3LYP) =  -495.854772610     A.U. after   11 cycles
 SCF Done:  E(RB3LYP) =  -495.854772530     A.U. after   10 cycles
 SCF Done:  E(RB3LYP) =  -495.854772887     A.U. after    9 cycles
 Optimization completed.
    -- Stationary point found.

                         Standard orientation:
 ---------------------------------------------------------------------
 Center     Atomic      Atomic             Coordinates (Angstroms)
 Number     Number       Type             X           Y           Z
 ---------------------------------------------------------------------
      1          1           0       -3.933757   -0.760606    0.064957
      2          6           0       -3.093722   -0.601649    0.747370
      3          1           0       -2.982235   -1.512457    1.344538
      4          1           0       -3.328246    0.234135    1.413448
      5          6           0       -1.833551   -0.395329   -0.075465
      6          8           0       -1.490119   -1.208066   -0.937120
      7          7           0       -1.133589    0.744048    0.179239
      8          1           0       -1.392872    1.301227    0.982380
      9          6           0        0.136945    1.080871   -0.478184
     10          1           0        0.006608    0.820047   -1.534357
     11          6           0        0.415772    2.572477   -0.333512
     12          1           0        0.594624    2.832535    0.714408
     13          1           0        1.318869    2.841166   -0.887415
     14          1           0       -0.423619    3.158357   -0.721884
     15          6           0        1.313723    0.237250    0.085613
     16          8           0        2.153304    0.726578    0.835519
     17          7           0        1.323617   -1.052227   -0.342330
     18          1           0        0.490514   -1.379343   -0.827487
     19          6           0        2.290019   -2.017640    0.149920
     20          1           0        3.146381   -1.469753    0.545828
     21          1           0        1.873842   -2.642763    0.951467
     22          1           0        2.619102   -2.669259   -0.665883
 ---------------------------------------------------------------------

 The electronic state is 1-A.
 Alpha  occ. eigenvalues --  -19.12322 -19.10404 -14.37482 -14.34515 -10.30059
 Alpha  occ. eigenvalues --  -10.27544 -10.23702 -10.20810 -10.20197 -10.18516
 Alpha  occ. eigenvalues --   -1.04242  -1.02076  -0.93327  -0.90674  -0.78401
 Alpha  occ. eigenvalues --   -0.73523  -0.70585  -0.63798  -0.59992  -0.56676
 Alpha  occ. eigenvalues --   -0.52903  -0.49511  -0.48675  -0.45776  -0.45117
 Alpha  occ. eigenvalues --   -0.43714  -0.41949  -0.41740  -0.41026  -0.39131
 Alpha  occ. eigenvalues --   -0.38528  -0.37674  -0.37013  -0.36204  -0.35505
 Alpha  occ. eigenvalues --   -0.28119  -0.26263  -0.24304  -0.23340
 Alpha virt. eigenvalues --    0.01098   0.03350   0.06948   0.10670   0.11840
 Alpha virt. eigenvalues --    0.12636   0.14106   0.15038   0.16026   0.16616
 Alpha virt. eigenvalues --    0.17084   0.17335   0.17983   0.18716   0.20748

 Mulliken atomic charges:
              1
     1  H    0.191819
     2  C   -0.532566
     3  H    0.188251
     4  H    0.149219
     5  C    0.604006
     6  O   -0.531636
     7  N   -0.585279
     8  H    0.330419
     9  C   -0.048967
    10  H    0.173941
    11  C   -0.463875
    12  H    0.168133
    13  H    0.172372
    14  H    0.146964
    15  C    0.599758
    16  O   -0.526739
    17  N   -0.600247
    18  H    0.369526
    19  C   -0.308907
    20  H    0.193866
    21  H    0.154598
    22  H    0.155345
 Sum of Mulliken atomic charges =   0.00000

 Dipole moment (field-independent basis, Debye):
    X=             -2.6270    Y=              0.4305    Z=              0.6730  Tot=              2.7458
 Quadrupole moment (field-independent basis, Debye-Ang):
   XX=            -60.4882   YY=            -57.2184   ZZ=            -60.9911
   XY=             -7.0627   XZ=             -8.1499   YZ=             -2.9438

 Normal termination of Gaussian 09 at Fri Feb 10 23:54:59 2017.
