 Gaussian 09, Revision A.02,
 Gaussian 09:  EM64L-G09RevA.02 11-Jun-2009

 ----------------------------------------------------------------------
 # b3lyp/6-31G* Opt=(ModRedundant, maxcycles=1000, calcfc) geom=nocrowd
 ----------------------------------------------------------------------

 ------------------
 Phi Psi fixed scan
 ------------------
 Symbolic Z-matrix:
 Charge =  0 Multiplicity = 1

 SCF Done:  E(RB3LYP) =  -495.839080573     A.U. after   15 cycles

  Exact polarizability:   0.000   0.000   0.000   0.000   0.000   0.000
 Approx polarizability: 117.963 -13.934 118.741  -1.271  -9.099  99.199

 SCF Done:  E(RB3LYP) =  -495.844183131     A.U. after   12 cycles
 SCF Done:  E(RB3LYP) =  -495.849422583     A.U. after   13 cycles
 SCF Done:  E(RB3LYP) =  -495.850605767     A.U. after   13 cycles
 SCF Done:  E(RB3LYP) =  -495.848369629     A.U. after   12 cycles
 SCF Done:  E(RB3LYP) =  -495.850865863     A.U. after   13 cycles
 SCF Done:  E(RB3LYP) =  -495.851246161     A.U. after   12 cycles
 SCF Done:  E(RB3LYP) =  -495.851360048     A.U. after   12 cycles
 SCF Done:  E(RB3LYP) =  -495.840885390     A.U. after   13 cycles
 SCF Done:  E(RB3LYP) =  -495.851384775     A.U. after   13 cycles
 SCF Done:  E(RB3LYP) =  -495.851457938     A.U. after   11 cycles
 SCF Done:  E(RB3LYP) =  -495.851471790     A.U. after   10 cycles
 SCF Done:  E(RB3LYP) =  -495.851493170     A.U. after   11 cycles
 SCF Done:  E(RB3LYP) =  -495.851520664     A.U. after   11 cycles
 SCF Done:  E(RB3LYP) =  -495.851562221     A.U. after   10 cycles
 SCF Done:  E(RB3LYP) =  -495.851593354     A.U. after   11 cycles
 SCF Done:  E(RB3LYP) =  -495.851603251     A.U. after   11 cycles
 SCF Done:  E(RB3LYP) =  -495.851605596     A.U. after   10 cycles
 SCF Done:  E(RB3LYP) =  -495.851605848     A.U. after    7 cycles
 SCF Done:  E(RB3LYP) =  -495.851605939     A.U. after    7 cycles
 Optimization completed.
    -- Stationary point found.

                         Standard orientation:
 ---------------------------------------------------------------------
 Center     Atomic      Atomic             Coordinates (Angstroms)
 Number     Number       Type             X           Y           Z
 ---------------------------------------------------------------------
      1          1           0        3.314813   -1.498320   -0.954927
      2          6           0        3.229480   -0.484912   -0.551941
      3          1           0        3.392984    0.236875   -1.357904
      4          1           0        4.020160   -0.364402    0.195600
      5          6           0        1.883751   -0.342802    0.139772
      6          8           0        1.528729   -1.124888    1.024987
      7          7           0        1.104827    0.690443   -0.274202
      8          1           0        1.425393    1.246862   -1.054611
      9          6           0       -0.161883    1.102831    0.342879
     10          1           0       -0.008109    1.040043    1.429588
     11          6           0       -0.465172    2.550123   -0.039707
     12          1           0       -0.560498    2.655871   -1.127376
     13          1           0       -1.416796    2.850735    0.399361
     14          1           0        0.328011    3.216824    0.313997
     15          6           0       -1.387853    0.192008    0.050567
     16          8           0       -2.516090    0.672503    0.006584
     17          7           0       -1.122635   -1.124781   -0.159657
     18          1           0       -0.238989   -1.470295    0.208341
     19          6           0       -2.218863   -2.070005   -0.308313
     20          1           0       -2.967489   -1.645611   -0.979967
     21          1           0       -1.832486   -2.999230   -0.735501
     22          1           0       -2.710214   -2.293364    0.648303
 ---------------------------------------------------------------------

 The electronic state is 1-A.
 Alpha  occ. eigenvalues --  -19.12267 -19.10498 -14.37535 -14.34406 -10.30105
 Alpha  occ. eigenvalues --  -10.27630 -10.24047 -10.20771 -10.20337 -10.18731
 Alpha  occ. eigenvalues --   -1.04312  -1.02245  -0.93481  -0.90537  -0.78529
 Alpha  occ. eigenvalues --   -0.73624  -0.70373  -0.64113  -0.60158  -0.56659
 Alpha  occ. eigenvalues --   -0.52930  -0.49894  -0.48601  -0.45798  -0.45152
 Alpha  occ. eigenvalues --   -0.43298  -0.42149  -0.41764  -0.40926  -0.39214
 Alpha  occ. eigenvalues --   -0.38568  -0.38369  -0.37287  -0.36336  -0.34639
 Alpha  occ. eigenvalues --   -0.28141  -0.26403  -0.24735  -0.23123
 Alpha virt. eigenvalues --    0.01024   0.03341   0.06524   0.10912   0.11425
 Alpha virt. eigenvalues --    0.12761   0.14226   0.14648   0.15794   0.15934
 Alpha virt. eigenvalues --    0.16695   0.17551   0.18272   0.18573   0.20639

 Mulliken atomic charges:
              1
     1  H    0.188364
     2  C   -0.532735
     3  H    0.147776
     4  H    0.191659
     5  C    0.596565
     6  O   -0.532556
     7  N   -0.587899
     8  H    0.330116
     9  C   -0.045865
    10  H    0.187776
    11  C   -0.473257
    12  H    0.150765
    13  H    0.196743
    14  H    0.147022
    15  C    0.602005
    16  O   -0.523311
    17  N   -0.605261
    18  H    0.368079
    19  C   -0.300057
    20  H    0.183506
    21  H    0.149901
    22  H    0.160665
 Sum of Mulliken atomic charges =   0.00000

 Dipole moment (field-independent basis, Debye):
    X=              3.3049    Y=              0.6327    Z=             -1.9783  Tot=              3.9034
 Quadrupole moment (field-independent basis, Debye-Ang):
   XX=            -62.8276   YY=            -56.3732   ZZ=            -60.2872
   XY=              7.3649   XZ=             -4.4653   YZ=              1.8631

 Normal termination of Gaussian 09 at Fri Feb 10 23:42:32 2017.
