 Gaussian 09, Revision A.02,
 Gaussian 09:  EM64L-G09RevA.02 11-Jun-2009

 ----------------------------------------------------------------------
 # b3lyp/6-31G* Opt=(ModRedundant, maxcycles=1000, calcfc) geom=nocrowd
 ----------------------------------------------------------------------

 ------------------
 Phi Psi fixed scan
 ------------------
 Symbolic Z-matrix:
 Charge =  0 Multiplicity = 1

 SCF Done:  E(RB3LYP) =  -495.825265899     A.U. after   15 cycles

  Exact polarizability:   0.000   0.000   0.000   0.000   0.000   0.000
 Approx polarizability: 119.301 -13.164 118.326  -3.528  -8.089  97.679

 SCF Done:  E(RB3LYP) =  -495.830794353     A.U. after   12 cycles
 SCF Done:  E(RB3LYP) =  -495.837215153     A.U. after   12 cycles
 SCF Done:  E(RB3LYP) =  -495.839858705     A.U. after   14 cycles
 SCF Done:  E(RB3LYP) =  -495.841703153     A.U. after   15 cycles
 SCF Done:  E(RB3LYP) =  -495.841031553     A.U. after   15 cycles
 SCF Done:  E(RB3LYP) =  -495.842085732     A.U. after   13 cycles
 SCF Done:  E(RB3LYP) =  -495.799819524     A.U. after   15 cycles
 SCF Done:  E(RB3LYP) =  -495.842372901     A.U. after   15 cycles
 SCF Done:  E(RB3LYP) =  -495.842624930     A.U. after   12 cycles
 SCF Done:  E(RB3LYP) =  -495.842883589     A.U. after   10 cycles
 SCF Done:  E(RB3LYP) =  -495.842884808     A.U. after    8 cycles
 SCF Done:  E(RB3LYP) =  -495.842885859     A.U. after    9 cycles
 SCF Done:  E(RB3LYP) =  -495.842887431     A.U. after    9 cycles
 SCF Done:  E(RB3LYP) =  -495.842890940     A.U. after   10 cycles
 SCF Done:  E(RB3LYP) =  -495.842898099     A.U. after   11 cycles
 SCF Done:  E(RB3LYP) =  -495.842902238     A.U. after   10 cycles
 SCF Done:  E(RB3LYP) =  -495.842903211     A.U. after    9 cycles
 SCF Done:  E(RB3LYP) =  -495.842903595     A.U. after    9 cycles
 SCF Done:  E(RB3LYP) =  -495.842903607     A.U. after    6 cycles
 Optimization completed.
    -- Stationary point found.

                         Standard orientation:
 ---------------------------------------------------------------------
 Center     Atomic      Atomic             Coordinates (Angstroms)
 Number     Number       Type             X           Y           Z
 ---------------------------------------------------------------------
      1          1           0        3.950309   -1.133198   -0.232101
      2          6           0        3.055483   -0.830334   -0.778274
      3          1           0        2.574859   -1.727461   -1.186646
      4          1           0        3.335683   -0.179346   -1.613855
      5          6           0        2.089070   -0.159356    0.181251
      6          8           0        2.121024   -0.335307    1.387503
      7          7           0        1.188791    0.716634   -0.418437
      8          1           0        1.106480    0.595475   -1.422840
      9          6           0       -0.084697    0.960385    0.246368
     10          1           0        0.154627    0.989936    1.315716
     11          6           0       -0.662240    2.314184   -0.184191
     12          1           0       -0.984200    2.307077   -1.232476
     13          1           0       -1.517826    2.612603    0.433209
     14          1           0        0.104289    3.085147   -0.067412
     15          6           0       -1.012317   -0.271616    0.048971
     16          8           0       -0.545884   -1.391548   -0.117498
     17          7           0       -2.354655   -0.019505    0.018048
     18          1           0       -2.680412    0.912516    0.223780
     19          6           0       -3.340402   -1.085156   -0.064277
     20          1           0       -2.823606   -1.986027   -0.396577
     21          1           0       -3.807471   -1.285224    0.908543
     22          1           0       -4.122187   -0.825207   -0.785753
 ---------------------------------------------------------------------

 The electronic state is 1-A.
 Alpha  occ. eigenvalues --  -19.11270 -19.10259 -14.36705 -14.34872 -10.28622
 Alpha  occ. eigenvalues --  -10.27793 -10.23444 -10.22105 -10.19851 -10.18139
 Alpha  occ. eigenvalues --   -1.03543  -1.01948  -0.92319  -0.91464  -0.77916
 Alpha  occ. eigenvalues --   -0.72416  -0.70844  -0.64633  -0.58693  -0.57275
 Alpha  occ. eigenvalues --   -0.53390  -0.47358  -0.47096  -0.46062  -0.45065
 Alpha  occ. eigenvalues --   -0.43645  -0.42814  -0.41710  -0.39891  -0.39363
 Alpha  occ. eigenvalues --   -0.38948  -0.38509  -0.37646  -0.35181  -0.34326
 Alpha  occ. eigenvalues --   -0.26661  -0.25463  -0.24671  -0.23433
 Alpha virt. eigenvalues --    0.02063   0.03835   0.06498   0.08965   0.11512
 Alpha virt. eigenvalues --    0.12960   0.13949   0.14564   0.15477   0.15821
 Alpha virt. eigenvalues --    0.16384   0.16586   0.18030   0.18889   0.20137

 Mulliken atomic charges:
              1
     1  H    0.182950
     2  C   -0.552295
     3  H    0.191978
     4  H    0.151959
     5  C    0.607645
     6  O   -0.494517
     7  N   -0.568025
     8  H    0.313274
     9  C   -0.070141
    10  H    0.204695
    11  C   -0.475762
    12  H    0.152806
    13  H    0.142786
    14  H    0.178240
    15  C    0.600729
    16  O   -0.509791
    17  N   -0.595185
    18  H    0.327243
    19  C   -0.310376
    20  H    0.205259
    21  H    0.161466
    22  H    0.155062
 Sum of Mulliken atomic charges =   0.00000

 Dipole moment (field-independent basis, Debye):
    X=             -3.3837    Y=              2.7362    Z=             -2.6710  Tot=              5.1059
 Quadrupole moment (field-independent basis, Debye-Ang):
   XX=            -51.4402   YY=            -60.7282   ZZ=            -61.3761
   XY=             -1.8539   XZ=             -7.6948   YZ=              1.5707

 Normal termination of Gaussian 09 at Fri Feb 10 23:46:13 2017.
