 Gaussian 09, Revision A.02,
 Gaussian 09:  EM64L-G09RevA.02 11-Jun-2009

 ----------------------------------------------------------------------
 # b3lyp/6-31G* Opt=(ModRedundant, maxcycles=1000, calcfc) geom=nocrowd
 ----------------------------------------------------------------------

 ------------------
 Phi Psi fixed scan
 ------------------
 Symbolic Z-matrix:
 Charge =  0 Multiplicity = 1

 SCF Done:  E(RB3LYP) =  -495.820953550     A.U. after   15 cycles

  Exact polarizability:   0.000   0.000   0.000   0.000   0.000   0.000
 Approx polarizability: 116.277  13.636 120.288   6.062  17.273 100.126

 SCF Done:  E(RB3LYP) =  -495.826604601     A.U. after   13 cycles
 SCF Done:  E(RB3LYP) =  -495.833714254     A.U. after   12 cycles
 SCF Done:  E(RB3LYP) =  -495.835739019     A.U. after   13 cycles
 SCF Done:  E(RB3LYP) =  -495.836998898     A.U. after   13 cycles
 SCF Done:  E(RB3LYP) =  -495.837800237     A.U. after   16 cycles
 SCF Done:  E(RB3LYP) =  -495.834481514     A.U. after   15 cycles
 SCF Done:  E(RB3LYP) =  -495.838161639     A.U. after   13 cycles
 SCF Done:  E(RB3LYP) =  -495.838573086     A.U. after   12 cycles
 SCF Done:  E(RB3LYP) =  -495.838427370     A.U. after   12 cycles
 SCF Done:  E(RB3LYP) =  -495.838916590     A.U. after   12 cycles
 SCF Done:  E(RB3LYP) =  -495.839010334     A.U. after   11 cycles
 SCF Done:  E(RB3LYP) =  -495.839082053     A.U. after   12 cycles
 SCF Done:  E(RB3LYP) =  -495.839147833     A.U. after   12 cycles
 SCF Done:  E(RB3LYP) =  -495.839188438     A.U. after   12 cycles
 SCF Done:  E(RB3LYP) =  -495.839206436     A.U. after   12 cycles
 SCF Done:  E(RB3LYP) =  -495.839213492     A.U. after   11 cycles
 SCF Done:  E(RB3LYP) =  -495.839214917     A.U. after   10 cycles
 SCF Done:  E(RB3LYP) =  -495.839214978     A.U. after    8 cycles
 SCF Done:  E(RB3LYP) =  -495.839215028     A.U. after    7 cycles
 Optimization completed.
    -- Stationary point found.

                         Standard orientation:
 ---------------------------------------------------------------------
 Center     Atomic      Atomic             Coordinates (Angstroms)
 Number     Number       Type             X           Y           Z
 ---------------------------------------------------------------------
      1          1           0       -3.908016   -1.119906    0.579781
      2          6           0       -2.942236   -0.852691    1.011823
      3          1           0       -2.439916   -1.774326    1.330525
      4          1           0       -3.096133   -0.222813    1.895139
      5          6           0       -2.096568   -0.170767   -0.051891
      6          8           0       -2.287382   -0.321330   -1.245166
      7          7           0       -1.122512    0.688890    0.448707
      8          1           0       -0.947984    0.589193    1.443752
      9          6           0        0.079819    0.967698   -0.337683
     10          1           0       -0.266238    1.005425   -1.375554
     11          6           0        0.664107    2.327743    0.051134
     12          1           0        0.984499    2.355413    1.101119
     13          1           0        1.520817    2.590332   -0.580329
     14          1           0       -0.097336    3.101480   -0.080241
     15          6           0        1.034253   -0.256498   -0.281758
     16          8           0        0.649203   -1.365681   -0.624615
     17          7           0        2.278435   -0.035651    0.244151
     18          1           0        2.564856    0.910527    0.443526
     19          6           0        3.280161   -1.085634    0.326709
     20          1           0        2.775306   -2.033579    0.137081
     21          1           0        4.072812   -0.950775   -0.420137
     22          1           0        3.734083   -1.106667    1.323565
 ---------------------------------------------------------------------

 The electronic state is 1-A.
 Alpha  occ. eigenvalues --  -19.10910 -19.10370 -14.36702 -14.35372 -10.28505
 Alpha  occ. eigenvalues --  -10.28009 -10.23482 -10.22092 -10.19949 -10.18514
 Alpha  occ. eigenvalues --   -1.03328  -1.02064  -0.92291  -0.91637  -0.78088
 Alpha  occ. eigenvalues --   -0.72625  -0.70862  -0.64873  -0.58651  -0.57627
 Alpha  occ. eigenvalues --   -0.53370  -0.47804  -0.47135  -0.46204  -0.44850
 Alpha  occ. eigenvalues --   -0.43693  -0.42767  -0.41818  -0.39986  -0.39438
 Alpha  occ. eigenvalues --   -0.38947  -0.38759  -0.37493  -0.35343  -0.34556
 Alpha  occ. eigenvalues --   -0.27162  -0.25501  -0.24433  -0.23029
 Alpha virt. eigenvalues --    0.01336   0.04305   0.06774   0.08792   0.11275
 Alpha virt. eigenvalues --    0.13114   0.13488   0.14494   0.14978   0.15760
 Alpha virt. eigenvalues --    0.16175   0.16493   0.18171   0.18351   0.19723

 Mulliken atomic charges:
              1
     1  H    0.186305
     2  C   -0.550584
     3  H    0.186111
     4  H    0.151567
     5  C    0.605908
     6  O   -0.483652
     7  N   -0.577313
     8  H    0.310154
     9  C   -0.047193
    10  H    0.203533
    11  C   -0.487480
    12  H    0.141826
    13  H    0.154475
    14  H    0.179624
    15  C    0.586231
    16  O   -0.500378
    17  N   -0.597513
    18  H    0.329025
    19  C   -0.312039
    20  H    0.206840
    21  H    0.160033
    22  H    0.154520
 Sum of Mulliken atomic charges =   0.00000

 Dipole moment (field-independent basis, Debye):
    X=              3.4212    Y=              2.7643    Z=              4.0681  Tot=              5.9913
 Quadrupole moment (field-independent basis, Debye-Ang):
   XX=            -53.6391   YY=            -60.3540   ZZ=            -61.0928
   XY=              2.0195   XZ=             -5.5239   YZ=             -3.2612

 Normal termination of Gaussian 09 at Fri Feb 10 23:45:21 2017.
