 Gaussian 09, Revision A.02,
 Gaussian 09:  EM64L-G09RevA.02 11-Jun-2009

 ----------------------------------------------------------------------
 # b3lyp/6-31G* Opt=(ModRedundant, maxcycles=1000, calcfc) geom=nocrowd
 ----------------------------------------------------------------------

 ------------------
 Phi Psi fixed scan
 ------------------
 Symbolic Z-matrix:
 Charge =  0 Multiplicity = 1

 SCF Done:  E(RB3LYP) =  -495.836663291     A.U. after   15 cycles

  Exact polarizability:   0.000   0.000   0.000   0.000   0.000   0.000
 Approx polarizability: 101.256  -1.250  98.834  -5.578  -2.122 134.899

 SCF Done:  E(RB3LYP) =  -495.840047709     A.U. after   12 cycles
 SCF Done:  E(RB3LYP) =  -495.843883300     A.U. after   13 cycles
 SCF Done:  E(RB3LYP) =  -495.844958678     A.U. after   14 cycles
 SCF Done:  E(RB3LYP) =  -495.839385418     A.U. after   15 cycles
 SCF Done:  E(RB3LYP) =  -495.842490795     A.U. after   12 cycles
 SCF Done:  E(RB3LYP) =  -495.843381545     A.U. after   13 cycles
 SCF Done:  E(RB3LYP) =  -495.844959457     A.U. after   14 cycles
 SCF Done:  E(RB3LYP) =  -495.845210895     A.U. after   13 cycles
 SCF Done:  E(RB3LYP) =  -495.844514482     A.U. after   13 cycles
 SCF Done:  E(RB3LYP) =  -495.845374256     A.U. after   13 cycles
 SCF Done:  E(RB3LYP) =  -495.845412697     A.U. after   11 cycles
 SCF Done:  E(RB3LYP) =  -495.845427967     A.U. after   11 cycles
 SCF Done:  E(RB3LYP) =  -495.845442019     A.U. after   11 cycles
 SCF Done:  E(RB3LYP) =  -495.845454616     A.U. after   11 cycles
 SCF Done:  E(RB3LYP) =  -495.845455812     A.U. after   10 cycles
 SCF Done:  E(RB3LYP) =  -495.845455936     A.U. after    7 cycles
 SCF Done:  E(RB3LYP) =  -495.845455941     A.U. after    7 cycles
 Optimization completed.
    -- Stationary point found.

                         Standard orientation:
 ---------------------------------------------------------------------
 Center     Atomic      Atomic             Coordinates (Angstroms)
 Number     Number       Type             X           Y           Z
 ---------------------------------------------------------------------
      1          1           0        3.423143   -1.774093   -0.452006
      2          6           0        3.220069   -0.704261   -0.540773
      3          1           0        3.209675   -0.424378   -1.599262
      4          1           0        4.040646   -0.171045   -0.047104
      5          6           0        1.916736   -0.392200    0.181021
      6          8           0        1.614140   -0.903944    1.247509
      7          7           0        1.089912    0.509005   -0.454350
      8          1           0        1.479973    1.039203   -1.223333
      9          6           0       -0.056203    1.096428    0.245369
     10          1           0        0.237871    1.332365    1.273046
     11          6           0       -0.518681    2.367624   -0.472535
     12          1           0       -0.821812    2.154612   -1.504036
     13          1           0       -1.378686    2.792552    0.052259
     14          1           0        0.278993    3.119753   -0.485970
     15          6           0       -1.234101    0.110927    0.400819
     16          8           0       -1.919182    0.110859    1.412768
     17          7           0       -1.537394   -0.601285   -0.727295
     18          1           0       -0.795123   -0.687274   -1.409530
     19          6           0       -2.582053   -1.611920   -0.724621
     20          1           0       -3.316399   -1.328555    0.030625
     21          1           0       -3.065309   -1.653263   -1.705929
     22          1           0       -2.194867   -2.608813   -0.475129
 ---------------------------------------------------------------------

 The electronic state is 1-A.
 Alpha  occ. eigenvalues --  -19.11651 -19.10339 -14.36904 -14.35387 -10.29326
 Alpha  occ. eigenvalues --  -10.27608 -10.23455 -10.21220 -10.19951 -10.19785
 Alpha  occ. eigenvalues --   -1.03783  -1.02215  -0.93138  -0.90932  -0.78460
 Alpha  occ. eigenvalues --   -0.73530  -0.70499  -0.64554  -0.59435  -0.57187
 Alpha  occ. eigenvalues --   -0.52150  -0.50191  -0.48044  -0.45422  -0.44887
 Alpha  occ. eigenvalues --   -0.43584  -0.42598  -0.41914  -0.40534  -0.39435
 Alpha  occ. eigenvalues --   -0.39062  -0.38517  -0.37919  -0.35965  -0.34460
 Alpha  occ. eigenvalues --   -0.27512  -0.25366  -0.24732  -0.23537
 Alpha virt. eigenvalues --    0.01908   0.03056   0.06154   0.09770   0.11354
 Alpha virt. eigenvalues --    0.12169   0.13529   0.14502   0.14880   0.15659
 Alpha virt. eigenvalues --    0.16551   0.17397   0.17590   0.18474   0.19563

 Mulliken atomic charges:
              1
     1  H    0.191128
     2  C   -0.543048
     3  H    0.146083
     4  H    0.186541
     5  C    0.586221
     6  O   -0.483630
     7  N   -0.621381
     8  H    0.322043
     9  C   -0.022662
    10  H    0.184336
    11  C   -0.483669
    12  H    0.152390
    13  H    0.187134
    14  H    0.153770
    15  C    0.614702
    16  O   -0.513962
    17  N   -0.582689
    18  H    0.324565
    19  C   -0.307707
    20  H    0.198756
    21  H    0.149707
    22  H    0.161369
 Sum of Mulliken atomic charges =   0.00000

 Dipole moment (field-independent basis, Debye):
    X=              2.1075    Y=              1.4011    Z=             -5.5979  Tot=              6.1434
 Quadrupole moment (field-independent basis, Debye-Ang):
   XX=            -57.1971   YY=            -55.7766   ZZ=            -64.4374
   XY=              4.3622   XZ=              0.5936   YZ=              2.8538

 Normal termination of Gaussian 09 at Fri Feb 10 23:39:34 2017.
