 Gaussian 09, Revision A.02,
 Gaussian 09:  EM64L-G09RevA.02 11-Jun-2009

 ----------------------------------------------------------------------
 # b3lyp/6-31G* Opt=(ModRedundant, maxcycles=1000, calcfc) geom=nocrowd
 ----------------------------------------------------------------------

 ------------------
 Phi Psi fixed scan
 ------------------
 Symbolic Z-matrix:
 Charge =  0 Multiplicity = 1

 SCF Done:  E(RB3LYP) =  -495.830924385     A.U. after   15 cycles

  Exact polarizability:   0.000   0.000   0.000   0.000   0.000   0.000
 Approx polarizability: 117.913 -10.829 115.625  -8.724  -4.585 100.569

 SCF Done:  E(RB3LYP) =  -495.834803691     A.U. after   12 cycles
 SCF Done:  E(RB3LYP) =  -495.839866264     A.U. after   12 cycles
 SCF Done:  E(RB3LYP) =  -495.841376458     A.U. after   12 cycles
 SCF Done:  E(RB3LYP) =  -495.842585197     A.U. after   12 cycles
 SCF Done:  E(RB3LYP) =  -495.843964604     A.U. after   15 cycles
 SCF Done:  E(RB3LYP) =  -495.844069289     A.U. after   13 cycles
 SCF Done:  E(RB3LYP) =  -495.756631803     A.U. after   15 cycles
 SCF Done:  E(RB3LYP) =  -495.844086521     A.U. after   15 cycles
 SCF Done:  E(RB3LYP) =  -495.844513969     A.U. after   12 cycles
 SCF Done:  E(RB3LYP) =  -495.844648273     A.U. after   12 cycles
 SCF Done:  E(RB3LYP) =  -495.844827561     A.U. after   12 cycles
 SCF Done:  E(RB3LYP) =  -495.844925357     A.U. after   12 cycles
 SCF Done:  E(RB3LYP) =  -495.844942068     A.U. after   10 cycles
 SCF Done:  E(RB3LYP) =  -495.844948611     A.U. after   10 cycles
 SCF Done:  E(RB3LYP) =  -495.844955327     A.U. after   10 cycles
 SCF Done:  E(RB3LYP) =  -495.844958121     A.U. after   10 cycles
 SCF Done:  E(RB3LYP) =  -495.844958428     A.U. after    8 cycles
 SCF Done:  E(RB3LYP) =  -495.844958425     A.U. after    6 cycles
 SCF Done:  E(RB3LYP) =  -495.844958428     A.U. after    6 cycles
 Optimization completed.
    -- Stationary point found.

                         Standard orientation:
 ---------------------------------------------------------------------
 Center     Atomic      Atomic             Coordinates (Angstroms)
 Number     Number       Type             X           Y           Z
 ---------------------------------------------------------------------
      1          1           0        3.947486   -1.168954   -0.065028
      2          6           0        3.111907   -0.807875   -0.666756
      3          1           0        2.659038   -1.661044   -1.186003
      4          1           0        3.477033   -0.101610   -1.420485
      5          6           0        2.070505   -0.188282    0.247570
      6          8           0        1.999343   -0.438119    1.440127
      7          7           0        1.222276    0.722230   -0.371190
      8          1           0        1.192370    0.632663   -1.381548
      9          6           0       -0.080359    0.962209    0.229005
     10          1           0        0.093190    0.978540    1.310690
     11          6           0       -0.632090    2.319560   -0.229593
     12          1           0       -0.868987    2.316477   -1.300133
     13          1           0       -1.541131    2.604539    0.311028
     14          1           0        0.116724    3.095067   -0.045390
     15          6           0       -1.014443   -0.245427   -0.063073
     16          8           0       -0.575708   -1.297020   -0.511979
     17          7           0       -2.345959   -0.032677    0.155770
     18          1           0       -2.628250    0.817094    0.621623
     19          6           0       -3.329851   -1.096228    0.028940
     20          1           0       -2.889764   -1.881314   -0.586627
     21          1           0       -3.599299   -1.523874    1.003273
     22          1           0       -4.235716   -0.717094   -0.455215
 ---------------------------------------------------------------------

 The electronic state is 1-A.
 Alpha  occ. eigenvalues --  -19.11442 -19.10389 -14.36642 -14.34785 -10.28616
 Alpha  occ. eigenvalues --  -10.27835 -10.23405 -10.22079 -10.19737 -10.18130
 Alpha  occ. eigenvalues --   -1.03624  -1.02046  -0.92315  -0.91478  -0.77870
 Alpha  occ. eigenvalues --   -0.72406  -0.70834  -0.64443  -0.58677  -0.57237
 Alpha  occ. eigenvalues --   -0.53355  -0.47452  -0.47081  -0.45773  -0.45232
 Alpha  occ. eigenvalues --   -0.43662  -0.42803  -0.41622  -0.40027  -0.39437
 Alpha  occ. eigenvalues --   -0.38931  -0.38260  -0.37697  -0.35207  -0.34427
 Alpha  occ. eigenvalues --   -0.26498  -0.25483  -0.24908  -0.23599
 Alpha virt. eigenvalues --    0.02434   0.03406   0.06199   0.08983   0.11648
 Alpha virt. eigenvalues --    0.12962   0.14254   0.14860   0.15359   0.15933
 Alpha virt. eigenvalues --    0.16415   0.16698   0.17945   0.18892   0.20008

 Mulliken atomic charges:
              1
     1  H    0.182469
     2  C   -0.551960
     3  H    0.192013
     4  H    0.154258
     5  C    0.602764
     6  O   -0.498313
     7  N   -0.564784
     8  H    0.316370
     9  C   -0.078049
    10  H    0.199352
    11  C   -0.459254
    12  H    0.154164
    13  H    0.138889
    14  H    0.174587
    15  C    0.607588
    16  O   -0.515631
    17  N   -0.592323
    18  H    0.326107
    19  C   -0.309247
    20  H    0.203810
    21  H    0.162189
    22  H    0.155000
 Sum of Mulliken atomic charges =   0.00000

 Dipole moment (field-independent basis, Debye):
    X=             -3.0466    Y=              2.6961    Z=             -1.8838  Tot=              4.4832
 Quadrupole moment (field-independent basis, Debye-Ang):
   XX=            -50.7090   YY=            -60.6596   ZZ=            -61.7901
   XY=             -1.2468   XZ=             -8.7054   YZ=              0.9775

 Normal termination of Gaussian 09 at Fri Feb 10 23:34:11 2017.
