 Gaussian 09, Revision A.02,
 Gaussian 09:  EM64L-G09RevA.02 11-Jun-2009

 ----------------------------------------------------------------------
 # b3lyp/6-31G* Opt=(ModRedundant, maxcycles=1000, calcfc) geom=nocrowd
 ----------------------------------------------------------------------

 ------------------
 Phi Psi fixed scan
 ------------------
 Symbolic Z-matrix:
 Charge =  0 Multiplicity = 1

 SCF Done:  E(RB3LYP) =  -495.828874469     A.U. after   16 cycles

  Exact polarizability:   0.000   0.000   0.000   0.000   0.000   0.000
 Approx polarizability: 102.466  -2.902 106.945   6.178 -21.614 126.039

 SCF Done:  E(RB3LYP) =  -495.832972836     A.U. after   12 cycles
 SCF Done:  E(RB3LYP) =  -495.837423826     A.U. after   13 cycles
 SCF Done:  E(RB3LYP) =  -495.838140586     A.U. after   13 cycles
 SCF Done:  E(RB3LYP) =  -495.836264068     A.U. after   12 cycles
 SCF Done:  E(RB3LYP) =  -495.838267144     A.U. after   13 cycles
 SCF Done:  E(RB3LYP) =  -495.838233527     A.U. after   12 cycles
 SCF Done:  E(RB3LYP) =  -495.838381814     A.U. after   12 cycles
 SCF Done:  E(RB3LYP) =  -495.838530365     A.U. after   13 cycles
 SCF Done:  E(RB3LYP) =  -495.838544003     A.U. after   13 cycles
 SCF Done:  E(RB3LYP) =  -495.838592272     A.U. after   12 cycles
 SCF Done:  E(RB3LYP) =  -495.838597550     A.U. after   11 cycles
 SCF Done:  E(RB3LYP) =  -495.838602049     A.U. after   10 cycles
 SCF Done:  E(RB3LYP) =  -495.838618918     A.U. after   11 cycles
 SCF Done:  E(RB3LYP) =  -495.838636934     A.U. after   11 cycles
 SCF Done:  E(RB3LYP) =  -495.838643695     A.U. after   10 cycles
 SCF Done:  E(RB3LYP) =  -495.838644678     A.U. after   10 cycles
 SCF Done:  E(RB3LYP) =  -495.838644764     A.U. after    8 cycles
 SCF Done:  E(RB3LYP) =  -495.838644772     A.U. after    7 cycles
 Optimization completed.
    -- Stationary point found.

                         Standard orientation:
 ---------------------------------------------------------------------
 Center     Atomic      Atomic             Coordinates (Angstroms)
 Number     Number       Type             X           Y           Z
 ---------------------------------------------------------------------
      1          1           0        4.062366   -0.682312   -0.504545
      2          6           0        3.076152   -0.751805   -0.971040
      3          1           0        2.913836   -1.801874   -1.237250
      4          1           0        3.070414   -0.152249   -1.887380
      5          6           0        2.025417   -0.333774    0.050409
      6          8           0        2.018299   -0.765846    1.191651
      7          7           0        1.098498    0.574045   -0.406251
      8          1           0        1.131544    0.844954   -1.379405
      9          6           0       -0.050074    1.008765    0.388067
     10          1           0        0.301376    1.085583    1.419952
     11          6           0       -0.545501    2.372664   -0.098502
     12          1           0       -0.854656    2.354030   -1.152224
     13          1           0       -1.407638    2.698697    0.490816
     14          1           0        0.248132    3.119836    0.004050
     15          6           0       -1.163770   -0.067429    0.464978
     16          8           0       -1.389858   -0.682194    1.495113
     17          7           0       -1.916906   -0.215729   -0.672380
     18          1           0       -1.601300    0.234994   -1.519335
     19          6           0       -2.935866   -1.245024   -0.792419
     20          1           0       -3.216464   -1.546188    0.217536
     21          1           0       -3.814693   -0.850815   -1.313265
     22          1           0       -2.569741   -2.128923   -1.331594
 ---------------------------------------------------------------------

 The electronic state is 1-A.
 Alpha  occ. eigenvalues --  -19.10780 -19.10552 -14.36469 -14.36209 -10.28589
 Alpha  occ. eigenvalues --  -10.28065 -10.23527 -10.21794 -10.20085 -10.19324
 Alpha  occ. eigenvalues --   -1.03111  -1.02383  -0.92735  -0.91461  -0.78417
 Alpha  occ. eigenvalues --   -0.73075  -0.70776  -0.64994  -0.59231  -0.58198
 Alpha  occ. eigenvalues --   -0.53055  -0.49214  -0.47469  -0.45368  -0.44962
 Alpha  occ. eigenvalues --   -0.43801  -0.42858  -0.41876  -0.40309  -0.39586
 Alpha  occ. eigenvalues --   -0.39312  -0.38405  -0.37181  -0.36148  -0.34944
 Alpha  occ. eigenvalues --   -0.27349  -0.25056  -0.24459  -0.23154
 Alpha virt. eigenvalues --    0.02203   0.03432   0.04696   0.08749   0.11434
 Alpha virt. eigenvalues --    0.12405   0.13336   0.14303   0.15256   0.15873
 Alpha virt. eigenvalues --    0.16539   0.17092   0.17687   0.19282   0.19426

 Mulliken atomic charges:
              1
     1  H    0.189521
     2  C   -0.538941
     3  H    0.185606
     4  H    0.138865
     5  C    0.598159
     6  O   -0.485490
     7  N   -0.604366
     8  H    0.309761
     9  C   -0.043464
    10  H    0.198895
    11  C   -0.471571
    12  H    0.129788
    13  H    0.177809
    14  H    0.168274
    15  C    0.609311
    16  O   -0.494241
    17  N   -0.586685
    18  H    0.311892
    19  C   -0.308239
    20  H    0.205557
    21  H    0.152927
    22  H    0.156630
 Sum of Mulliken atomic charges =   0.00000

 Dipole moment (field-independent basis, Debye):
    X=             -0.6725    Y=              2.5385    Z=             -6.2062  Tot=              6.7389
 Quadrupole moment (field-independent basis, Debye-Ang):
   XX=            -56.9531   YY=            -58.1555   ZZ=            -62.5778
   XY=              1.3316   XZ=             -1.0038   YZ=              4.4159

 Normal termination of Gaussian 09 at Fri Feb 10 23:35:35 2017.
