 Gaussian 09, Revision A.02,
 Gaussian 09:  EM64L-G09RevA.02 11-Jun-2009

 ----------------------------------------------------------------------
 # b3lyp/6-31G* Opt=(ModRedundant, maxcycles=1000, calcfc) geom=nocrowd
 ----------------------------------------------------------------------

 ------------------
 Phi Psi fixed scan
 ------------------
 Symbolic Z-matrix:
 Charge =  0 Multiplicity = 1

 SCF Done:  E(RB3LYP) =  -495.838153922     A.U. after   15 cycles

  Exact polarizability:   0.000   0.000   0.000   0.000   0.000   0.000
 Approx polarizability: 116.238 -12.674 115.299  -6.199  -5.401 103.825

 SCF Done:  E(RB3LYP) =  -495.842461788     A.U. after   12 cycles
 SCF Done:  E(RB3LYP) =  -495.847601679     A.U. after   14 cycles
 SCF Done:  E(RB3LYP) =  -495.847641339     A.U. after   12 cycles
 SCF Done:  E(RB3LYP) =  -495.848523585     A.U. after   13 cycles
 SCF Done:  E(RB3LYP) =  -495.848880374     A.U. after   11 cycles
 SCF Done:  E(RB3LYP) =  -495.785469743     A.U. after   17 cycles
 SCF Done:  E(RB3LYP) =  -495.803271115     A.U. after   12 cycles
 SCF Done:  E(RB3LYP) =  -495.818711650     A.U. after   13 cycles
 SCF Done:  E(RB3LYP) =  -495.830662937     A.U. after   16 cycles
 SCF Done:  E(RB3LYP) =  -495.849213631     A.U. after   12 cycles
 SCF Done:  E(RB3LYP) =  -495.849344903     A.U. after   12 cycles
 SCF Done:  E(RB3LYP) =  -495.849435293     A.U. after   12 cycles
 SCF Done:  E(RB3LYP) =  -495.849442219     A.U. after   11 cycles
 SCF Done:  E(RB3LYP) =  -495.849455666     A.U. after   11 cycles
 SCF Done:  E(RB3LYP) =  -495.849466319     A.U. after   10 cycles
 SCF Done:  E(RB3LYP) =  -495.849467370     A.U. after    9 cycles
 SCF Done:  E(RB3LYP) =  -495.849467875     A.U. after    8 cycles
 SCF Done:  E(RB3LYP) =  -495.849467980     A.U. after    7 cycles
 SCF Done:  E(RB3LYP) =  -495.849467992     A.U. after    7 cycles
 Optimization completed.
    -- Stationary point found.

                         Standard orientation:
 ---------------------------------------------------------------------
 Center     Atomic      Atomic             Coordinates (Angstroms)
 Number     Number       Type             X           Y           Z
 ---------------------------------------------------------------------
      1          1           0        3.420595   -1.554097   -0.726170
      2          6           0        3.259751   -0.502860   -0.472734
      3          1           0        3.395473    0.109911   -1.369291
      4          1           0        4.023471   -0.223130    0.261014
      5          6           0        1.889590   -0.355140    0.169976
      6          8           0        1.508931   -1.104898    1.069287
      7          7           0        1.108926    0.650267   -0.312678
      8          1           0        1.461206    1.200706   -1.083386
      9          6           0       -0.142498    1.107968    0.299417
     10          1           0        0.024880    1.131175    1.385082
     11          6           0       -0.459457    2.522763   -0.187843
     12          1           0       -0.567551    2.545442   -1.279483
     13          1           0       -1.405646    2.847901    0.245733
     14          1           0        0.333319    3.219856    0.103267
     15          6           0       -1.380202    0.191496    0.109422
     16          8           0       -2.502090    0.644628    0.310239
     17          7           0       -1.150188   -1.080704   -0.319957
     18          1           0       -0.240081   -1.463326   -0.085622
     19          6           0       -2.260898   -2.020773   -0.387537
     20          1           0       -3.101671   -1.540856   -0.891488
     21          1           0       -1.948574   -2.898926   -0.958834
     22          1           0       -2.599035   -2.340168    0.607215
 ---------------------------------------------------------------------

 The electronic state is 1-A.
 Alpha  occ. eigenvalues --  -19.12113 -19.10592 -14.37351 -14.34746 -10.29961
 Alpha  occ. eigenvalues --  -10.27748 -10.24022 -10.20855 -10.20310 -10.18887
 Alpha  occ. eigenvalues --   -1.04212  -1.02397  -0.93393  -0.90722  -0.78506
 Alpha  occ. eigenvalues --   -0.73618  -0.70366  -0.64237  -0.60040  -0.56803
 Alpha  occ. eigenvalues --   -0.52835  -0.49964  -0.48470  -0.45939  -0.45126
 Alpha  occ. eigenvalues --   -0.43261  -0.42225  -0.41777  -0.40768  -0.39302
 Alpha  occ. eigenvalues --   -0.38840  -0.38401  -0.37420  -0.36319  -0.34388
 Alpha  occ. eigenvalues --   -0.28051  -0.26356  -0.24960  -0.23173
 Alpha virt. eigenvalues --    0.01233   0.03104   0.06460   0.10971   0.11293
 Alpha virt. eigenvalues --    0.12570   0.14208   0.14617   0.15395   0.15585
 Alpha virt. eigenvalues --    0.16878   0.17400   0.18347   0.18491   0.19860

 Mulliken atomic charges:
              1
     1  H    0.187888
     2  C   -0.534412
     3  H    0.148087
     4  H    0.190661
     5  C    0.586424
     6  O   -0.525910
     7  N   -0.595682
     8  H    0.329442
     9  C   -0.029365
    10  H    0.188742
    11  C   -0.481270
    12  H    0.149988
    13  H    0.200748
    14  H    0.148122
    15  C    0.603929
    16  O   -0.523104
    17  N   -0.596604
    18  H    0.357289
    19  C   -0.301889
    20  H    0.184441
    21  H    0.149201
    22  H    0.163273
 Sum of Mulliken atomic charges =   0.00000

 Dipole moment (field-independent basis, Debye):
    X=              3.3388    Y=              0.6511    Z=             -2.5837  Tot=              4.2717
 Quadrupole moment (field-independent basis, Debye-Ang):
   XX=            -62.1330   YY=            -56.0481   ZZ=            -61.0700
   XY=              7.1941   XZ=             -2.7539   YZ=              1.7590

 Normal termination of Gaussian 09 at Fri Feb 10 23:32:26 2017.
