 Gaussian 09, Revision A.02,
 Gaussian 09:  EM64L-G09RevA.02 11-Jun-2009

 -------------------
 #SP MP2/aug-cc-pVDZ
 -------------------

 -------------------------------
 Single Point calculation at MP2
 -------------------------------
 Symbolic Z-matrix:
 Charge =  0 Multiplicity = 1

                         Standard orientation:
 ---------------------------------------------------------------------
 Center     Atomic      Atomic             Coordinates (Angstroms)
 Number     Number       Type             X           Y           Z
 ---------------------------------------------------------------------
      1          1           0       -4.166881   -0.789814    0.564997
      2          6           0       -3.130681   -0.947311    0.870097
      3          1           0       -2.900178   -2.013111    0.754597
      4          1           0       -3.016081   -0.682911    1.926697
      5          6           0       -2.219983   -0.143509   -0.044403
      6          8           0       -2.502584    0.095891   -1.208503
      7          7           0       -1.058484    0.307995    0.547797
      8          1           0       -0.827383   -0.077705    1.454497
      9          6           0        0.052914    0.796898   -0.262003
     10          1           0       -0.340186    0.824497   -1.283103
     11          6           0        0.462711    2.214199    0.156697
     12          1           0        0.802310    2.254700    1.199697
     13          1           0        1.257210    2.608901   -0.488303
     14          1           0       -0.399691    2.880596    0.067297
     15          6           0        1.163117   -0.281499   -0.272103
     16          8           0        0.916621   -1.416200   -0.660503
     17          7           0        2.381016    0.086304    0.227397
     18          1           0        2.534514    1.050404    0.480197
     19          6           0        3.518619   -0.817893    0.239597
     20          1           0        3.149022   -1.809794   -0.022903
     21          1           0        4.281018   -0.517491   -0.490003
     22          1           0        3.976119   -0.851192    1.234697
 ---------------------------------------------------------------------

 SCF Done:  E(RHF) =  -492.918084990     A.U. after   14 cycles
 E2 =    -0.1601630208D+01 EUMP2 =    -0.49451971519861D+03

 The electronic state is 1-A.
 Alpha  occ. eigenvalues --  -20.53078 -20.52799 -15.60333 -15.59478 -11.36303
 Alpha  occ. eigenvalues --  -11.35987 -11.29138 -11.27292 -11.24772 -11.24330
 Alpha  occ. eigenvalues --   -1.38907  -1.37974  -1.24081  -1.23364  -1.05674
 Alpha  occ. eigenvalues --   -0.99174  -0.95868  -0.88813  -0.79537  -0.79234
 Alpha  occ. eigenvalues --   -0.72998  -0.67240  -0.65371  -0.65115  -0.62450
 Alpha  occ. eigenvalues --   -0.61577  -0.59027  -0.58945  -0.57322  -0.56416
 Alpha  occ. eigenvalues --   -0.55232  -0.54741  -0.53221  -0.51718  -0.49878
 Alpha  occ. eigenvalues --   -0.43443  -0.42094  -0.39827  -0.39080
 Alpha virt. eigenvalues --    0.02471   0.03617   0.04072   0.04571   0.05639
 Alpha virt. eigenvalues --    0.05924   0.06108   0.06821   0.07463   0.08023
 Alpha virt. eigenvalues --    0.08655   0.08996   0.11401   0.11738   0.12710

 Mulliken atomic charges:
              1
     1  H   -0.016140
     2  C    0.340161
     3  H    0.073197
     4  H   -0.085599
     5  C    0.677851
     6  O   -0.833234
     7  N   -0.485684
     8  H   -0.092911
     9  C   -0.234524
    10  H   -0.058188
    11  C    0.844961
    12  H    0.037856
    13  H    0.012977
    14  H   -0.174291
    15  C    1.121511
    16  O   -0.880538
    17  N   -0.529006
    18  H   -0.148060
    19  C    0.781637
    20  H   -0.149526
    21  H   -0.084070
    22  H   -0.118382
 Sum of Mulliken atomic charges =   0.00000

 Dipole moment (field-independent basis, Debye):
    X=              3.1719    Y=              2.4174    Z=              4.6096  Tot=              6.0953
 Quadrupole moment (field-independent basis, Debye-Ang):
   XX=            -55.4446   YY=            -62.2760   ZZ=            -63.4795
   XY=              5.8061   XZ=             -6.8237   YZ=             -3.2687

 Normal termination of Gaussian 09 at Mon Feb 13 11:29:51 2017.
