 Gaussian 09, Revision A.02,
 Gaussian 09:  EM64L-G09RevA.02 11-Jun-2009

 -------------------
 #SP MP2/aug-cc-pVDZ
 -------------------

 -------------------------------
 Single Point calculation at MP2
 -------------------------------
 Symbolic Z-matrix:
 Charge =  0 Multiplicity = 1

                         Standard orientation:
 ---------------------------------------------------------------------
 Center     Atomic      Atomic             Coordinates (Angstroms)
 Number     Number       Type             X           Y           Z
 ---------------------------------------------------------------------
      1          1           0        3.472024   -1.658259   -0.690801
      2          6           0        3.216411   -0.595762   -0.706201
      3          1           0        3.122807   -0.260663   -1.744001
      4          1           0        4.044104   -0.051852   -0.237401
      5          6           0        1.958208   -0.379377    0.118399
      6          8           0        1.792415   -0.917779    1.211199
      7          7           0        1.010099    0.431611   -0.438001
      8          1           0        1.204393    0.860913   -1.332801
      9          6           0       -0.108808    0.984597    0.329399
     10          1           0        0.126494    0.772500    1.378999
     11          6           0       -0.234027    2.490696    0.109899
     12          1           0       -0.416829    2.721894   -0.945801
     13          1           0       -1.084131    2.879985    0.673499
     14          1           0        0.679067    3.000007    0.433899
     15          6           0       -1.439999    0.260781    0.009499
     16          8           0       -2.482407    0.872668   -0.193001
     17          7           0       -1.330783   -1.097318   -0.027001
     18          1           0       -0.464078   -1.501607    0.307799
     19          6           0       -2.484372   -1.962732   -0.194801
     20          1           0       -3.301880   -1.353842   -0.583101
     21          1           0       -2.260762   -2.766829   -0.904301
     22          1           0       -2.800967   -2.410636    0.756299
 ---------------------------------------------------------------------

 SCF Done:  E(RHF) =  -492.925993443     A.U. after   14 cycles
 E2 =    -0.1601720506D+01 EUMP2 =    -0.49452771394822D+03

 The electronic state is 1-A.
 Alpha  occ. eigenvalues --  -20.54302 -20.52969 -15.60955 -15.58639 -11.37654
 Alpha  occ. eigenvalues --  -11.35558 -11.29413 -11.26268 -11.25900 -11.23527
 Alpha  occ. eigenvalues --   -1.39711  -1.38116  -1.25310  -1.22290  -1.05930
 Alpha  occ. eigenvalues --   -0.99992  -0.95857  -0.87408  -0.81076  -0.78170
 Alpha  occ. eigenvalues --   -0.72662  -0.68694  -0.67012  -0.64240  -0.62184
 Alpha  occ. eigenvalues --   -0.61662  -0.59962  -0.59196  -0.58167  -0.54918
 Alpha  occ. eigenvalues --   -0.54392  -0.53544  -0.53194  -0.52224  -0.50736
 Alpha  occ. eigenvalues --   -0.44489  -0.43773  -0.39971  -0.38135
 Alpha virt. eigenvalues --    0.02523   0.03920   0.04378   0.04489   0.05808
 Alpha virt. eigenvalues --    0.05937   0.06411   0.06782   0.07127   0.08043
 Alpha virt. eigenvalues --    0.09312   0.09724   0.11154   0.12057   0.12495

 Mulliken atomic charges:
              1
     1  H    0.032128
     2  C    0.371684
     3  H   -0.128987
     4  H    0.068537
     5  C    0.555964
     6  O   -0.878774
     7  N   -0.271121
     8  H   -0.096904
     9  C   -0.233837
    10  H   -0.099614
    11  C    0.834149
    12  H   -0.050529
    13  H   -0.029850
    14  H   -0.031481
    15  C    1.028357
    16  O   -0.807262
    17  N   -0.534680
    18  H   -0.108573
    19  C    0.737909
    20  H   -0.153071
    21  H   -0.127079
    22  H   -0.076963
 Sum of Mulliken atomic charges =   0.00000

 Dipole moment (field-independent basis, Debye):
    X=              3.1486    Y=             -0.2144    Z=             -2.4625  Tot=              4.0029
 Quadrupole moment (field-independent basis, Debye-Ang):
   XX=            -65.2037   YY=            -58.7095   ZZ=            -62.5587
   XY=              9.0090   XZ=             -8.2144   YZ=              2.8548

 Normal termination of Gaussian 09 at Mon Feb 13 10:20:14 2017.
