 Gaussian 09, Revision A.02,
 Gaussian 09:  EM64L-G09RevA.02 11-Jun-2009

 -------------------
 #SP MP2/aug-cc-pVDZ
 -------------------

 -------------------------------
 Single Point calculation at MP2
 -------------------------------
 Symbolic Z-matrix:
 Charge =  0 Multiplicity = 1

                         Standard orientation:
 ---------------------------------------------------------------------
 Center     Atomic      Atomic             Coordinates (Angstroms)
 Number     Number       Type             X           Y           Z
 ---------------------------------------------------------------------
      1          1           0       -4.112305   -0.655783    0.368101
      2          6           0       -3.142705   -0.824186    0.846001
      3          1           0       -3.068709   -1.894287    1.064801
      4          1           0       -3.106203   -0.264886    1.785801
      5          6           0       -2.043704   -0.446190   -0.135199
      6          8           0       -1.984306   -0.930990   -1.259799
      7          7           0       -1.148601    0.487707    0.319501
      8          1           0       -1.121200    0.704707    1.307701
      9          6           0        0.043500    0.845602   -0.441199
     10          1           0       -0.117601    0.440003   -1.442799
     11          6           0        0.229306    2.365402   -0.500999
     12          1           0        0.393607    2.766501    0.504201
     13          1           0        1.100907    2.623099   -1.113299
     14          1           0       -0.656693    2.837405   -0.935999
     15          6           0        1.258298    0.191498    0.240001
     16          8           0        1.541999    0.464997    1.403201
     17          7           0        1.965195   -0.679704   -0.530499
     18          1           0        1.590794   -0.924303   -1.436399
     19          6           0        3.108092   -1.422908   -0.026799
     20          1           0        3.374094   -0.997109    0.941501
     21          1           0        2.869589   -2.485408    0.105701
     22          1           0        3.959293   -1.333311   -0.710399
 ---------------------------------------------------------------------

 SCF Done:  E(RHF) =  -492.927734676     A.U. after   14 cycles
 E2 =    -0.1600156756D+01 EUMP2 =    -0.49452789143188D+03

 The electronic state is 1-A.
 Alpha  occ. eigenvalues --  -20.53382 -20.53192 -15.60239 -15.59821 -11.36623
 Alpha  occ. eigenvalues --  -11.36214 -11.29069 -11.27128 -11.24821 -11.23634
 Alpha  occ. eigenvalues --   -1.39077  -1.38307  -1.24232  -1.23562  -1.05629
 Alpha  occ. eigenvalues --   -0.99323  -0.96334  -0.87540  -0.80222  -0.79027
 Alpha  occ. eigenvalues --   -0.73183  -0.67655  -0.66044  -0.64284  -0.62339
 Alpha  occ. eigenvalues --   -0.62007  -0.60189  -0.58545  -0.57597  -0.56576
 Alpha  occ. eigenvalues --   -0.55031  -0.53686  -0.52074  -0.51892  -0.50684
 Alpha  occ. eigenvalues --   -0.43790  -0.42731  -0.39928  -0.39017
 Alpha virt. eigenvalues --    0.03162   0.03704   0.04274   0.05023   0.05587
 Alpha virt. eigenvalues --    0.05954   0.06124   0.07231   0.07383   0.07613
 Alpha virt. eigenvalues --    0.08995   0.09412   0.11474   0.11937   0.12308

 Mulliken atomic charges:
              1
     1  H    0.040845
     2  C    0.395087
     3  H    0.047357
     4  H   -0.159942
     5  C    0.614294
     6  O   -0.864837
     7  N   -0.227437
     8  H   -0.079198
     9  C   -0.331828
    10  H   -0.262167
    11  C    0.814797
    12  H   -0.017200
    13  H   -0.040395
    14  H   -0.043818
    15  C    1.219187
    16  O   -0.867819
    17  N   -0.511966
    18  H   -0.090522
    19  C    0.716407
    20  H   -0.142207
    21  H   -0.087814
    22  H   -0.120822
 Sum of Mulliken atomic charges =   0.00000

 Dipole moment (field-independent basis, Debye):
    X=              0.3495    Y=              0.0455    Z=             -0.0714  Tot=              0.3596
 Quadrupole moment (field-independent basis, Debye-Ang):
   XX=            -57.2377   YY=            -59.7447   ZZ=            -65.8011
   XY=             -6.2101   XZ=            -13.6631   YZ=             -3.9054

 Normal termination of Gaussian 09 at Mon Feb 13 09:11:59 2017.
