 Gaussian 09, Revision A.02,
 Gaussian 09:  EM64L-G09RevA.02 11-Jun-2009

 -------------------------------------------
 # HF/6-31G* Opt=(ModRedundant) geom=nocrowd
 -------------------------------------------

 ------------------
 Phi Psi fixed scan
 ------------------
 Symbolic Z-matrix:
 Charge =  0 Multiplicity = 1

 SCF Done:  E(RHF) =  -492.832531656     A.U. after   15 cycles
 SCF Done:  E(RHF) =  -492.844202872     A.U. after   14 cycles
 SCF Done:  E(RHF) =  -492.847498581     A.U. after   14 cycles
 SCF Done:  E(RHF) =  -492.847928733     A.U. after   13 cycles
 SCF Done:  E(RHF) =  -492.848271468     A.U. after   13 cycles
 SCF Done:  E(RHF) =  -492.848672301     A.U. after   13 cycles
 SCF Done:  E(RHF) =  -492.848913865     A.U. after   13 cycles
 SCF Done:  E(RHF) =  -492.849153207     A.U. after   12 cycles
 SCF Done:  E(RHF) =  -492.849191825     A.U. after   11 cycles
 SCF Done:  E(RHF) =  -492.849212599     A.U. after   11 cycles
 SCF Done:  E(RHF) =  -492.849643203     A.U. after   12 cycles
 SCF Done:  E(RHF) =  -492.849602831     A.U. after   12 cycles
 SCF Done:  E(RHF) =  -492.849593156     A.U. after   11 cycles
 SCF Done:  E(RHF) =  -492.849634206     A.U. after   11 cycles
 SCF Done:  E(RHF) =  -492.849680913     A.U. after   11 cycles
 SCF Done:  E(RHF) =  -492.849698305     A.U. after   11 cycles
 SCF Done:  E(RHF) =  -492.849697917     A.U. after   10 cycles
 SCF Done:  E(RHF) =  -492.849699517     A.U. after   10 cycles
 SCF Done:  E(RHF) =  -492.849700306     A.U. after    9 cycles
 SCF Done:  E(RHF) =  -492.849700341     A.U. after    7 cycles
 Optimization completed.
    -- Stationary point found.

                         Standard orientation:
 ---------------------------------------------------------------------
 Center     Atomic      Atomic             Coordinates (Angstroms)
 Number     Number       Type             X           Y           Z
 ---------------------------------------------------------------------
      1          1           0        4.090772   -0.991994   -0.447226
      2          6           0        3.092298   -0.966878   -0.858168
      3          1           0        2.708684   -1.981446   -0.907950
      4          1           0        3.120368   -0.563453   -1.864554
      5          6           0        2.203742   -0.150956    0.054116
      6          8           0        2.493201    0.083095    1.191644
      7          7           0        1.057374    0.310765   -0.529045
      8          1           0        0.833434   -0.059178   -1.426258
      9          6           0       -0.049672    0.803738    0.266094
     10          1           0        0.308070    0.839380    1.284089
     11          6           0       -0.446691    2.213082   -0.171562
     12          1           0       -0.768388    2.241041   -1.208892
     13          1           0       -1.240018    2.616873    0.450956
     14          1           0        0.412220    2.865014   -0.076338
     15          6           0       -1.160423   -0.259592    0.260868
     16          8           0       -0.925641   -1.373336    0.642954
     17          7           0       -2.365477    0.087739   -0.237981
     18          1           0       -2.554732    1.037823   -0.448518
     19          6           0       -3.474513   -0.843899   -0.218134
     20          1           0       -3.183653   -1.775197   -0.682468
     21          1           0       -3.801412   -1.055678    0.793485
     22          1           0       -4.297545   -0.413754   -0.773221
 ---------------------------------------------------------------------

 The electronic state is 1-A.
 Alpha  occ. eigenvalues --  -20.52272 -20.52013 -15.59259 -15.58360 -11.34617
 Alpha  occ. eigenvalues --  -11.34498 -11.27819 -11.26235 -11.23413 -11.22811
 Alpha  occ. eigenvalues --   -1.39602  -1.38655  -1.24024  -1.23414  -1.05699
 Alpha  occ. eigenvalues --   -0.99182  -0.95936  -0.88829  -0.79642  -0.79248
 Alpha  occ. eigenvalues --   -0.73124  -0.67061  -0.65553  -0.64916  -0.62732
 Alpha  occ. eigenvalues --   -0.61746  -0.59039  -0.58960  -0.57426  -0.56346
 Alpha  occ. eigenvalues --   -0.55877  -0.54791  -0.53235  -0.51721  -0.49984
 Alpha  occ. eigenvalues --   -0.42898  -0.41389  -0.39462  -0.38454
 Alpha virt. eigenvalues --    0.18524   0.20618   0.22309   0.23591   0.25717
 Alpha virt. eigenvalues --    0.27819   0.28472   0.29811   0.30514   0.31379
 Alpha virt. eigenvalues --    0.32237   0.33309   0.33696   0.34571   0.37880

 Mulliken atomic charges:
              1
     1  H    0.213995
     2  C   -0.593536
     3  H    0.206199
     4  H    0.175136
     5  C    0.756623
     6  O   -0.593703
     7  N   -0.781063
     8  H    0.378764
     9  C   -0.055126
    10  H    0.262689
    11  C   -0.505060
    12  H    0.158331
    13  H    0.164196
    14  H    0.203921
    15  C    0.741697
    16  O   -0.605243
    17  N   -0.805464
    18  H    0.396946
    19  C   -0.271022
    20  H    0.200427
    21  H    0.184488
    22  H    0.166805
 Sum of Mulliken atomic charges =   0.00000

 Dipole moment (field-independent basis, Debye):
    X=             -3.1901    Y=              2.2930    Z=             -4.3331  Tot=              5.8489
 Quadrupole moment (field-independent basis, Debye-Ang):
   XX=            -54.5583   YY=            -61.5386   ZZ=            -62.4220
   XY=             -5.6381   XZ=             -6.2979   YZ=              3.1951

 Normal termination of Gaussian 09 at Fri Feb 10 15:10:45 2017.
