 Gaussian 09, Revision A.02,
 Gaussian 09:  EM64L-G09RevA.02 11-Jun-2009

 -------------------------------------------
 # HF/6-31G* Opt=(ModRedundant) geom=nocrowd
 -------------------------------------------

 ------------------
 Phi Psi fixed scan
 ------------------
 Symbolic Z-matrix:
 Charge =  0 Multiplicity = 1

 SCF Done:  E(RHF) =  -492.839479419     A.U. after   15 cycles
 SCF Done:  E(RHF) =  -492.847594111     A.U. after   13 cycles
 SCF Done:  E(RHF) =  -492.848234543     A.U. after   13 cycles
 SCF Done:  E(RHF) =  -492.848159352     A.U. after   12 cycles
 SCF Done:  E(RHF) =  -492.848356562     A.U. after   11 cycles
 SCF Done:  E(RHF) =  -492.848371551     A.U. after   11 cycles
 SCF Done:  E(RHF) =  -492.848400457     A.U. after   12 cycles
 SCF Done:  E(RHF) =  -492.848468395     A.U. after   13 cycles
 SCF Done:  E(RHF) =  -492.848538203     A.U. after   13 cycles
 SCF Done:  E(RHF) =  -492.848478980     A.U. after   14 cycles
 SCF Done:  E(RHF) =  -492.849309547     A.U. after   10 cycles
 SCF Done:  E(RHF) =  -492.849311860     A.U. after   10 cycles
 SCF Done:  E(RHF) =  -492.849320710     A.U. after   11 cycles
 SCF Done:  E(RHF) =  -492.849330549     A.U. after   11 cycles
 SCF Done:  E(RHF) =  -492.849331933     A.U. after   11 cycles
 SCF Done:  E(RHF) =  -492.849338729     A.U. after   11 cycles
 SCF Done:  E(RHF) =  -492.849344036     A.U. after   11 cycles
 SCF Done:  E(RHF) =  -492.849344148     A.U. after   10 cycles
 SCF Done:  E(RHF) =  -492.849344532     A.U. after   10 cycles
 SCF Done:  E(RHF) =  -492.849344545     A.U. after    8 cycles
 Optimization completed.
    -- Stationary point found.

                         Standard orientation:
 ---------------------------------------------------------------------
 Center     Atomic      Atomic             Coordinates (Angstroms)
 Number     Number       Type             X           Y           Z
 ---------------------------------------------------------------------
      1          1           0        3.843758   -1.538978   -0.106022
      2          6           0        3.180617   -0.944126   -0.716426
      3          1           0        2.756717   -1.560075   -1.501922
      4          1           0        3.756374   -0.149144   -1.181414
      5          6           0        2.110048   -0.341586    0.169305
      6          8           0        2.230189   -0.261999    1.356117
      7          7           0        1.005865    0.108560   -0.498419
      8          1           0        1.078663    0.166738   -1.489950
      9          6           0       -0.022273    0.911327    0.146749
     10          1           0        0.354679    1.186757    1.118171
     11          6           0       -0.332942    2.166989   -0.667871
     12          1           0       -0.669958    1.924632   -1.671350
     13          1           0       -1.115206    2.742762   -0.187100
     14          1           0        0.552698    2.788179   -0.743022
     15          6           0       -1.291969    0.104356    0.433162
     16          8           0       -1.754481    0.050867    1.536630
     17          7           0       -1.915304   -0.438124   -0.646594
     18          1           0       -1.363042   -0.592612   -1.458804
     19          6           0       -3.065360   -1.301480   -0.468610
     20          1           0       -3.788373   -0.807664    0.162618
     21          1           0       -3.512851   -1.488392   -1.436254
     22          1           0       -2.801767   -2.249092   -0.009686
 ---------------------------------------------------------------------

 The electronic state is 1-A.
 Alpha  occ. eigenvalues --  -20.53032 -20.52369 -15.59553 -15.58351 -11.35535
 Alpha  occ. eigenvalues --  -11.33974 -11.27799 -11.25595 -11.23954 -11.23702
 Alpha  occ. eigenvalues --   -1.40004  -1.39049  -1.24998  -1.22594  -1.06120
 Alpha  occ. eigenvalues --   -0.99927  -0.95615  -0.88627  -0.80498  -0.78572
 Alpha  occ. eigenvalues --   -0.72439  -0.67907  -0.67119  -0.63608  -0.62769
 Alpha  occ. eigenvalues --   -0.62276  -0.59236  -0.59192  -0.58372  -0.56730
 Alpha  occ. eigenvalues --   -0.55430  -0.54756  -0.53053  -0.51777  -0.50764
 Alpha  occ. eigenvalues --   -0.43922  -0.42335  -0.39039  -0.38555
 Alpha virt. eigenvalues --    0.18619   0.19657   0.20266   0.24207   0.26043
 Alpha virt. eigenvalues --    0.27002   0.28618   0.29736   0.30598   0.31068
 Alpha virt. eigenvalues --    0.31603   0.33295   0.33492   0.34566   0.37162

 Mulliken atomic charges:
              1
     1  H    0.221151
     2  C   -0.592368
     3  H    0.177892
     4  H    0.194386
     5  C    0.745264
     6  O   -0.578049
     7  N   -0.815363
     8  H    0.373860
     9  C   -0.071346
    10  H    0.265042
    11  C   -0.495726
    12  H    0.156334
    13  H    0.198610
    14  H    0.182479
    15  C    0.773156
    16  O   -0.594288
    17  N   -0.779811
    18  H    0.370028
    19  C   -0.279121
    20  H    0.207119
    21  H    0.165492
    22  H    0.175260
 Sum of Mulliken atomic charges =   0.00000

 Dipole moment (field-independent basis, Debye):
    X=              0.5491    Y=             -0.0332    Z=             -7.0014  Tot=              7.0229
 Quadrupole moment (field-independent basis, Debye-Ang):
   XX=            -59.9876   YY=            -56.4849   ZZ=            -66.3012
   XY=              1.8300   XZ=             -2.0957   YZ=              2.1084

 Normal termination of Gaussian 09 at Fri Feb 10 15:23:57 2017.
