 Gaussian 09, Revision A.02,
 Gaussian 09:  EM64L-G09RevA.02 11-Jun-2009

 -------------------------------------------
 # HF/6-31G* Opt=(ModRedundant) geom=nocrowd
 -------------------------------------------

 ------------------
 Phi Psi fixed scan
 ------------------
 Symbolic Z-matrix:
 Charge =  0 Multiplicity = 1

 SCF Done:  E(RHF) =  -492.852227951     A.U. after   15 cycles
 SCF Done:  E(RHF) =  -492.857800660     A.U. after   13 cycles
 SCF Done:  E(RHF) =  -492.858107150     A.U. after   13 cycles
 SCF Done:  E(RHF) =  -492.858468840     A.U. after   13 cycles
 SCF Done:  E(RHF) =  -492.858674617     A.U. after   12 cycles
 SCF Done:  E(RHF) =  -492.858787826     A.U. after   13 cycles
 SCF Done:  E(RHF) =  -492.858798978     A.U. after    9 cycles
 SCF Done:  E(RHF) =  -492.858817908     A.U. after   11 cycles
 SCF Done:  E(RHF) =  -492.858828535     A.U. after   11 cycles
 SCF Done:  E(RHF) =  -492.858847654     A.U. after   11 cycles
 SCF Done:  E(RHF) =  -492.859171331     A.U. after   11 cycles
 SCF Done:  E(RHF) =  -492.859178960     A.U. after   11 cycles
 SCF Done:  E(RHF) =  -492.859180512     A.U. after   10 cycles
 SCF Done:  E(RHF) =  -492.859181220     A.U. after    9 cycles
 SCF Done:  E(RHF) =  -492.859181434     A.U. after    8 cycles
 SCF Done:  E(RHF) =  -492.859181807     A.U. after    9 cycles
 SCF Done:  E(RHF) =  -492.859182228     A.U. after   10 cycles
 SCF Done:  E(RHF) =  -492.859182633     A.U. after   10 cycles
 SCF Done:  E(RHF) =  -492.859182816     A.U. after    8 cycles
 SCF Done:  E(RHF) =  -492.859182837     A.U. after    7 cycles
 Optimization completed.
    -- Stationary point found.

                         Standard orientation:
 ---------------------------------------------------------------------
 Center     Atomic      Atomic             Coordinates (Angstroms)
 Number     Number       Type             X           Y           Z
 ---------------------------------------------------------------------
      1          1           0       -3.995029   -1.144421    0.284730
      2          6           0       -3.127327   -0.813067    0.836777
      3          1           0       -2.780559   -1.635274    1.455347
      4          1           0       -3.397913    0.011705    1.485497
      5          6           0       -2.036348   -0.442663   -0.144138
      6          8           0       -1.966846   -0.939360   -1.236346
      7          7           0       -1.143854    0.473453    0.306669
      8          1           0       -1.160564    0.730616    1.268604
      9          6           0        0.041954    0.841504   -0.439295
     10          1           0       -0.098424    0.466406   -1.440570
     11          6           0        0.221912    2.357759   -0.472970
     12          1           0        0.339045    2.749680    0.530189
     13          1           0        1.105552    2.625259   -1.043691
     14          1           0       -0.641804    2.820862   -0.935375
     15          6           0        1.252984    0.188315    0.225131
     16          8           0        1.535105    0.445115    1.366911
     17          7           0        1.964491   -0.660248   -0.539522
     18          1           0        1.574244   -0.952550   -1.405780
     19          6           0        3.085192   -1.404731   -0.004643
     20          1           0        3.724473   -0.740931    0.558146
     21          1           0        2.761718   -2.206942    0.649980
     22          1           0        3.648522   -1.825584   -0.826795
 ---------------------------------------------------------------------

 The electronic state is 1-A.
 Alpha  occ. eigenvalues --  -20.52460 -20.52391 -15.59059 -15.58701 -11.35123
 Alpha  occ. eigenvalues --  -11.34453 -11.27754 -11.25953 -11.23325 -11.22388
 Alpha  occ. eigenvalues --   -1.39671  -1.38926  -1.24197  -1.23512  -1.05683
 Alpha  occ. eigenvalues --   -0.99353  -0.96373  -0.87637  -0.80188  -0.78966
 Alpha  occ. eigenvalues --   -0.73230  -0.67462  -0.66202  -0.64424  -0.62370
 Alpha  occ. eigenvalues --   -0.62259  -0.60087  -0.58527  -0.57680  -0.56572
 Alpha  occ. eigenvalues --   -0.55539  -0.53792  -0.52231  -0.51889  -0.50664
 Alpha  occ. eigenvalues --   -0.43172  -0.42037  -0.39547  -0.38267
 Alpha virt. eigenvalues --    0.19197   0.20844   0.22355   0.23137   0.26638
 Alpha virt. eigenvalues --    0.26826   0.28827   0.30244   0.30961   0.31680
 Alpha virt. eigenvalues --    0.32539   0.33298   0.34119   0.35216   0.37810

 Mulliken atomic charges:
              1
     1  H    0.213570
     2  C   -0.585140
     3  H    0.201468
     4  H    0.178651
     5  C    0.745930
     6  O   -0.613593
     7  N   -0.790776
     8  H    0.397683
     9  C   -0.066937
    10  H    0.230878
    11  C   -0.484317
    12  H    0.188626
    13  H    0.172232
    14  H    0.181524
    15  C    0.780851
    16  O   -0.633630
    17  N   -0.792175
    18  H    0.396415
    19  C   -0.277188
    20  H    0.205490
    21  H    0.178716
    22  H    0.171724
 Sum of Mulliken atomic charges =   0.00000

 Dipole moment (field-independent basis, Debye):
    X=              0.2601    Y=              0.0119    Z=             -0.0721  Tot=              0.2702
 Quadrupole moment (field-independent basis, Debye-Ang):
   XX=            -56.8525   YY=            -58.7261   ZZ=            -64.5347
   XY=             -6.2450   XZ=            -12.8754   YZ=             -3.2451

 Normal termination of Gaussian 09 at Fri Feb 10 14:35:19 2017.
