 Gaussian 09, Revision A.02,
 Gaussian 09:  EM64L-G09RevA.02 11-Jun-2009

 -------------------------------------------
 # HF/6-31G* Opt=(ModRedundant) geom=nocrowd
 -------------------------------------------

 ------------------
 Phi Psi fixed scan
 ------------------
 Symbolic Z-matrix:
 Charge =  0 Multiplicity = 1

 SCF Done:  E(RHF) =  -492.849926328     A.U. after   15 cycles
 SCF Done:  E(RHF) =  -492.856750799     A.U. after   14 cycles
 SCF Done:  E(RHF) =  -492.857267119     A.U. after   13 cycles
 SCF Done:  E(RHF) =  -492.857336732     A.U. after   13 cycles
 SCF Done:  E(RHF) =  -492.857694390     A.U. after   11 cycles
 SCF Done:  E(RHF) =  -492.857775982     A.U. after   13 cycles
 SCF Done:  E(RHF) =  -492.857823049     A.U. after   13 cycles
 SCF Done:  E(RHF) =  -492.857865969     A.U. after   12 cycles
 SCF Done:  E(RHF) =  -492.857915289     A.U. after   11 cycles
 SCF Done:  E(RHF) =  -492.857974961     A.U. after   12 cycles
 SCF Done:  E(RHF) =  -492.858277867     A.U. after   12 cycles
 SCF Done:  E(RHF) =  -492.858333855     A.U. after   11 cycles
 SCF Done:  E(RHF) =  -492.858350828     A.U. after   11 cycles
 SCF Done:  E(RHF) =  -492.858365107     A.U. after   11 cycles
 SCF Done:  E(RHF) =  -492.858377806     A.U. after   11 cycles
 SCF Done:  E(RHF) =  -492.858384408     A.U. after   10 cycles
 SCF Done:  E(RHF) =  -492.858394507     A.U. after   11 cycles
 SCF Done:  E(RHF) =  -492.858398990     A.U. after   10 cycles
 SCF Done:  E(RHF) =  -492.858400159     A.U. after   10 cycles
 SCF Done:  E(RHF) =  -492.858400208     A.U. after    8 cycles
 Optimization completed.
    -- Stationary point found.

                         Standard orientation:
 ---------------------------------------------------------------------
 Center     Atomic      Atomic             Coordinates (Angstroms)
 Number     Number       Type             X           Y           Z
 ---------------------------------------------------------------------
      1          1           0        3.629416   -1.571735   -0.447009
      2          6           0        3.192777   -0.620439   -0.714306
      3          1           0        2.982316   -0.600345   -1.777456
      4          1           0        3.912814    0.161694   -0.494378
      5          6           0        1.953921   -0.395466    0.124058
      6          8           0        1.812281   -0.905410    1.204890
      7          7           0        1.016216    0.413165   -0.421795
      8          1           0        1.196872    0.807800   -1.317255
      9          6           0       -0.098430    0.968547    0.330009
     10          1           0        0.110055    0.772115    1.373828
     11          6           0       -0.207067    2.471631    0.102463
     12          1           0       -0.393232    2.696478   -0.942614
     13          1           0       -1.028963    2.880833    0.672231
     14          1           0        0.713370    2.957098    0.407750
     15          6           0       -1.419668    0.258400    0.003237
     16          8           0       -2.435538    0.869817   -0.190506
     17          7           0       -1.350145   -1.087605   -0.037553
     18          1           0       -0.525382   -1.520987    0.312985
     19          6           0       -2.543340   -1.893057   -0.180542
     20          1           0       -3.128363   -1.533557   -1.014451
     21          1           0       -2.250162   -2.916898   -0.371799
     22          1           0       -3.164340   -1.864368    0.709024
 ---------------------------------------------------------------------

 The electronic state is 1-A.
 Alpha  occ. eigenvalues --  -20.53505 -20.52149 -15.59748 -15.57598 -11.36127
 Alpha  occ. eigenvalues --  -11.33915 -11.28068 -11.25189 -11.24328 -11.22270
 Alpha  occ. eigenvalues --   -1.40391  -1.38824  -1.25265  -1.22244  -1.05914
 Alpha  occ. eigenvalues --   -0.99931  -0.95916  -0.87576  -0.80928  -0.78153
 Alpha  occ. eigenvalues --   -0.72916  -0.68508  -0.67080  -0.64140  -0.62469
 Alpha  occ. eigenvalues --   -0.61884  -0.59889  -0.59161  -0.58286  -0.55138
 Alpha  occ. eigenvalues --   -0.54715  -0.53640  -0.53227  -0.52394  -0.50583
 Alpha  occ. eigenvalues --   -0.44021  -0.43024  -0.39430  -0.37610
 Alpha virt. eigenvalues --    0.18488   0.20299   0.22018   0.24759   0.25875
 Alpha virt. eigenvalues --    0.27379   0.28694   0.29678   0.30638   0.31644
 Alpha virt. eigenvalues --    0.32718   0.33274   0.33792   0.34803   0.37761

 Mulliken atomic charges:
              1
     1  H    0.216224
     2  C   -0.583133
     3  H    0.178057
     4  H    0.204167
     5  C    0.741858
     6  O   -0.619082
     7  N   -0.792097
     8  H    0.387793
     9  C   -0.083292
    10  H    0.244250
    11  C   -0.477463
    12  H    0.167838
    13  H    0.205536
    14  H    0.167319
    15  C    0.774132
    16  O   -0.617705
    17  N   -0.792856
    18  H    0.409195
    19  C   -0.272737
    20  H    0.198604
    21  H    0.168528
    22  H    0.174865
 Sum of Mulliken atomic charges =   0.00000

 Dipole moment (field-independent basis, Debye):
    X=              2.8678    Y=             -0.3395    Z=             -2.3083  Tot=              3.6970
 Quadrupole moment (field-independent basis, Debye-Ang):
   XX=            -64.3736   YY=            -57.8073   ZZ=            -61.4797
   XY=              8.9211   XZ=             -7.8936   YZ=              2.5087

 Normal termination of Gaussian 09 at Fri Feb 10 14:10:21 2017.
