 Gaussian 09, Revision A.02,
 Gaussian 09:  EM64L-G09RevA.02 11-Jun-2009

 -------------------------------------------
 # HF/6-31G* Opt=(ModRedundant) geom=nocrowd
 -------------------------------------------

 ------------------
 Phi Psi fixed scan
 ------------------
 Symbolic Z-matrix:
 Charge =  0 Multiplicity = 1

 SCF Done:  E(RHF) =  -492.847225149     A.U. after   15 cycles
 SCF Done:  E(RHF) =  -492.854558308     A.U. after   14 cycles
 SCF Done:  E(RHF) =  -492.855909814     A.U. after   13 cycles
 SCF Done:  E(RHF) =  -492.856269893     A.U. after   13 cycles
 SCF Done:  E(RHF) =  -492.856378611     A.U. after   13 cycles
 SCF Done:  E(RHF) =  -492.856565552     A.U. after   12 cycles
 SCF Done:  E(RHF) =  -492.856574719     A.U. after   12 cycles
 SCF Done:  E(RHF) =  -492.856644350     A.U. after   11 cycles
 SCF Done:  E(RHF) =  -492.856667798     A.U. after   10 cycles
 SCF Done:  E(RHF) =  -492.856707140     A.U. after   11 cycles
 SCF Done:  E(RHF) =  -492.857000718     A.U. after   12 cycles
 SCF Done:  E(RHF) =  -492.857018615     A.U. after   12 cycles
 SCF Done:  E(RHF) =  -492.857033945     A.U. after   10 cycles
 SCF Done:  E(RHF) =  -492.857057481     A.U. after   11 cycles
 SCF Done:  E(RHF) =  -492.857067834     A.U. after   11 cycles
 SCF Done:  E(RHF) =  -492.857085018     A.U. after   11 cycles
 SCF Done:  E(RHF) =  -492.857094396     A.U. after   11 cycles
 SCF Done:  E(RHF) =  -492.857095909     A.U. after   11 cycles
 SCF Done:  E(RHF) =  -492.857098970     A.U. after   11 cycles
 SCF Done:  E(RHF) =  -492.857099720     A.U. after   10 cycles
 Optimization completed.
    -- Stationary point found.

                         Standard orientation:
 ---------------------------------------------------------------------
 Center     Atomic      Atomic             Coordinates (Angstroms)
 Number     Number       Type             X           Y           Z
 ---------------------------------------------------------------------
      1          1           0        3.704488   -1.594948   -0.041668
      2          6           0        3.194708   -0.809562   -0.580371
      3          1           0        2.903672   -1.168242   -1.561450
      4          1           0        3.883609    0.019237   -0.712560
      5          6           0        2.010322   -0.341806    0.238457
      6          8           0        1.962931   -0.475318    1.427721
      7          7           0        1.009536    0.246665   -0.476567
      8          1           0        1.177817    0.425555   -1.441522
      9          6           0       -0.076758    0.979204    0.151845
     10          1           0        0.192279    1.114996    1.189453
     11          6           0       -0.260046    2.346793   -0.507042
     12          1           0       -0.498262    2.243069   -1.562747
     13          1           0       -1.070719    2.879166   -0.031456
     14          1           0        0.649967    2.929348   -0.415840
     15          6           0       -1.414170    0.233484    0.177503
     16          8           0       -2.378472    0.768255    0.657704
     17          7           0       -1.451046   -0.994578   -0.370004
     18          1           0       -0.587387   -1.424342   -0.602012
     19          6           0       -2.638551   -1.816243   -0.278170
     20          1           0       -3.502400   -1.241636   -0.578080
     21          1           0       -2.528623   -2.662500   -0.943740
     22          1           0       -2.802565   -2.179028    0.730888
 ---------------------------------------------------------------------

 The electronic state is 1-A.
 Alpha  occ. eigenvalues --  -20.53498 -20.51594 -15.59839 -15.58155 -11.36053
 Alpha  occ. eigenvalues --  -11.33892 -11.27941 -11.25460 -11.24400 -11.22803
 Alpha  occ. eigenvalues --   -1.40442  -1.38579  -1.25416  -1.22471  -1.05960
 Alpha  occ. eigenvalues --   -1.00042  -0.96013  -0.87992  -0.80837  -0.78565
 Alpha  occ. eigenvalues --   -0.73087  -0.68394  -0.67288  -0.63442  -0.62531
 Alpha  occ. eigenvalues --   -0.62304  -0.59678  -0.59284  -0.58439  -0.55910
 Alpha  occ. eigenvalues --   -0.55076  -0.54682  -0.53347  -0.52228  -0.49531
 Alpha  occ. eigenvalues --   -0.44069  -0.42865  -0.39059  -0.38268
 Alpha virt. eigenvalues --    0.19203   0.19785   0.20699   0.24613   0.25821
 Alpha virt. eigenvalues --    0.27770   0.28507   0.29495   0.30517   0.31275
 Alpha virt. eigenvalues --    0.32345   0.32988   0.33839   0.34936   0.37585

 Mulliken atomic charges:
              1
     1  H    0.218958
     2  C   -0.589007
     3  H    0.173952
     4  H    0.202976
     5  C    0.733492
     6  O   -0.586394
     7  N   -0.831967
     8  H    0.384941
     9  C   -0.035871
    10  H    0.256200
    11  C   -0.502698
    12  H    0.158002
    13  H    0.221938
    14  H    0.174330
    15  C    0.766626
    16  O   -0.624649
    17  N   -0.793639
    18  H    0.397924
    19  C   -0.273941
    20  H    0.202956
    21  H    0.165015
    22  H    0.180855
 Sum of Mulliken atomic charges =   0.00000

 Dipole moment (field-independent basis, Debye):
    X=              2.6484    Y=             -1.2136    Z=             -4.9110  Tot=              5.7101
 Quadrupole moment (field-independent basis, Debye-Ang):
   XX=            -64.5290   YY=            -55.9379   ZZ=            -64.0752
   XY=              6.4631   XZ=             -3.9738   YZ=              1.0142

 Normal termination of Gaussian 09 at Fri Feb 10 14:01:22 2017.
