 Gaussian 09, Revision A.02,
 Gaussian 09:  EM64L-G09RevA.02 11-Jun-2009

 -------------------------------------------
 # HF/6-31G* Opt=(ModRedundant) geom=nocrowd
 -------------------------------------------

 ------------------
 Phi Psi fixed scan
 ------------------
 Symbolic Z-matrix:
 Charge =  0 Multiplicity = 1

 SCF Done:  E(RHF) =  -492.842662435     A.U. after   15 cycles
 SCF Done:  E(RHF) =  -492.850910503     A.U. after   14 cycles
 SCF Done:  E(RHF) =  -492.852414029     A.U. after   13 cycles
 SCF Done:  E(RHF) =  -492.852986067     A.U. after   13 cycles
 SCF Done:  E(RHF) =  -492.853527170     A.U. after   13 cycles
 SCF Done:  E(RHF) =  -492.853881232     A.U. after   13 cycles
 SCF Done:  E(RHF) =  -492.853985726     A.U. after   12 cycles
 SCF Done:  E(RHF) =  -492.853934882     A.U. after   13 cycles
 SCF Done:  E(RHF) =  -492.854084855     A.U. after   12 cycles
 SCF Done:  E(RHF) =  -492.854169169     A.U. after   11 cycles
 SCF Done:  E(RHF) =  -492.854490040     A.U. after   13 cycles
 SCF Done:  E(RHF) =  -492.854636642     A.U. after   12 cycles
 SCF Done:  E(RHF) =  -492.854654176     A.U. after   12 cycles
 SCF Done:  E(RHF) =  -492.854672259     A.U. after   11 cycles
 SCF Done:  E(RHF) =  -492.854675775     A.U. after   10 cycles
 SCF Done:  E(RHF) =  -492.854677111     A.U. after   10 cycles
 SCF Done:  E(RHF) =  -492.854677408     A.U. after    9 cycles
 SCF Done:  E(RHF) =  -492.854677750     A.U. after    8 cycles
 SCF Done:  E(RHF) =  -492.854678166     A.U. after   10 cycles
 SCF Done:  E(RHF) =  -492.854678193     A.U. after    7 cycles
 Optimization completed.
    -- Stationary point found.

                         Standard orientation:
 ---------------------------------------------------------------------
 Center     Atomic      Atomic             Coordinates (Angstroms)
 Number     Number       Type             X           Y           Z
 ---------------------------------------------------------------------
      1          1           0        3.806548   -1.531856    0.087706
      2          6           0        3.214296   -0.893174   -0.550840
      3          1           0        2.876050   -1.452987   -1.415809
      4          1           0        3.839872   -0.076406   -0.898851
      5          6           0        2.059500   -0.332498    0.251668
      6          8           0        2.069576   -0.290739    1.446838
      7          7           0        1.007041    0.121740   -0.494712
      8          1           0        1.170847    0.224931   -1.472259
      9          6           0       -0.040832    0.950661    0.081668
     10          1           0        0.292338    1.269407    1.056748
     11          6           0       -0.312474    2.174558   -0.795476
     12          1           0       -0.636448    1.880398   -1.790032
     13          1           0       -1.092884    2.778873   -0.351994
     14          1           0        0.584516    2.777466   -0.886772
     15          6           0       -1.355746    0.208798    0.322268
     16          8           0       -2.128726    0.616763    1.144775
     17          7           0       -1.638845   -0.813034   -0.517572
     18          1           0       -0.866412   -1.244363   -0.970131
     19          6           0       -2.836796   -1.605048   -0.330815
     20          1           0       -3.689768   -0.949685   -0.238773
     21          1           0       -2.972466   -2.240508   -1.196466
     22          1           0       -2.784053   -2.224186    0.558874
 ---------------------------------------------------------------------

 The electronic state is 1-A.
 Alpha  occ. eigenvalues --  -20.53525 -20.51903 -15.59766 -15.58089 -11.35922
 Alpha  occ. eigenvalues --  -11.33829 -11.27819 -11.25426 -11.24298 -11.23420
 Alpha  occ. eigenvalues --   -1.40425  -1.38752  -1.25309  -1.22416  -1.06105
 Alpha  occ. eigenvalues --   -1.00124  -0.95751  -0.88252  -0.80656  -0.78315
 Alpha  occ. eigenvalues --   -0.72629  -0.68310  -0.67400  -0.63247  -0.62736
 Alpha  occ. eigenvalues --   -0.62418  -0.59347  -0.59319  -0.58475  -0.56452
 Alpha  occ. eigenvalues --   -0.55110  -0.54792  -0.53654  -0.52049  -0.49736
 Alpha  occ. eigenvalues --   -0.44024  -0.42801  -0.38942  -0.38717
 Alpha virt. eigenvalues --    0.19073   0.19869   0.20112   0.24886   0.25622
 Alpha virt. eigenvalues --    0.27562   0.28788   0.29567   0.30370   0.31329
 Alpha virt. eigenvalues --    0.31750   0.32953   0.33977   0.34139   0.37884

 Mulliken atomic charges:
              1
     1  H    0.220851
     2  C   -0.591577
     3  H    0.176687
     4  H    0.198300
     5  C    0.737774
     6  O   -0.578282
     7  N   -0.827890
     8  H    0.381213
     9  C   -0.039199
    10  H    0.256069
    11  C   -0.509479
    12  H    0.164157
    13  H    0.213426
    14  H    0.178409
    15  C    0.760108
    16  O   -0.611964
    17  N   -0.786648
    18  H    0.389218
    19  C   -0.278817
    20  H    0.204650
    21  H    0.165221
    22  H    0.177773
 Sum of Mulliken atomic charges =   0.00000

 Dipole moment (field-independent basis, Debye):
    X=              1.9734    Y=             -1.2011    Z=             -6.0203  Tot=              6.4484
 Quadrupole moment (field-independent basis, Debye-Ang):
   XX=            -62.0435   YY=            -55.6709   ZZ=            -66.0520
   XY=              4.4656   XZ=             -2.5543   YZ=              0.1560

 Normal termination of Gaussian 09 at Fri Feb 10 15:28:23 2017.
