 Gaussian 09, Revision A.02,
 Gaussian 09:  EM64L-G09RevA.02 11-Jun-2009

 -------------------------------------------
 # HF/6-31G* Opt=(ModRedundant) geom=nocrowd
 -------------------------------------------

 ------------------
 Phi Psi fixed scan
 ------------------
 Symbolic Z-matrix:
 Charge =  0 Multiplicity = 1

 SCF Done:  E(RHF) =  -492.844949617     A.U. after   15 cycles
 SCF Done:  E(RHF) =  -492.853020666     A.U. after   14 cycles
 SCF Done:  E(RHF) =  -492.854651100     A.U. after   13 cycles
 SCF Done:  E(RHF) =  -492.855214106     A.U. after   13 cycles
 SCF Done:  E(RHF) =  -492.855434250     A.U. after   13 cycles
 SCF Done:  E(RHF) =  -492.855714580     A.U. after   13 cycles
 SCF Done:  E(RHF) =  -492.855749470     A.U. after   12 cycles
 SCF Done:  E(RHF) =  -492.855822836     A.U. after   11 cycles
 SCF Done:  E(RHF) =  -492.855851994     A.U. after   11 cycles
 SCF Done:  E(RHF) =  -492.855939549     A.U. after   12 cycles
 SCF Done:  E(RHF) =  -492.856313786     A.U. after   11 cycles
 SCF Done:  E(RHF) =  -492.856309519     A.U. after   11 cycles
 SCF Done:  E(RHF) =  -492.856327541     A.U. after   11 cycles
 SCF Done:  E(RHF) =  -492.856333739     A.U. after   11 cycles
 SCF Done:  E(RHF) =  -492.856341237     A.U. after   11 cycles
 SCF Done:  E(RHF) =  -492.856344669     A.U. after    9 cycles
 SCF Done:  E(RHF) =  -492.856345826     A.U. after    9 cycles
 SCF Done:  E(RHF) =  -492.856346431     A.U. after    9 cycles
 SCF Done:  E(RHF) =  -492.856346580     A.U. after    8 cycles
 SCF Done:  E(RHF) =  -492.856346592     A.U. after    8 cycles
 Optimization completed.
    -- Stationary point found.

                         Standard orientation:
 ---------------------------------------------------------------------
 Center     Atomic      Atomic             Coordinates (Angstroms)
 Number     Number       Type             X           Y           Z
 ---------------------------------------------------------------------
      1          1           0        3.754582   -1.565544    0.042787
      2          6           0        3.205769   -0.852261   -0.554437
      3          1           0        2.893402   -1.316322   -1.483418
      4          1           0        3.865564   -0.023712   -0.794187
      5          6           0        2.032976   -0.336492    0.252039
      6          8           0        2.010617   -0.377788    1.447813
      7          7           0        1.007480    0.181183   -0.487140
      8          1           0        1.179267    0.323862   -1.457957
      9          6           0       -0.058208    0.967626    0.112896
     10          1           0        0.244321    1.206791    1.121020
     11          6           0       -0.286438    2.261194   -0.671523
     12          1           0       -0.573316    2.050119   -1.698604
     13          1           0       -1.079117    2.834419   -0.211432
     14          1           0        0.619130    2.857833   -0.681990
     15          6           0       -1.388140    0.224663    0.253037
     16          8           0       -2.268910    0.712488    0.909089
     17          7           0       -1.533970   -0.917361   -0.447916
     18          1           0       -0.707648   -1.350159   -0.788101
     19          6           0       -2.728018   -1.723722   -0.309807
     20          1           0       -3.600947   -1.096928   -0.414580
     21          1           0       -2.735189   -2.472475   -1.091329
     22          1           0       -2.775914   -2.218280    0.654731
 ---------------------------------------------------------------------

 The electronic state is 1-A.
 Alpha  occ. eigenvalues --  -20.53540 -20.51659 -15.59814 -15.58120 -11.36006
 Alpha  occ. eigenvalues --  -11.33837 -11.27870 -11.25439 -11.24368 -11.23144
 Alpha  occ. eigenvalues --   -1.40458  -1.38607  -1.25384  -1.22440  -1.06035
 Alpha  occ. eigenvalues --   -1.00102  -0.95901  -0.88119  -0.80748  -0.78441
 Alpha  occ. eigenvalues --   -0.72876  -0.68375  -0.67375  -0.63298  -0.62539
 Alpha  occ. eigenvalues --   -0.62446  -0.59520  -0.59317  -0.58462  -0.56209
 Alpha  occ. eigenvalues --   -0.55002  -0.54859  -0.53550  -0.52153  -0.49520
 Alpha  occ. eigenvalues --   -0.44044  -0.42854  -0.38970  -0.38504
 Alpha virt. eigenvalues --    0.19173   0.19974   0.20254   0.24792   0.25652
 Alpha virt. eigenvalues --    0.27708   0.28659   0.29547   0.30486   0.31219
 Alpha virt. eigenvalues --    0.32046   0.32908   0.33968   0.34580   0.37787

 Mulliken atomic charges:
              1
     1  H    0.220070
     2  C   -0.590312
     3  H    0.175033
     4  H    0.200756
     5  C    0.735832
     6  O   -0.581855
     7  N   -0.831795
     8  H    0.383418
     9  C   -0.032477
    10  H    0.255546
    11  C   -0.507868
    12  H    0.160784
    13  H    0.219110
    14  H    0.176373
    15  C    0.761741
    16  O   -0.620617
    17  N   -0.790790
    18  H    0.394795
    19  C   -0.276486
    20  H    0.204221
    21  H    0.165047
    22  H    0.179474
 Sum of Mulliken atomic charges =   0.00000

 Dipole moment (field-independent basis, Debye):
    X=              2.3818    Y=             -1.2500    Z=             -5.5032  Tot=              6.1255
 Quadrupole moment (field-independent basis, Debye-Ang):
   XX=            -63.3488   YY=            -55.7437   ZZ=            -65.1000
   XY=              5.5587   XZ=             -3.0700   YZ=              0.4434

 Normal termination of Gaussian 09 at Fri Feb 10 15:31:03 2017.
