 Gaussian 09, Revision A.02,
 Gaussian 09:  EM64L-G09RevA.02 11-Jun-2009

 -------------------------------------------
 # HF/6-31G* Opt=(ModRedundant) geom=nocrowd
 -------------------------------------------

 ------------------
 Phi Psi fixed scan
 ------------------
 Symbolic Z-matrix:
 Charge =  0 Multiplicity = 1

 SCF Done:  E(RHF) =  -492.836747694     A.U. after   15 cycles
 SCF Done:  E(RHF) =  -492.845956068     A.U. after   14 cycles
 SCF Done:  E(RHF) =  -492.847383354     A.U. after   14 cycles
 SCF Done:  E(RHF) =  -492.847611508     A.U. after   12 cycles
 SCF Done:  E(RHF) =  -492.847653265     A.U. after   13 cycles
 SCF Done:  E(RHF) =  -492.847733425     A.U. after   12 cycles
 SCF Done:  E(RHF) =  -492.847790279     A.U. after   13 cycles
 SCF Done:  E(RHF) =  -492.847881408     A.U. after   12 cycles
 SCF Done:  E(RHF) =  -492.848016258     A.U. after   13 cycles
 SCF Done:  E(RHF) =  -492.848044808     A.U. after   11 cycles
 SCF Done:  E(RHF) =  -492.848208987     A.U. after   15 cycles
 SCF Done:  E(RHF) =  -492.848631928     A.U. after   13 cycles
 SCF Done:  E(RHF) =  -492.848355352     A.U. after   13 cycles
 SCF Done:  E(RHF) =  -492.848657384     A.U. after   13 cycles
 SCF Done:  E(RHF) =  -492.848677108     A.U. after   11 cycles
 SCF Done:  E(RHF) =  -492.848685815     A.U. after   10 cycles
 SCF Done:  E(RHF) =  -492.848698264     A.U. after   12 cycles
 SCF Done:  E(RHF) =  -492.848700452     A.U. after   10 cycles
 SCF Done:  E(RHF) =  -492.848701537     A.U. after   10 cycles
 SCF Done:  E(RHF) =  -492.848701627     A.U. after    9 cycles
 Optimization completed.
    -- Stationary point found.

                         Standard orientation:
 ---------------------------------------------------------------------
 Center     Atomic      Atomic             Coordinates (Angstroms)
 Number     Number       Type             X           Y           Z
 ---------------------------------------------------------------------
      1          1           0        3.973282   -1.220713   -0.459599
      2          6           0        2.953172   -1.207361   -0.814060
      3          1           0        2.539087   -2.206564   -0.717542
      4          1           0        2.934081   -0.931159   -1.862626
      5          6           0        2.149776   -0.251294    0.041740
      6          8           0        2.509082    0.088283    1.131400
      7          7           0        0.994664    0.192857   -0.533509
      8          1           0        0.721936   -0.224923   -1.394968
      9          6           0       -0.024819    0.912961    0.210164
     10          1           0        0.396552    1.121483    1.179067
     11          6           0       -0.392158    2.225991   -0.481323
     12          1           0       -0.698411    2.078714   -1.513683
     13          1           0       -1.196650    2.731458    0.043435
     14          1           0        0.472315    2.878336   -0.492819
     15          6           0       -1.213579   -0.016398    0.478557
     16          8           0       -1.375660   -0.533592    1.546449
     17          7           0       -2.026834   -0.271159   -0.580819
     18          1           0       -2.009337    0.355534   -1.351226
     19          6           0       -3.211998   -1.089297   -0.418839
     20          1           0       -2.947576   -2.015758    0.068420
     21          1           0       -3.970360   -0.594305    0.178615
     22          1           0       -3.619471   -1.309114   -1.397004
 ---------------------------------------------------------------------

 The electronic state is 1-A.
 Alpha  occ. eigenvalues --  -20.52808 -20.52356 -15.59090 -15.59010 -11.35000
 Alpha  occ. eigenvalues --  -11.34580 -11.27820 -11.26170 -11.23650 -11.23366
 Alpha  occ. eigenvalues --   -1.39815  -1.39089  -1.24743  -1.23053  -1.05986
 Alpha  occ. eigenvalues --   -0.99525  -0.96030  -0.88872  -0.79847  -0.79437
 Alpha  occ. eigenvalues --   -0.73162  -0.67382  -0.66022  -0.64640  -0.63064
 Alpha  occ. eigenvalues --   -0.61920  -0.59539  -0.58856  -0.58035  -0.56932
 Alpha  occ. eigenvalues --   -0.55954  -0.54765  -0.52309  -0.51949  -0.51066
 Alpha  occ. eigenvalues --   -0.44033  -0.41767  -0.39762  -0.38045
 Alpha virt. eigenvalues --    0.18626   0.19515   0.21708   0.23367   0.25632
 Alpha virt. eigenvalues --    0.27553   0.28657   0.29783   0.30274   0.31161
 Alpha virt. eigenvalues --    0.32874   0.33068   0.33714   0.34536   0.36927

 Mulliken atomic charges:
              1
     1  H    0.217112
     2  C   -0.590751
     3  H    0.200270
     4  H    0.174797
     5  C    0.750922
     6  O   -0.586870
     7  N   -0.800310
     8  H    0.378941
     9  C   -0.067088
    10  H    0.271850
    11  C   -0.491015
    12  H    0.141095
    13  H    0.180595
    14  H    0.198819
    15  C    0.753739
    16  O   -0.591406
    17  N   -0.798644
    18  H    0.382712
    19  C   -0.275660
    20  H    0.206308
    21  H    0.178191
    22  H    0.166391
 Sum of Mulliken atomic charges =   0.00000

 Dipole moment (field-independent basis, Debye):
    X=             -2.1339    Y=              0.4834    Z=             -6.3596  Tot=              6.7254
 Quadrupole moment (field-independent basis, Debye-Ang):
   XX=            -59.5477   YY=            -57.1749   ZZ=            -65.6782
   XY=             -3.9926   XZ=             -1.4657   YZ=              2.6777

 Normal termination of Gaussian 09 at Fri Feb 10 15:19:56 2017.
