 Gaussian 09, Revision A.02,
 Gaussian 09:  EM64L-G09RevA.02 11-Jun-2009

 -------------------------------------------
 # HF/6-31G* Opt=(ModRedundant) geom=nocrowd
 -------------------------------------------

 ------------------
 Phi Psi fixed scan
 ------------------
 Symbolic Z-matrix:
 Charge =  0 Multiplicity = 1

 SCF Done:  E(RHF) =  -492.841105362     A.U. after   15 cycles
 SCF Done:  E(RHF) =  -492.849042731     A.U. after   14 cycles
 SCF Done:  E(RHF) =  -492.849962802     A.U. after   13 cycles
 SCF Done:  E(RHF) =  -492.850226487     A.U. after   13 cycles
 SCF Done:  E(RHF) =  -492.850480769     A.U. after   13 cycles
 SCF Done:  E(RHF) =  -492.850890074     A.U. after   13 cycles
 SCF Done:  E(RHF) =  -492.851224788     A.U. after   14 cycles
 SCF Done:  E(RHF) =  -492.851348996     A.U. after   13 cycles
 SCF Done:  E(RHF) =  -492.851429855     A.U. after   11 cycles
 SCF Done:  E(RHF) =  -492.851561663     A.U. after   11 cycles
 SCF Done:  E(RHF) =  -492.851711098     A.U. after   13 cycles
 SCF Done:  E(RHF) =  -492.851872428     A.U. after   11 cycles
 SCF Done:  E(RHF) =  -492.852095438     A.U. after   12 cycles
 SCF Done:  E(RHF) =  -492.852095305     A.U. after   12 cycles
 SCF Done:  E(RHF) =  -492.852120648     A.U. after   11 cycles
 SCF Done:  E(RHF) =  -492.852125902     A.U. after   11 cycles
 SCF Done:  E(RHF) =  -492.852126808     A.U. after   10 cycles
 Optimization completed.
    -- Stationary point found.

                         Standard orientation:
 ---------------------------------------------------------------------
 Center     Atomic      Atomic             Coordinates (Angstroms)
 Number     Number       Type             X           Y           Z
 ---------------------------------------------------------------------
      1          1           0        3.846065   -1.514214    0.063027
      2          6           0        3.211900   -0.930664   -0.587793
      3          1           0        2.840649   -1.555310   -1.392779
      4          1           0        3.804272   -0.131540   -1.023979
      5          6           0        2.086038   -0.334508    0.230509
      6          8           0        2.138608   -0.239024    1.420989
      7          7           0        1.007463    0.085334   -0.499800
      8          1           0        1.146843    0.156298   -1.484046
      9          6           0       -0.027617    0.931384    0.076735
     10          1           0        0.329681    1.277429    1.033324
     11          6           0       -0.326685    2.126682   -0.829457
     12          1           0       -0.664878    1.805984   -1.810315
     13          1           0       -1.105326    2.738620   -0.390801
     14          1           0        0.562388    2.736180   -0.949954
     15          6           0       -1.322761    0.176930    0.380784
     16          8           0       -1.958321    0.432170    1.364465
     17          7           0       -1.768215   -0.663753   -0.587617
     18          1           0       -1.078225   -1.041482   -1.195992
     19          6           0       -2.954665   -1.465282   -0.365713
     20          1           0       -3.761216   -0.827206   -0.037629
     21          1           0       -3.235832   -1.935824   -1.299048
     22          1           0       -2.798708   -2.232417    0.386086
 ---------------------------------------------------------------------

 The electronic state is 1-A.
 Alpha  occ. eigenvalues --  -20.53392 -20.52207 -15.59684 -15.58137 -11.35777
 Alpha  occ. eigenvalues --  -11.33873 -11.27789 -11.25457 -11.24173 -11.23595
 Alpha  occ. eigenvalues --   -1.40297  -1.38941  -1.25179  -1.22449  -1.06132
 Alpha  occ. eigenvalues --   -1.00074  -0.95622  -0.88410  -0.80563  -0.78298
 Alpha  occ. eigenvalues --   -0.72425  -0.68169  -0.67332  -0.63335  -0.62879
 Alpha  occ. eigenvalues --   -0.62343  -0.59330  -0.59165  -0.58457  -0.56634
 Alpha  occ. eigenvalues --   -0.55250  -0.54722  -0.53523  -0.51911  -0.50152
 Alpha  occ. eigenvalues --   -0.44005  -0.42651  -0.38987  -0.38772
 Alpha virt. eigenvalues --    0.18977   0.19746   0.20012   0.24648   0.25842
 Alpha virt. eigenvalues --    0.27317   0.28769   0.29602   0.30361   0.31272
 Alpha virt. eigenvalues --    0.31638   0.33148   0.33601   0.34157   0.37566

 Mulliken atomic charges:
              1
     1  H    0.221262
     2  C   -0.592450
     3  H    0.178217
     4  H    0.195847
     5  C    0.740407
     6  O   -0.576409
     7  N   -0.821882
     8  H    0.377837
     9  C   -0.054471
    10  H    0.259172
    11  C   -0.505731
    12  H    0.164409
    13  H    0.206035
    14  H    0.179993
    15  C    0.764159
    16  O   -0.601353
    17  N   -0.781855
    18  H    0.380100
    19  C   -0.280199
    20  H    0.205302
    21  H    0.165416
    22  H    0.176194
 Sum of Mulliken atomic charges =   0.00000

 Dipole moment (field-independent basis, Debye):
    X=              1.3995    Y=             -0.9188    Z=             -6.5182  Tot=              6.7298
 Quadrupole moment (field-independent basis, Debye-Ang):
   XX=            -60.8208   YY=            -55.7905   ZZ=            -66.6589
   XY=              3.2358   XZ=             -2.3003   YZ=              0.5699

 Normal termination of Gaussian 09 at Fri Feb 10 15:25:57 2017.
