 Gaussian 09, Revision A.02,
 Gaussian 09:  EM64L-G09RevA.02 11-Jun-2009

 -------------------------------------------
 # HF/6-31G* Opt=(ModRedundant) geom=nocrowd
 -------------------------------------------

 ------------------
 Phi Psi fixed scan
 ------------------
 Symbolic Z-matrix:
 Charge =  0 Multiplicity = 1

 SCF Done:  E(RHF) =  -492.852256790     A.U. after   15 cycles
 SCF Done:  E(RHF) =  -492.858871870     A.U. after   14 cycles
 SCF Done:  E(RHF) =  -492.859143505     A.U. after   13 cycles
 SCF Done:  E(RHF) =  -492.859175584     A.U. after   13 cycles
 SCF Done:  E(RHF) =  -492.859399761     A.U. after   12 cycles
 SCF Done:  E(RHF) =  -492.859432933     A.U. after   10 cycles
 SCF Done:  E(RHF) =  -492.859483005     A.U. after   12 cycles
 SCF Done:  E(RHF) =  -492.859504693     A.U. after   10 cycles
 SCF Done:  E(RHF) =  -492.859527485     A.U. after   11 cycles
 SCF Done:  E(RHF) =  -492.859555705     A.U. after   11 cycles
 SCF Done:  E(RHF) =  -492.859870476     A.U. after   12 cycles
 SCF Done:  E(RHF) =  -492.859886636     A.U. after   11 cycles
 SCF Done:  E(RHF) =  -492.859889202     A.U. after    9 cycles
 SCF Done:  E(RHF) =  -492.859899385     A.U. after   10 cycles
 SCF Done:  E(RHF) =  -492.859911437     A.U. after   11 cycles
 SCF Done:  E(RHF) =  -492.859915207     A.U. after    9 cycles
 SCF Done:  E(RHF) =  -492.859917114     A.U. after   11 cycles
 SCF Done:  E(RHF) =  -492.859917508     A.U. after    9 cycles
 SCF Done:  E(RHF) =  -492.859917737     A.U. after    9 cycles
 SCF Done:  E(RHF) =  -492.859917744     A.U. after    6 cycles
 Optimization completed.
    -- Stationary point found.

                         Standard orientation:
 ---------------------------------------------------------------------
 Center     Atomic      Atomic             Coordinates (Angstroms)
 Number     Number       Type             X           Y           Z
 ---------------------------------------------------------------------
      1          1           0       -3.492967   -1.659201    0.690081
      2          6           0       -3.146010   -0.641759    0.799773
      3          1           0       -2.957098   -0.430878    1.845873
      4          1           0       -3.929070    0.024379    0.451511
      5          6           0       -1.920957   -0.445654   -0.064954
      6          8           0       -1.761506   -1.056167   -1.090766
      7          7           0       -1.022361    0.459667    0.384466
      8          1           0       -1.208960    0.942010    1.234496
      9          6           0        0.080728    0.947448   -0.432518
     10          1           0       -0.119691    0.624473   -1.443239
     11          6           0        0.169640    2.466044   -0.374473
     12          1           0        0.359941    2.805952    0.636329
     13          1           0        0.984818    2.819876   -0.993388
     14          1           0       -0.755262    2.905252   -0.732122
     15          6           0        1.377487    0.288997    0.050731
     16          8           0        2.191157    0.876095    0.711845
     17          7           0        1.506178   -1.000212   -0.318496
     18          1           0        0.733815   -1.436228   -0.772497
     19          6           0        2.593818   -1.824279    0.159618
     20          1           0        3.528500   -1.292377    0.056420
     21          1           0        2.469283   -2.096933    1.202807
     22          1           0        2.634530   -2.726719   -0.435758
 ---------------------------------------------------------------------

 The electronic state is 1-A.
 Alpha  occ. eigenvalues --  -20.53404 -20.52066 -15.59800 -15.57619 -11.36093
 Alpha  occ. eigenvalues --  -11.33818 -11.27888 -11.25181 -11.24234 -11.22275
 Alpha  occ. eigenvalues --   -1.40285  -1.38696  -1.25085  -1.22379  -1.05909
 Alpha  occ. eigenvalues --   -0.99910  -0.95995  -0.87482  -0.80877  -0.78152
 Alpha  occ. eigenvalues --   -0.72720  -0.68427  -0.67108  -0.64238  -0.62443
 Alpha  occ. eigenvalues --   -0.61557  -0.60217  -0.59204  -0.58100  -0.55568
 Alpha  occ. eigenvalues --   -0.54695  -0.53540  -0.52402  -0.52241  -0.51362
 Alpha  occ. eigenvalues --   -0.43715  -0.42948  -0.38644  -0.38270
 Alpha virt. eigenvalues --    0.18378   0.20989   0.21983   0.24655   0.26004
 Alpha virt. eigenvalues --    0.27094   0.28512   0.29951   0.31075   0.31895
 Alpha virt. eigenvalues --    0.32813   0.33447   0.34020   0.34950   0.38114

 Mulliken atomic charges:
              1
     1  H    0.215435
     2  C   -0.580902
     3  H    0.177087
     4  H    0.205080
     5  C    0.749681
     6  O   -0.623787
     7  N   -0.794149
     8  H    0.391019
     9  C   -0.081918
    10  H    0.237183
    11  C   -0.479656
    12  H    0.183762
    13  H    0.188296
    14  H    0.168065
    15  C    0.782207
    16  O   -0.619240
    17  N   -0.802775
    18  H    0.414240
    19  C   -0.272377
    20  H    0.200774
    21  H    0.171169
    22  H    0.170807
 Sum of Mulliken atomic charges =   0.00000

 Dipole moment (field-independent basis, Debye):
    X=             -2.5266    Y=             -0.0930    Z=              1.1941  Tot=              2.7961
 Quadrupole moment (field-independent basis, Debye-Ang):
   XX=            -61.8831   YY=            -58.4654   ZZ=            -62.0291
   XY=             -9.0640   XZ=             -9.8797   YZ=             -3.7039

 Normal termination of Gaussian 09 at Fri Feb 10 14:26:07 2017.
