 Gaussian 09, Revision A.02,
 Gaussian 09:  EM64L-G09RevA.02 11-Jun-2009

 -------------------------------------------
 # HF/6-31G* Opt=(ModRedundant) geom=nocrowd
 -------------------------------------------

 ------------------
 Phi Psi fixed scan
 ------------------
 Symbolic Z-matrix:
 Charge =  0 Multiplicity = 1

 SCF Done:  E(RHF) =  -492.848730673     A.U. after   15 cycles
 SCF Done:  E(RHF) =  -492.855238257     A.U. after   13 cycles
 SCF Done:  E(RHF) =  -492.856262868     A.U. after   13 cycles
 SCF Done:  E(RHF) =  -492.857093687     A.U. after   14 cycles
 SCF Done:  E(RHF) =  -492.857756605     A.U. after   13 cycles
 SCF Done:  E(RHF) =  -492.857816363     A.U. after   13 cycles
 SCF Done:  E(RHF) =  -492.858189792     A.U. after   13 cycles
 SCF Done:  E(RHF) =  -492.858211131     A.U. after   10 cycles
 SCF Done:  E(RHF) =  -492.858231257     A.U. after   11 cycles
 SCF Done:  E(RHF) =  -492.858268952     A.U. after   11 cycles
 SCF Done:  E(RHF) =  -492.858477696     A.U. after   11 cycles
 SCF Done:  E(RHF) =  -492.858515182     A.U. after   12 cycles
 SCF Done:  E(RHF) =  -492.858548544     A.U. after   11 cycles
 SCF Done:  E(RHF) =  -492.858571357     A.U. after   11 cycles
 SCF Done:  E(RHF) =  -492.858585860     A.U. after   12 cycles
 SCF Done:  E(RHF) =  -492.858601224     A.U. after   12 cycles
 SCF Done:  E(RHF) =  -492.858609659     A.U. after   10 cycles
 SCF Done:  E(RHF) =  -492.858611032     A.U. after    9 cycles
 SCF Done:  E(RHF) =  -492.858611196     A.U. after    9 cycles
 SCF Done:  E(RHF) =  -492.858611204     A.U. after    7 cycles
 Optimization completed.
    -- Stationary point found.

                         Standard orientation:
 ---------------------------------------------------------------------
 Center     Atomic      Atomic             Coordinates (Angstroms)
 Number     Number       Type             X           Y           Z
 ---------------------------------------------------------------------
      1          1           0        4.088203   -1.102738    0.180298
      2          6           0        3.231801   -0.954173   -0.460784
      3          1           0        2.844918   -1.923174   -0.762014
      4          1           0        3.529324   -0.417445   -1.354525
      5          6           0        2.164101   -0.206148    0.306180
      6          8           0        2.189097   -0.095425    1.500614
      7          7           0        1.185492    0.341387   -0.470190
      8          1           0        1.093693   -0.025899   -1.392716
      9          6           0       -0.050273    0.812452    0.106873
     10          1           0        0.098851    0.867775    1.175283
     11          6           0       -0.407615    2.201902   -0.435731
     12          1           0       -0.545649    2.168037   -1.511643
     13          1           0       -1.321200    2.580743    0.008734
     14          1           0        0.397577    2.892082   -0.216444
     15          6           0       -1.171480   -0.182023   -0.206977
     16          8           0       -1.068651   -0.984666   -1.096646
     17          7           0       -2.296820   -0.039902    0.523018
     18          1           0       -2.260596    0.520222    1.343496
     19          6           0       -3.424897   -0.932983    0.356403
     20          1           0       -3.654008   -1.034419   -0.693894
     21          1           0       -3.224101   -1.918984    0.761281
     22          1           0       -4.281111   -0.510019    0.864832
 ---------------------------------------------------------------------

 The electronic state is 1-A.
 Alpha  occ. eigenvalues --  -20.53155 -20.52238 -15.59217 -15.57702 -11.34907
 Alpha  occ. eigenvalues --  -11.34559 -11.27765 -11.26224 -11.22922 -11.22738
 Alpha  occ. eigenvalues --   -1.40102  -1.38815  -1.23989  -1.23483  -1.05638
 Alpha  occ. eigenvalues --   -0.99113  -0.96141  -0.87923  -0.80051  -0.78420
 Alpha  occ. eigenvalues --   -0.73290  -0.67271  -0.66019  -0.63812  -0.63062
 Alpha  occ. eigenvalues --   -0.62121  -0.59908  -0.58593  -0.57410  -0.56522
 Alpha  occ. eigenvalues --   -0.55862  -0.54087  -0.53171  -0.51795  -0.49931
 Alpha  occ. eigenvalues --   -0.42843  -0.41768  -0.39938  -0.38663
 Alpha virt. eigenvalues --    0.19250   0.20558   0.21396   0.23860   0.26403
 Alpha virt. eigenvalues --    0.27358   0.29550   0.30597   0.31279   0.31608
 Alpha virt. eigenvalues --    0.32344   0.32799   0.33696   0.34127   0.37540

 Mulliken atomic charges:
              1
     1  H    0.212125
     2  C   -0.591459
     3  H    0.200939
     4  H    0.184880
     5  C    0.738438
     6  O   -0.603521
     7  N   -0.771850
     8  H    0.398335
     9  C   -0.085546
    10  H    0.236445
    11  C   -0.470380
    12  H    0.174734
    13  H    0.165042
    14  H    0.190678
    15  C    0.768837
    16  O   -0.625035
    17  N   -0.790309
    18  H    0.385884
    19  C   -0.274420
    20  H    0.205127
    21  H    0.180383
    22  H    0.170674
 Sum of Mulliken atomic charges =   0.00000

 Dipole moment (field-independent basis, Debye):
    X=             -2.1374    Y=              1.3564    Z=             -0.5013  Tot=              2.5807
 Quadrupole moment (field-independent basis, Debye-Ang):
   XX=            -53.3263   YY=            -60.3974   ZZ=            -64.6068
   XY=             -3.2066   XZ=            -12.8305   YZ=             -0.8240

 Normal termination of Gaussian 09 at Fri Feb 10 14:43:24 2017.
