 Gaussian 09, Revision A.02,
 Gaussian 09:  EM64L-G09RevA.02 11-Jun-2009

 -------------------------------------------
 # HF/6-31G* Opt=(ModRedundant) geom=nocrowd
 -------------------------------------------

 ------------------
 Phi Psi fixed scan
 ------------------
 Symbolic Z-matrix:
 Charge =  0 Multiplicity = 1

 SCF Done:  E(RHF) =  -492.852443841     A.U. after   15 cycles
 SCF Done:  E(RHF) =  -492.858174582     A.U. after   13 cycles
 SCF Done:  E(RHF) =  -492.858510606     A.U. after   13 cycles
 SCF Done:  E(RHF) =  -492.858534984     A.U. after   13 cycles
 SCF Done:  E(RHF) =  -492.858728259     A.U. after   12 cycles
 SCF Done:  E(RHF) =  -492.858747669     A.U. after   12 cycles
 SCF Done:  E(RHF) =  -492.858800894     A.U. after   11 cycles
 SCF Done:  E(RHF) =  -492.858822988     A.U. after   11 cycles
 SCF Done:  E(RHF) =  -492.858846883     A.U. after   10 cycles
 SCF Done:  E(RHF) =  -492.858899060     A.U. after   11 cycles
 SCF Done:  E(RHF) =  -492.859207478     A.U. after   11 cycles
 SCF Done:  E(RHF) =  -492.859207127     A.U. after   11 cycles
 SCF Done:  E(RHF) =  -492.858990667     A.U. after   12 cycles
 SCF Done:  E(RHF) =  -492.858990417     A.U. after   11 cycles
 SCF Done:  E(RHF) =  -492.859207750     A.U. after   12 cycles
 SCF Done:  E(RHF) =  -492.859127122     A.U. after   12 cycles
 SCF Done:  E(RHF) =  -492.859205259     A.U. after   11 cycles
 SCF Done:  E(RHF) =  -492.859208162     A.U. after   11 cycles
 SCF Done:  E(RHF) =  -492.857951279     A.U. after   13 cycles
 SCF Done:  E(RHF) =  -492.859208185     A.U. after   12 cycles
 Optimization completed.
    -- Stationary point found.

                         Standard orientation:
 ---------------------------------------------------------------------
 Center     Atomic      Atomic             Coordinates (Angstroms)
 Number     Number       Type             X           Y           Z
 ---------------------------------------------------------------------
      1          1           0       -3.717837   -1.564871    0.472163
      2          6           0       -3.120533   -0.753493    0.860319
      3          1           0       -2.745642   -1.018902    1.843563
      4          1           0       -3.740596    0.130845    0.965563
      5          6           0       -1.979184   -0.482455   -0.095923
      6          8           0       -1.863944   -1.060215   -1.143812
      7          7           0       -1.104010    0.467097    0.316092
      8          1           0       -1.187012    0.844679    1.233459
      9          6           0        0.045837    0.871998   -0.470865
     10          1           0       -0.107323    0.473718   -1.461014
     11          6           0        0.161879    2.391169   -0.532874
     12          1           0        0.303777    2.805188    0.457716
     13          1           0        1.012569    2.682811   -1.139784
     14          1           0       -0.735607    2.812635   -0.970934
     15          6           0        1.294245    0.262164    0.167180
     16          8           0        1.748233    0.703857    1.189746
     17          7           0        1.822189   -0.791562   -0.485995
     18          1           0        1.279566   -1.207695   -1.208749
     19          6           0        2.917935   -1.554885    0.072599
     20          1           0        3.682748   -0.880284    0.427317
     21          1           0        2.598314   -2.177708    0.901691
     22          1           0        3.334404   -2.185278   -0.701763
 ---------------------------------------------------------------------

 The electronic state is 1-A.
 Alpha  occ. eigenvalues --  -20.52837 -20.52302 -15.59036 -15.58623 -11.35457
 Alpha  occ. eigenvalues --  -11.34211 -11.27765 -11.25661 -11.23615 -11.22252
 Alpha  occ. eigenvalues --   -1.39796  -1.38957  -1.24453  -1.23151  -1.05750
 Alpha  occ. eigenvalues --   -0.99502  -0.96234  -0.87546  -0.80337  -0.78759
 Alpha  occ. eigenvalues --   -0.73049  -0.67722  -0.66425  -0.64471  -0.62367
 Alpha  occ. eigenvalues --   -0.62054  -0.60103  -0.58775  -0.57731  -0.56306
 Alpha  occ. eigenvalues --   -0.55195  -0.53707  -0.52173  -0.51835  -0.51193
 Alpha  occ. eigenvalues --   -0.43328  -0.42365  -0.39233  -0.38272
 Alpha virt. eigenvalues --    0.18950   0.21136   0.22302   0.23333   0.26547
 Alpha virt. eigenvalues --    0.26939   0.28438   0.30224   0.30923   0.32081
 Alpha virt. eigenvalues --    0.32526   0.33399   0.33990   0.34816   0.37707

 Mulliken atomic charges:
              1
     1  H    0.216838
     2  C   -0.588377
     3  H    0.188023
     4  H    0.193782
     5  C    0.743676
     6  O   -0.615321
     7  N   -0.792545
     8  H    0.394841
     9  C   -0.066754
    10  H    0.232660
    11  C   -0.485196
    12  H    0.190204
    13  H    0.175524
    14  H    0.176216
    15  C    0.782387
    16  O   -0.628634
    17  N   -0.792273
    18  H    0.400420
    19  C   -0.277879
    20  H    0.205154
    21  H    0.175395
    22  H    0.171859
 Sum of Mulliken atomic charges =   0.00000

 Dipole moment (field-independent basis, Debye):
    X=             -0.7957    Y=             -0.1157    Z=              0.2706  Tot=              0.8484
 Quadrupole moment (field-independent basis, Debye-Ang):
   XX=            -58.4029   YY=            -58.9949   ZZ=            -63.5573
   XY=             -7.9688   XZ=            -11.8145   YZ=             -3.8308

 Normal termination of Gaussian 09 at Fri Feb 10 14:32:27 2017.
