 Gaussian 09, Revision A.02,
 Gaussian 09:  EM64L-G09RevA.02 11-Jun-2009

 -------------------------------------------
 # HF/6-31G* Opt=(ModRedundant) geom=nocrowd
 -------------------------------------------

 ------------------
 Phi Psi fixed scan
 ------------------
 Symbolic Z-matrix:
 Charge =  0 Multiplicity = 1

 SCF Done:  E(RHF) =  -492.848821909     A.U. after   15 cycles
 SCF Done:  E(RHF) =  -492.855671111     A.U. after   14 cycles
 SCF Done:  E(RHF) =  -492.856342612     A.U. after   13 cycles
 SCF Done:  E(RHF) =  -492.856396429     A.U. after   13 cycles
 SCF Done:  E(RHF) =  -492.856694526     A.U. after   12 cycles
 SCF Done:  E(RHF) =  -492.856784653     A.U. after   12 cycles
 SCF Done:  E(RHF) =  -492.856807737     A.U. after   13 cycles
 SCF Done:  E(RHF) =  -492.856877150     A.U. after   12 cycles
 SCF Done:  E(RHF) =  -492.856922918     A.U. after   11 cycles
 SCF Done:  E(RHF) =  -492.856992950     A.U. after   12 cycles
 SCF Done:  E(RHF) =  -492.857076811     A.U. after   12 cycles
 SCF Done:  E(RHF) =  -492.857314069     A.U. after   14 cycles
 SCF Done:  E(RHF) =  -492.857314116     A.U. after   13 cycles
 SCF Done:  E(RHF) =  -492.857365460     A.U. after   11 cycles
 SCF Done:  E(RHF) =  -492.857384826     A.U. after   11 cycles
 SCF Done:  E(RHF) =  -492.857415264     A.U. after   11 cycles
 SCF Done:  E(RHF) =  -492.857443841     A.U. after   12 cycles
 SCF Done:  E(RHF) =  -492.857447423     A.U. after   11 cycles
 SCF Done:  E(RHF) =  -492.857447649     A.U. after    9 cycles
 Optimization completed.
    -- Stationary point found.

                         Standard orientation:
 ---------------------------------------------------------------------
 Center     Atomic      Atomic             Coordinates (Angstroms)
 Number     Number       Type             X           Y           Z
 ---------------------------------------------------------------------
      1          1           0        3.668936   -1.567958   -0.296605
      2          6           0        3.194534   -0.673645   -0.673527
      3          1           0        2.949713   -0.803282   -1.721709
      4          1           0        3.896164    0.150385   -0.587947
      5          6           0        1.975182   -0.371158    0.170267
      6          8           0        1.867395   -0.761059    1.301440
      7          7           0        1.016212    0.369571   -0.438884
      8          1           0        1.177873    0.669696   -1.373807
      9          6           0       -0.099817    0.977608    0.265519
     10          1           0        0.116957    0.880586    1.321762
     11          6           0       -0.222565    2.455436   -0.094204
     12          1           0       -0.407761    2.584835   -1.156564
     13          1           0       -1.047590    2.904239    0.438461
     14          1           0        0.694235    2.973758    0.163732
     15          6           0       -1.430752    0.246280    0.044446
     16          8           0       -2.474798    0.839491    0.094840
     17          7           0       -1.353406   -1.080687   -0.179658
     18          1           0       -0.482545   -1.528756   -0.012257
     19          6           0       -2.547744   -1.897918   -0.204759
     20          1           0       -3.274718   -1.457855   -0.871161
     21          1           0       -2.286637   -2.882895   -0.568793
     22          1           0       -2.998072   -1.992014    0.777995
 ---------------------------------------------------------------------

 The electronic state is 1-A.
 Alpha  occ. eigenvalues --  -20.53479 -20.52047 -15.59755 -15.57912 -11.36099
 Alpha  occ. eigenvalues --  -11.34021 -11.28103 -11.25315 -11.24358 -11.22317
 Alpha  occ. eigenvalues --   -1.40407  -1.38854  -1.25346  -1.22378  -1.05913
 Alpha  occ. eigenvalues --   -0.99936  -0.95965  -0.87724  -0.80926  -0.78376
 Alpha  occ. eigenvalues --   -0.73123  -0.68452  -0.67066  -0.64003  -0.62508
 Alpha  occ. eigenvalues --   -0.62087  -0.59810  -0.59164  -0.58354  -0.55266
 Alpha  occ. eigenvalues --   -0.54858  -0.54154  -0.53178  -0.52366  -0.50175
 Alpha  occ. eigenvalues --   -0.44090  -0.42962  -0.39503  -0.37777
 Alpha virt. eigenvalues --    0.18820   0.19847   0.21748   0.24621   0.25976
 Alpha virt. eigenvalues --    0.27492   0.28506   0.29532   0.30518   0.31555
 Alpha virt. eigenvalues --    0.32603   0.33183   0.33647   0.34835   0.37413

 Mulliken atomic charges:
              1
     1  H    0.216707
     2  C   -0.586146
     3  H    0.176928
     4  H    0.204173
     5  C    0.735133
     6  O   -0.607490
     7  N   -0.807176
     8  H    0.386929
     9  C   -0.068790
    10  H    0.250857
    11  C   -0.483733
    12  H    0.161191
    13  H    0.214644
    14  H    0.169502
    15  C    0.771019
    16  O   -0.619477
    17  N   -0.788910
    18  H    0.403572
    19  C   -0.274371
    20  H    0.201052
    21  H    0.167361
    22  H    0.177025
 Sum of Mulliken atomic charges =   0.00000

 Dipole moment (field-independent basis, Debye):
    X=              2.8520    Y=             -0.6997    Z=             -3.1884  Tot=              4.3347
 Quadrupole moment (field-independent basis, Debye-Ang):
   XX=            -65.1568   YY=            -57.0299   ZZ=            -62.2299
   XY=              8.1730   XZ=             -6.6594   YZ=              2.0534

 Normal termination of Gaussian 09 at Fri Feb 10 14:07:14 2017.
