 Gaussian 09, Revision A.02,
 Gaussian 09:  EM64L-G09RevA.02 11-Jun-2009

 -------------------------------------------
 # HF/6-31G* Opt=(ModRedundant) geom=nocrowd
 -------------------------------------------

 ------------------
 Phi Psi fixed scan
 ------------------
 Symbolic Z-matrix:
 Charge =  0 Multiplicity = 1

 SCF Done:  E(RHF) =  -492.833443935     A.U. after   15 cycles
 SCF Done:  E(RHF) =  -492.844893837     A.U. after   14 cycles
 SCF Done:  E(RHF) =  -492.848415896     A.U. after   13 cycles
 SCF Done:  E(RHF) =  -492.849055328     A.U. after   13 cycles
 SCF Done:  E(RHF) =  -492.849332794     A.U. after   14 cycles
 SCF Done:  E(RHF) =  -492.849973031     A.U. after   13 cycles
 SCF Done:  E(RHF) =  -492.850416342     A.U. after   13 cycles
 SCF Done:  E(RHF) =  -492.850553522     A.U. after   13 cycles
 SCF Done:  E(RHF) =  -492.850652061     A.U. after   12 cycles
 SCF Done:  E(RHF) =  -492.850668873     A.U. after   10 cycles
 SCF Done:  E(RHF) =  -492.850781850     A.U. after   15 cycles
 SCF Done:  E(RHF) =  -492.850966807     A.U. after   12 cycles
 SCF Done:  E(RHF) =  -492.851087938     A.U. after   12 cycles
 SCF Done:  E(RHF) =  -492.851108457     A.U. after   11 cycles
 SCF Done:  E(RHF) =  -492.851127777     A.U. after   11 cycles
 SCF Done:  E(RHF) =  -492.851136727     A.U. after   10 cycles
 SCF Done:  E(RHF) =  -492.851141710     A.U. after   10 cycles
 SCF Done:  E(RHF) =  -492.851147985     A.U. after   11 cycles
 SCF Done:  E(RHF) =  -492.851149845     A.U. after   10 cycles
 SCF Done:  E(RHF) =  -492.851149890     A.U. after    8 cycles
 Optimization completed.
    -- Stationary point found.

                         Standard orientation:
 ---------------------------------------------------------------------
 Center     Atomic      Atomic             Coordinates (Angstroms)
 Number     Number       Type             X           Y           Z
 ---------------------------------------------------------------------
      1          1           0        4.111011   -1.001742   -0.272366
      2          6           0        3.137981   -0.969174   -0.739859
      3          1           0        2.741882   -1.978439   -0.798879
      4          1           0        3.228033   -0.579401   -1.747948
      5          6           0        2.210165   -0.127552    0.106767
      6          8           0        2.449497    0.144841    1.247858
      7          7           0        1.088828    0.313058   -0.540362
      8          1           0        0.887485   -0.131744   -1.408630
      9          6           0       -0.055315    0.795032    0.204998
     10          1           0        0.260296    0.851092    1.237336
     11          6           0       -0.456178    2.194241   -0.264985
     12          1           0       -0.798032    2.192415   -1.295700
     13          1           0       -1.234504    2.623498    0.359494
     14          1           0        0.406936    2.844028   -0.200673
     15          6           0       -1.152183   -0.281740    0.161450
     16          8           0       -0.866855   -1.438479    0.317783
     17          7           0       -2.415250    0.114356   -0.093557
     18          1           0       -2.628350    1.080723   -0.147631
     19          6           0       -3.511550   -0.832118   -0.069149
     20          1           0       -3.303725   -1.659737   -0.732417
     21          1           0       -3.675429   -1.226771    0.926788
     22          1           0       -4.409314   -0.328843   -0.402408
 ---------------------------------------------------------------------

 The electronic state is 1-A.
 Alpha  occ. eigenvalues --  -20.52426 -20.52032 -15.59280 -15.58050 -11.34735
 Alpha  occ. eigenvalues --  -11.34382 -11.27830 -11.26259 -11.23348 -11.22649
 Alpha  occ. eigenvalues --   -1.39715  -1.38640  -1.23920  -1.23433  -1.05625
 Alpha  occ. eigenvalues --   -0.99087  -0.95935  -0.88734  -0.79728  -0.78937
 Alpha  occ. eigenvalues --   -0.73198  -0.67042  -0.65410  -0.64883  -0.62729
 Alpha  occ. eigenvalues --   -0.61743  -0.59269  -0.58858  -0.57283  -0.56243
 Alpha  occ. eigenvalues --   -0.55863  -0.54617  -0.53498  -0.51730  -0.49742
 Alpha  occ. eigenvalues --   -0.42572  -0.41381  -0.39560  -0.38775
 Alpha virt. eigenvalues --    0.18833   0.20613   0.22262   0.23636   0.25848
 Alpha virt. eigenvalues --    0.27728   0.28715   0.29541   0.30853   0.31480
 Alpha virt. eigenvalues --    0.32087   0.33376   0.33892   0.34601   0.38039

 Mulliken atomic charges:
              1
     1  H    0.212965
     2  C   -0.595266
     3  H    0.207337
     4  H    0.177440
     5  C    0.753218
     6  O   -0.596029
     7  N   -0.770561
     8  H    0.379656
     9  C   -0.064654
    10  H    0.261902
    11  C   -0.500500
    12  H    0.164890
    13  H    0.157044
    14  H    0.203897
    15  C    0.747044
    16  O   -0.610036
    17  N   -0.807515
    18  H    0.397134
    19  C   -0.269727
    20  H    0.198832
    21  H    0.185791
    22  H    0.167138
 Sum of Mulliken atomic charges =   0.00000

 Dipole moment (field-independent basis, Debye):
    X=             -3.2628    Y=              2.1983    Z=             -3.5594  Tot=              5.3054
 Quadrupole moment (field-independent basis, Debye-Ang):
   XX=            -53.4420   YY=            -62.0296   ZZ=            -62.3529
   XY=             -6.0371   XZ=             -7.4660   YZ=              2.1677

 Normal termination of Gaussian 09 at Fri Feb 10 15:06:35 2017.
