 Gaussian 09, Revision A.02,
 Gaussian 09:  EM64L-G09RevA.02 11-Jun-2009

 -------------------------------------------
 # HF/6-31G* Opt=(ModRedundant) geom=nocrowd
 -------------------------------------------

 ------------------
 Phi Psi fixed scan
 ------------------
 Symbolic Z-matrix:
 Charge =  0 Multiplicity = 1

 SCF Done:  E(RHF) =  -492.851684848     A.U. after   15 cycles
 SCF Done:  E(RHF) =  -492.857379178     A.U. after   13 cycles
 SCF Done:  E(RHF) =  -492.857835208     A.U. after   13 cycles
 SCF Done:  E(RHF) =  -492.858481191     A.U. after   13 cycles
 SCF Done:  E(RHF) =  -492.858822802     A.U. after   13 cycles
 SCF Done:  E(RHF) =  -492.858883548     A.U. after   13 cycles
 SCF Done:  E(RHF) =  -492.858852709     A.U. after   12 cycles
 SCF Done:  E(RHF) =  -492.858991798     A.U. after   13 cycles
 SCF Done:  E(RHF) =  -492.859002962     A.U. after   10 cycles
 SCF Done:  E(RHF) =  -492.859032770     A.U. after   11 cycles
 SCF Done:  E(RHF) =  -492.859292707     A.U. after   11 cycles
 SCF Done:  E(RHF) =  -492.859250639     A.U. after   12 cycles
 SCF Done:  E(RHF) =  -492.859314203     A.U. after   11 cycles
 SCF Done:  E(RHF) =  -492.859321017     A.U. after   11 cycles
 SCF Done:  E(RHF) =  -492.859325921     A.U. after   11 cycles
 SCF Done:  E(RHF) =  -492.859333847     A.U. after   11 cycles
 SCF Done:  E(RHF) =  -492.859342166     A.U. after   10 cycles
 SCF Done:  E(RHF) =  -492.859346973     A.U. after   11 cycles
 SCF Done:  E(RHF) =  -492.859347088     A.U. after    8 cycles
 SCF Done:  E(RHF) =  -492.859347117     A.U. after    8 cycles
 Optimization completed.
    -- Stationary point found.

                         Standard orientation:
 ---------------------------------------------------------------------
 Center     Atomic      Atomic             Coordinates (Angstroms)
 Number     Number       Type             X           Y           Z
 ---------------------------------------------------------------------
      1          1           0       -4.022728   -1.184840    0.179813
      2          6           0       -3.170767   -0.845137    0.750502
      3          1           0       -2.798479   -1.674416    1.344669
      4          1           0       -3.472384   -0.052813    1.425767
      5          6           0       -2.087609   -0.394476   -0.205093
      6          8           0       -2.047114   -0.765540   -1.346715
      7          7           0       -1.171916    0.455047    0.329551
      8          1           0       -1.145857    0.557400    1.320447
      9          6           0        0.041885    0.819244   -0.366986
     10          1           0       -0.090521    0.521774   -1.395536
     11          6           0        0.288262    2.327184   -0.290786
     12          1           0        0.389552    2.643831    0.740981
     13          1           0        1.198141    2.596006   -0.817990
     14          1           0       -0.542717    2.857913   -0.739772
     15          6           0        1.219088    0.080657    0.267533
     16          8           0        1.353271    0.059843    1.463785
     17          7           0        2.093518   -0.487674   -0.582995
     18          1           0        1.835724   -0.574151   -1.538818
     19          6           0        3.234403   -1.242147   -0.107546
     20          1           0        3.735978   -0.687716    0.671652
     21          1           0        2.941535   -2.207243    0.291409
     22          1           0        3.919717   -1.393731   -0.930822
 ---------------------------------------------------------------------

 The electronic state is 1-A.
 Alpha  occ. eigenvalues --  -20.52659 -20.52291 -15.59230 -15.58267 -11.34877
 Alpha  occ. eigenvalues --  -11.34618 -11.27746 -11.26103 -11.23080 -11.22589
 Alpha  occ. eigenvalues --   -1.39763  -1.38873  -1.24018  -1.23623  -1.05672
 Alpha  occ. eigenvalues --   -0.99246  -0.96369  -0.87693  -0.80158  -0.78803
 Alpha  occ. eigenvalues --   -0.73284  -0.67341  -0.66095  -0.64238  -0.62602
 Alpha  occ. eigenvalues --   -0.62205  -0.60069  -0.58451  -0.57643  -0.56608
 Alpha  occ. eigenvalues --   -0.55718  -0.53907  -0.52531  -0.51863  -0.50323
 Alpha  occ. eigenvalues --   -0.43048  -0.41897  -0.39746  -0.38315
 Alpha virt. eigenvalues --    0.19358   0.20608   0.22030   0.23417   0.26568
 Alpha virt. eigenvalues --    0.26895   0.29311   0.30319   0.31050   0.31426
 Alpha virt. eigenvalues --    0.32477   0.33424   0.33747   0.34954   0.37767

 Mulliken atomic charges:
              1
     1  H    0.213143
     2  C   -0.587718
     3  H    0.199987
     4  H    0.181959
     5  C    0.743476
     6  O   -0.609761
     7  N   -0.784664
     8  H    0.399070
     9  C   -0.069969
    10  H    0.229644
    11  C   -0.481243
    12  H    0.184893
    13  H    0.170650
    14  H    0.185525
    15  C    0.777775
    16  O   -0.633730
    17  N   -0.792587
    18  H    0.392566
    19  C   -0.276235
    20  H    0.205354
    21  H    0.180481
    22  H    0.171384
 Sum of Mulliken atomic charges =   0.00000

 Dipole moment (field-independent basis, Debye):
    X=              1.0340    Y=              0.4527    Z=             -0.2239  Tot=              1.1508
 Quadrupole moment (field-independent basis, Debye-Ang):
   XX=            -55.2466   YY=            -58.7209   ZZ=            -65.3232
   XY=             -3.9011   XZ=            -13.5914   YZ=             -2.0425

 Normal termination of Gaussian 09 at Fri Feb 10 14:38:03 2017.
