 Gaussian 09, Revision A.02,
 Gaussian 09:  EM64L-G09RevA.02 11-Jun-2009

 -------------------------------------------
 # HF/6-31G* Opt=(ModRedundant) geom=nocrowd
 -------------------------------------------

 ------------------
 Phi Psi fixed scan
 ------------------
 Symbolic Z-matrix:
 Charge =  0 Multiplicity = 1

 SCF Done:  E(RHF) =  -492.833556286     A.U. after   15 cycles
 SCF Done:  E(RHF) =  -492.844299803     A.U. after   14 cycles
 SCF Done:  E(RHF) =  -492.846881879     A.U. after   16 cycles
 SCF Done:  E(RHF) =  -492.847257028     A.U. after   13 cycles
 SCF Done:  E(RHF) =  -492.847378356     A.U. after   13 cycles
 SCF Done:  E(RHF) =  -492.847618248     A.U. after   12 cycles
 SCF Done:  E(RHF) =  -492.847781326     A.U. after   13 cycles
 SCF Done:  E(RHF) =  -492.847907461     A.U. after   11 cycles
 SCF Done:  E(RHF) =  -492.847980729     A.U. after   12 cycles
 SCF Done:  E(RHF) =  -492.848003557     A.U. after   11 cycles
 SCF Done:  E(RHF) =  -492.848357850     A.U. after   12 cycles
 SCF Done:  E(RHF) =  -492.848399456     A.U. after   12 cycles
 SCF Done:  E(RHF) =  -492.848353543     A.U. after   14 cycles
 SCF Done:  E(RHF) =  -492.848468562     A.U. after   11 cycles
 SCF Done:  E(RHF) =  -492.848572775     A.U. after   12 cycles
 SCF Done:  E(RHF) =  -492.848593346     A.U. after   11 cycles
 SCF Done:  E(RHF) =  -492.848591959     A.U. after    9 cycles
 SCF Done:  E(RHF) =  -492.848593361     A.U. after   10 cycles
 SCF Done:  E(RHF) =  -492.848602838     A.U. after   11 cycles
 SCF Done:  E(RHF) =  -492.848603144     A.U. after    8 cycles
 Optimization completed.
    -- Stationary point found.

                         Standard orientation:
 ---------------------------------------------------------------------
 Center     Atomic      Atomic             Coordinates (Angstroms)
 Number     Number       Type             X           Y           Z
 ---------------------------------------------------------------------
      1          1           0        4.008026   -1.092555   -0.601606
      2          6           0        2.984629   -1.067256   -0.945869
      3          1           0        2.592636   -2.079873   -0.944592
      4          1           0        2.949926   -0.690099   -1.962128
      5          6           0        2.167911   -0.219646    0.005625
      6          8           0        2.524980    0.012306    1.123757
      7          7           0        1.004076    0.264070   -0.518784
      8          1           0        0.737435   -0.060323   -1.421726
      9          6           0       -0.033330    0.861703    0.303267
     10          1           0        0.381113    0.946874    1.294174
     11          6           0       -0.411891    2.249447   -0.211747
     12          1           0       -0.702596    2.234967   -1.258903
     13          1           0       -1.226295    2.675718    0.366003
     14          1           0        0.445103    2.905993   -0.126621
     15          6           0       -1.188258   -0.140047    0.434274
     16          8           0       -1.176099   -0.985429    1.283618
     17          7           0       -2.164881   -0.072969   -0.504314
     18          1           0       -2.248371    0.751841   -1.049993
     19          6           0       -3.315255   -0.951392   -0.436933
     20          1           0       -2.985707   -1.974650   -0.334999
     21          1           0       -3.957387   -0.715038    0.404757
     22          1           0       -3.882129   -0.852431   -1.353372
 ---------------------------------------------------------------------

 The electronic state is 1-A.
 Alpha  occ. eigenvalues --  -20.52526 -20.52202 -15.59127 -15.58869 -11.34834
 Alpha  occ. eigenvalues --  -11.34537 -11.27813 -11.26170 -11.23607 -11.23193
 Alpha  occ. eigenvalues --   -1.39685  -1.38906  -1.24484  -1.23184  -1.05896
 Alpha  occ. eigenvalues --   -0.99417  -0.95976  -0.88931  -0.79705  -0.79475
 Alpha  occ. eigenvalues --   -0.73057  -0.67245  -0.65908  -0.64809  -0.62900
 Alpha  occ. eigenvalues --   -0.61858  -0.59344  -0.58778  -0.57838  -0.56767
 Alpha  occ. eigenvalues --   -0.55930  -0.54830  -0.52531  -0.51832  -0.50790
 Alpha  occ. eigenvalues --   -0.43712  -0.41621  -0.39554  -0.38101
 Alpha virt. eigenvalues --    0.18469   0.20091   0.21973   0.23470   0.25614
 Alpha virt. eigenvalues --    0.27794   0.28329   0.29783   0.30320   0.31317
 Alpha virt. eigenvalues --    0.32935   0.33164   0.33578   0.34239   0.37379

 Mulliken atomic charges:
              1
     1  H    0.216107
     2  C   -0.590874
     3  H    0.202379
     4  H    0.173916
     5  C    0.753853
     6  O   -0.588036
     7  N   -0.798443
     8  H    0.379492
     9  C   -0.053165
    10  H    0.267927
    11  C   -0.499673
    12  H    0.145658
    13  H    0.175888
    14  H    0.201081
    15  C    0.743750
    16  O   -0.595190
    17  N   -0.800531
    18  H    0.389458
    19  C   -0.274712
    20  H    0.204688
    21  H    0.179985
    22  H    0.166441
 Sum of Mulliken atomic charges =   0.00000

 Dipole moment (field-independent basis, Debye):
    X=             -2.6319    Y=              1.7024    Z=             -5.7524  Tot=              6.5510
 Quadrupole moment (field-independent basis, Debye-Ang):
   XX=            -57.6973   YY=            -58.9889   ZZ=            -64.2318
   XY=             -4.7479   XZ=             -3.3496   YZ=              3.9738

 Normal termination of Gaussian 09 at Fri Feb 10 15:16:22 2017.
