 Gaussian 09, Revision A.02,
 Gaussian 09:  EM64L-G09RevA.02 11-Jun-2009

 -------------------------------------------
 # HF/6-31G* Opt=(ModRedundant) geom=nocrowd
 -------------------------------------------

 ------------------
 Phi Psi fixed scan
 ------------------
 Symbolic Z-matrix:
 Charge =  0 Multiplicity = 1

 SCF Done:  E(RHF) =  -492.841034331     A.U. after   15 cycles
 SCF Done:  E(RHF) =  -492.849376594     A.U. after   13 cycles
 SCF Done:  E(RHF) =  -492.851768060     A.U. after   13 cycles
 SCF Done:  E(RHF) =  -492.852799980     A.U. after   13 cycles
 SCF Done:  E(RHF) =  -492.853903441     A.U. after   15 cycles
 SCF Done:  E(RHF) =  -492.853980986     A.U. after   13 cycles
 SCF Done:  E(RHF) =  -492.854393977     A.U. after   13 cycles
 SCF Done:  E(RHF) =  -492.854435450     A.U. after   12 cycles
 SCF Done:  E(RHF) =  -492.854491860     A.U. after   12 cycles
 SCF Done:  E(RHF) =  -492.854515212     A.U. after   11 cycles
 SCF Done:  E(RHF) =  -492.854855666     A.U. after   13 cycles
 SCF Done:  E(RHF) =  -492.854851618     A.U. after   13 cycles
 SCF Done:  E(RHF) =  -492.854843370     A.U. after   11 cycles
 SCF Done:  E(RHF) =  -492.854918429     A.U. after   11 cycles
 SCF Done:  E(RHF) =  -492.855026212     A.U. after   12 cycles
 SCF Done:  E(RHF) =  -492.855032388     A.U. after   11 cycles
 SCF Done:  E(RHF) =  -492.855034306     A.U. after   10 cycles
 SCF Done:  E(RHF) =  -492.855035435     A.U. after    8 cycles
 SCF Done:  E(RHF) =  -492.855036123     A.U. after    9 cycles
 SCF Done:  E(RHF) =  -492.855036268     A.U. after    8 cycles
 Optimization completed.
    -- Stationary point found.

                         Standard orientation:
 ---------------------------------------------------------------------
 Center     Atomic      Atomic             Coordinates (Angstroms)
 Number     Number       Type             X           Y           Z
 ---------------------------------------------------------------------
      1          1           0        4.118957   -1.026654    0.076011
      2          6           0        3.214255   -0.961889   -0.510250
      3          1           0        2.812993   -1.960646   -0.653722
      4          1           0        3.436928   -0.543489   -1.485569
      5          6           0        2.200166   -0.123258    0.234093
      6          8           0        2.319261    0.152604    1.394405
      7          7           0        1.150701    0.309816   -0.527761
      8          1           0        1.005978   -0.194902   -1.374871
      9          6           0       -0.058587    0.792286    0.097683
     10          1           0        0.157147    0.904440    1.151851
     11          6           0       -0.449881    2.155504   -0.485315
     12          1           0       -0.715349    2.072768   -1.534211
     13          1           0       -1.284927    2.608749    0.037971
     14          1           0        0.395136    2.826518   -0.400362
     15          6           0       -1.152154   -0.277864   -0.039835
     16          8           0       -0.889394   -1.397978   -0.387474
     17          7           0       -2.419376    0.119122    0.204780
     18          1           0       -2.572303    1.003707    0.628308
     19          6           0       -3.509207   -0.835571    0.221180
     20          1           0       -3.490941   -1.424065   -0.684030
     21          1           0       -3.445841   -1.508947    1.068998
     22          1           0       -4.443551   -0.292301    0.269716
 ---------------------------------------------------------------------

 The electronic state is 1-A.
 Alpha  occ. eigenvalues --  -20.53082 -20.52161 -15.59201 -15.57637 -11.34981
 Alpha  occ. eigenvalues --  -11.34371 -11.27853 -11.26219 -11.23193 -11.22559
 Alpha  occ. eigenvalues --   -1.40123  -1.38737  -1.23927  -1.23408  -1.05569
 Alpha  occ. eigenvalues --   -0.99017  -0.95917  -0.88392  -0.79824  -0.78484
 Alpha  occ. eigenvalues --   -0.73287  -0.67153  -0.65767  -0.64085  -0.63068
 Alpha  occ. eigenvalues --   -0.61921  -0.59622  -0.58728  -0.57199  -0.56327
 Alpha  occ. eigenvalues --   -0.55853  -0.54185  -0.53661  -0.51718  -0.49730
 Alpha  occ. eigenvalues --   -0.42585  -0.41616  -0.39732  -0.39121
 Alpha virt. eigenvalues --    0.19256   0.20382   0.21581   0.23886   0.26186
 Alpha virt. eigenvalues --    0.27815   0.29217   0.30175   0.31323   0.31648
 Alpha virt. eigenvalues --    0.31829   0.33324   0.33610   0.34388   0.38256

 Mulliken atomic charges:
              1
     1  H    0.211795
     2  C   -0.594861
     3  H    0.205485
     4  H    0.182576
     5  C    0.742358
     6  O   -0.599813
     7  N   -0.762615
     8  H    0.388393
     9  C   -0.089451
    10  H    0.254720
    11  C   -0.470339
    12  H    0.171134
    13  H    0.148401
    14  H    0.196120
    15  C    0.760425
    16  O   -0.617585
    17  N   -0.795296
    18  H    0.388209
    19  C   -0.273590
    20  H    0.203926
    21  H    0.180686
    22  H    0.169323
 Sum of Mulliken atomic charges =   0.00000

 Dipole moment (field-independent basis, Debye):
    X=             -2.8802    Y=              1.8545    Z=             -1.8490  Tot=              3.8928
 Quadrupole moment (field-independent basis, Debye-Ang):
   XX=            -52.6757   YY=            -62.0103   ZZ=            -63.0455
   XY=             -5.7290   XZ=            -10.3940   YZ=              0.1981

 Normal termination of Gaussian 09 at Fri Feb 10 14:48:27 2017.
