 Gaussian 09, Revision A.02,
 Gaussian 09:  EM64L-G09RevA.02 11-Jun-2009

 -------------------------------------------
 # HF/6-31G* Opt=(ModRedundant) geom=nocrowd
 -------------------------------------------

 ------------------
 Phi Psi fixed scan
 ------------------
 Symbolic Z-matrix:
 Charge =  0 Multiplicity = 1

 SCF Done:  E(RHF) =  -492.845690674     A.U. after   15 cycles
 SCF Done:  E(RHF) =  -492.852937431     A.U. after   13 cycles
 SCF Done:  E(RHF) =  -492.854373756     A.U. after   13 cycles
 SCF Done:  E(RHF) =  -492.855225035     A.U. after   14 cycles
 SCF Done:  E(RHF) =  -492.856196981     A.U. after   13 cycles
 SCF Done:  E(RHF) =  -492.856265178     A.U. after   13 cycles
 SCF Done:  E(RHF) =  -492.856600770     A.U. after   13 cycles
 SCF Done:  E(RHF) =  -492.856637658     A.U. after   12 cycles
 SCF Done:  E(RHF) =  -492.856667230     A.U. after   11 cycles
 SCF Done:  E(RHF) =  -492.856733104     A.U. after   12 cycles
 SCF Done:  E(RHF) =  -492.856785357     A.U. after   11 cycles
 SCF Done:  E(RHF) =  -492.856922757     A.U. after   12 cycles
 SCF Done:  E(RHF) =  -492.856988412     A.U. after   11 cycles
 SCF Done:  E(RHF) =  -492.857039614     A.U. after   11 cycles
 SCF Done:  E(RHF) =  -492.857101714     A.U. after   12 cycles
 SCF Done:  E(RHF) =  -492.857111363     A.U. after   10 cycles
 SCF Done:  E(RHF) =  -492.857123529     A.U. after   11 cycles
 SCF Done:  E(RHF) =  -492.857127261     A.U. after   11 cycles
 SCF Done:  E(RHF) =  -492.857130076     A.U. after   10 cycles
 SCF Done:  E(RHF) =  -492.857130919     A.U. after    9 cycles
 Optimization completed.
    -- Stationary point found.

                         Standard orientation:
 ---------------------------------------------------------------------
 Center     Atomic      Atomic             Coordinates (Angstroms)
 Number     Number       Type             X           Y           Z
 ---------------------------------------------------------------------
      1          1           0        4.108167   -1.052837    0.182229
      2          6           0        3.233546   -0.959719   -0.444493
      3          1           0        2.839414   -1.950252   -0.651246
      4          1           0        3.504318   -0.500620   -1.388714
      5          6           0        2.186119   -0.148489    0.284501
      6          8           0        2.252912    0.081897    1.459450
      7          7           0        1.173247    0.313819   -0.506889
      8          1           0        1.055447   -0.159860   -1.376234
      9          6           0       -0.055213    0.798545    0.074641
     10          1           0        0.120070    0.916943    1.134831
     11          6           0       -0.436801    2.153726   -0.535258
     12          1           0       -0.623501    2.058487   -1.600156
     13          1           0       -1.324731    2.574174   -0.077066
     14          1           0        0.381376    2.848694   -0.394614
     15          6           0       -1.159234   -0.247255   -0.127040
     16          8           0       -0.964185   -1.260928   -0.742865
     17          7           0       -2.372138    0.075911    0.371141
     18          1           0       -2.435219    0.835828    1.008521
     19          6           0       -3.476425   -0.860732    0.324376
     20          1           0       -3.577591   -1.250814   -0.677298
     21          1           0       -3.332046   -1.693468    1.004290
     22          1           0       -4.385231   -0.338592    0.592647
 ---------------------------------------------------------------------

 The electronic state is 1-A.
 Alpha  occ. eigenvalues --  -20.53244 -20.52217 -15.59190 -15.57608 -11.34990
 Alpha  occ. eigenvalues --  -11.34455 -11.27808 -11.26225 -11.23052 -11.22628
 Alpha  occ. eigenvalues --   -1.40194  -1.38790  -1.23967  -1.23435  -1.05598
 Alpha  occ. eigenvalues --   -0.99058  -0.95995  -0.88139  -0.79922  -0.78391
 Alpha  occ. eigenvalues --   -0.73294  -0.67226  -0.65944  -0.63766  -0.63207
 Alpha  occ. eigenvalues --   -0.62043  -0.59752  -0.58666  -0.57284  -0.56430
 Alpha  occ. eigenvalues --   -0.55879  -0.54127  -0.53460  -0.51754  -0.49825
 Alpha  occ. eigenvalues --   -0.42735  -0.41713  -0.39893  -0.38912
 Alpha virt. eigenvalues --    0.19231   0.20483   0.21357   0.23922   0.26308
 Alpha virt. eigenvalues --    0.27702   0.29428   0.30604   0.31276   0.31740
 Alpha virt. eigenvalues --    0.32094   0.32789   0.33603   0.34109   0.37702

 Mulliken atomic charges:
              1
     1  H    0.211842
     2  C   -0.593270
     3  H    0.202984
     4  H    0.184392
     5  C    0.738769
     6  O   -0.601396
     7  N   -0.765728
     8  H    0.394218
     9  C   -0.092284
    10  H    0.245518
    11  C   -0.465857
    12  H    0.171429
    13  H    0.156601
    14  H    0.192441
    15  C    0.765436
    16  O   -0.621059
    17  N   -0.789819
    18  H    0.385161
    19  C   -0.274538
    20  H    0.205048
    21  H    0.179853
    22  H    0.170261
 Sum of Mulliken atomic charges =   0.00000

 Dipole moment (field-independent basis, Debye):
    X=             -2.5322    Y=              1.6199    Z=             -1.1298  Tot=              3.2113
 Quadrupole moment (field-independent basis, Debye-Ang):
   XX=            -52.8976   YY=            -61.4702   ZZ=            -63.6721
   XY=             -4.9170   XZ=            -11.6370   YZ=             -0.5921

 Normal termination of Gaussian 09 at Fri Feb 10 14:45:43 2017.
