 Gaussian 09, Revision A.02,
 Gaussian 09:  EM64L-G09RevA.02 11-Jun-2009

 -------------------------------------------
 # HF/6-31G* Opt=(ModRedundant) geom=nocrowd
 -------------------------------------------

 ------------------
 Phi Psi fixed scan
 ------------------
 Symbolic Z-matrix:
 Charge =  0 Multiplicity = 1

 SCF Done:  E(RHF) =  -492.848336299     A.U. after   15 cycles
 SCF Done:  E(RHF) =  -492.855190377     A.U. after   14 cycles
 SCF Done:  E(RHF) =  -492.856268542     A.U. after   13 cycles
 SCF Done:  E(RHF) =  -492.856436254     A.U. after   13 cycles
 SCF Done:  E(RHF) =  -492.856569731     A.U. after   13 cycles
 SCF Done:  E(RHF) =  -492.856679448     A.U. after   12 cycles
 SCF Done:  E(RHF) =  -492.856713393     A.U. after   12 cycles
 SCF Done:  E(RHF) =  -492.856749765     A.U. after   12 cycles
 SCF Done:  E(RHF) =  -492.856766179     A.U. after   10 cycles
 SCF Done:  E(RHF) =  -492.856851082     A.U. after   12 cycles
 SCF Done:  E(RHF) =  -492.857174351     A.U. after   12 cycles
 SCF Done:  E(RHF) =  -492.857151996     A.U. after   11 cycles
 SCF Done:  E(RHF) =  -492.857187741     A.U. after   11 cycles
 SCF Done:  E(RHF) =  -492.857171445     A.U. after   12 cycles
 SCF Done:  E(RHF) =  -492.857191094     A.U. after   11 cycles
 SCF Done:  E(RHF) =  -492.857200938     A.U. after   10 cycles
 SCF Done:  E(RHF) =  -492.857206510     A.U. after   11 cycles
 SCF Done:  E(RHF) =  -492.857206889     A.U. after    8 cycles
 SCF Done:  E(RHF) =  -492.857206952     A.U. after    8 cycles
 SCF Done:  E(RHF) =  -492.857206959     A.U. after    7 cycles
 Optimization completed.
    -- Stationary point found.

                         Standard orientation:
 ---------------------------------------------------------------------
 Center     Atomic      Atomic             Coordinates (Angstroms)
 Number     Number       Type             X           Y           Z
 ---------------------------------------------------------------------
      1          1           0        3.674738   -1.597924   -0.158297
      2          6           0        3.188993   -0.753257   -0.624761
      3          1           0        2.917007   -1.004416   -1.643900
      4          1           0        3.892266    0.073327   -0.654998
      5          6           0        1.992939   -0.351134    0.211681
      6          8           0        1.922261   -0.594915    1.383551
      7          7           0        1.013340    0.311619   -0.460381
      8          1           0        1.171803    0.532824   -1.417797
      9          6           0       -0.092327    0.982768    0.200814
     10          1           0        0.145757    1.004028    1.255766
     11          6           0       -0.239631    2.413696   -0.313623
     12          1           0       -0.438937    2.425929   -1.382019
     13          1           0       -1.063283    2.904296    0.182929
     14          1           0        0.672692    2.969278   -0.127586
     15          6           0       -1.429495    0.238897    0.104363
     16          8           0       -2.452088    0.805582    0.386836
     17          7           0       -1.390829   -1.049017   -0.281674
     18          1           0       -0.504719   -1.488312   -0.358465
     19          6           0       -2.577348   -1.876110   -0.238045
     20          1           0       -3.393932   -1.369192   -0.730822
     21          1           0       -2.373424   -2.803906   -0.756301
     22          1           0       -2.877718   -2.098644    0.780207
 ---------------------------------------------------------------------

 The electronic state is 1-A.
 Alpha  occ. eigenvalues --  -20.53457 -20.51740 -15.59826 -15.58127 -11.36077
 Alpha  occ. eigenvalues --  -11.33976 -11.28029 -11.25444 -11.24397 -11.22485
 Alpha  occ. eigenvalues --   -1.40414  -1.38684  -1.25406  -1.22470  -1.05914
 Alpha  occ. eigenvalues --   -0.99976  -0.96048  -0.87863  -0.80904  -0.78595
 Alpha  occ. eigenvalues --   -0.73205  -0.68404  -0.67163  -0.63697  -0.62526
 Alpha  occ. eigenvalues --   -0.62187  -0.59785  -0.59235  -0.58406  -0.55580
 Alpha  occ. eigenvalues --   -0.55067  -0.54445  -0.53182  -0.52294  -0.49772
 Alpha  occ. eigenvalues --   -0.44086  -0.42883  -0.39245  -0.38032
 Alpha virt. eigenvalues --    0.19094   0.19638   0.21207   0.24559   0.25973
 Alpha virt. eigenvalues --    0.27710   0.28409   0.29454   0.30483   0.31444
 Alpha virt. eigenvalues --    0.32549   0.33080   0.33712   0.34990   0.37447

 Mulliken atomic charges:
              1
     1  H    0.217651
     2  C   -0.587904
     3  H    0.174382
     4  H    0.204379
     5  C    0.731355
     6  O   -0.593418
     7  N   -0.824814
     8  H    0.386140
     9  C   -0.048814
    10  H    0.255546
    11  C   -0.494042
    12  H    0.157612
    13  H    0.220796
    14  H    0.172187
    15  C    0.770411
    16  O   -0.623914
    17  N   -0.792934
    18  H    0.400380
    19  C   -0.272729
    20  H    0.201520
    21  H    0.165640
    22  H    0.180570
 Sum of Mulliken atomic charges =   0.00000

 Dipole moment (field-independent basis, Debye):
    X=              2.7896    Y=             -1.0718    Z=             -4.1666  Tot=              5.1275
 Quadrupole moment (field-independent basis, Debye-Ang):
   XX=            -65.2973   YY=            -56.2991   ZZ=            -63.1348
   XY=              7.2748   XZ=             -5.2516   YZ=              1.6146

 Normal termination of Gaussian 09 at Fri Feb 10 14:04:54 2017.
