 Gaussian 09, Revision A.02,
 Gaussian 09:  EM64L-G09RevA.02 11-Jun-2009

 -------------------------------------------
 # HF/6-31G* Opt=(ModRedundant) geom=nocrowd
 -------------------------------------------

 ------------------
 Phi Psi fixed scan
 ------------------
 Symbolic Z-matrix:
 Charge =  0 Multiplicity = 1

 SCF Done:  E(RHF) =  -492.850578245     A.U. after   15 cycles
 SCF Done:  E(RHF) =  -492.856623301     A.U. after   13 cycles
 SCF Done:  E(RHF) =  -492.857366702     A.U. after   13 cycles
 SCF Done:  E(RHF) =  -492.858112034     A.U. after   13 cycles
 SCF Done:  E(RHF) =  -492.858656470     A.U. after   16 cycles
 SCF Done:  E(RHF) =  -492.858629958     A.U. after   13 cycles
 SCF Done:  E(RHF) =  -492.858904910     A.U. after   13 cycles
 SCF Done:  E(RHF) =  -492.858934508     A.U. after   12 cycles
 SCF Done:  E(RHF) =  -492.858946455     A.U. after   10 cycles
 SCF Done:  E(RHF) =  -492.858978381     A.U. after   11 cycles
 SCF Done:  E(RHF) =  -492.859152739     A.U. after   12 cycles
 SCF Done:  E(RHF) =  -492.859187325     A.U. after   11 cycles
 SCF Done:  E(RHF) =  -492.859211496     A.U. after   11 cycles
 SCF Done:  E(RHF) =  -492.859233005     A.U. after   11 cycles
 SCF Done:  E(RHF) =  -492.859241743     A.U. after   11 cycles
 SCF Done:  E(RHF) =  -492.859271446     A.U. after   12 cycles
 SCF Done:  E(RHF) =  -492.859287845     A.U. after   11 cycles
 SCF Done:  E(RHF) =  -492.859289847     A.U. after   10 cycles
 SCF Done:  E(RHF) =  -492.859290290     A.U. after    9 cycles
 SCF Done:  E(RHF) =  -492.859290346     A.U. after    8 cycles
 Optimization completed.
    -- Stationary point found.

                         Standard orientation:
 ---------------------------------------------------------------------
 Center     Atomic      Atomic             Coordinates (Angstroms)
 Number     Number       Type             X           Y           Z
 ---------------------------------------------------------------------
      1          1           0        4.058895   -1.164930    0.021041
      2          6           0        3.209899   -0.909583   -0.595927
      3          1           0        2.829481   -1.814940   -1.059660
      4          1           0        3.517448   -0.230665   -1.383042
      5          6           0        2.131376   -0.304623    0.275613
      6          8           0        2.121117   -0.437695    1.468627
      7          7           0        1.185636    0.404443   -0.399666
      8          1           0        1.124084    0.264041   -1.384805
      9          6           0       -0.045415    0.820268    0.230352
     10          1           0        0.089839    0.699566    1.294451
     11          6           0       -0.356037    2.286384   -0.088549
     12          1           0       -0.464426    2.428079   -1.158508
     13          1           0       -1.276854    2.603211    0.389757
     14          1           0        0.453110    2.914986    0.262805
     15          6           0       -1.191431   -0.060904   -0.266913
     16          8           0       -1.199146   -0.489292   -1.391457
     17          7           0       -2.202944   -0.255243    0.601161
     18          1           0       -2.060024   -0.017564    1.555554
     19          6           0       -3.346680   -1.076643    0.262813
     20          1           0       -3.710597   -0.805002   -0.716907
     21          1           0       -3.097810   -2.132263    0.256601
     22          1           0       -4.128031   -0.902411    0.990546
 ---------------------------------------------------------------------

 The electronic state is 1-A.
 Alpha  occ. eigenvalues --  -20.52920 -20.52252 -15.59254 -15.57928 -11.34771
 Alpha  occ. eigenvalues --  -11.34696 -11.27747 -11.26184 -11.22888 -11.22776
 Alpha  occ. eigenvalues --   -1.39931  -1.38837  -1.23990  -1.23565  -1.05666
 Alpha  occ. eigenvalues --   -0.99174  -0.96280  -0.87779  -0.80138  -0.78578
 Alpha  occ. eigenvalues --   -0.73293  -0.67296  -0.66055  -0.64021  -0.62821
 Alpha  occ. eigenvalues --   -0.62167  -0.60019  -0.58506  -0.57541  -0.56582
 Alpha  occ. eigenvalues --   -0.55810  -0.54010  -0.52862  -0.51827  -0.50087
 Alpha  occ. eigenvalues --   -0.42944  -0.41819  -0.39883  -0.38455
 Alpha virt. eigenvalues --    0.19332   0.20550   0.21678   0.23690   0.26493
 Alpha virt. eigenvalues --    0.27040   0.29540   0.30484   0.31191   0.31382
 Alpha virt. eigenvalues --    0.32450   0.33134   0.33736   0.34505   0.37623

 Mulliken atomic charges:
              1
     1  H    0.212597
     2  C   -0.589628
     3  H    0.199875
     4  H    0.184015
     5  C    0.740725
     6  O   -0.606439
     7  N   -0.778559
     8  H    0.399713
     9  C   -0.076588
    10  H    0.230994
    11  C   -0.476284
    12  H    0.179912
    13  H    0.169131
    14  H    0.188668
    15  C    0.772965
    16  O   -0.629815
    17  N   -0.792067
    18  H    0.388873
    19  C   -0.275111
    20  H    0.205155
    21  H    0.180851
    22  H    0.171016
 Sum of Mulliken atomic charges =   0.00000

 Dipole moment (field-independent basis, Debye):
    X=             -1.6449    Y=              0.9644    Z=              0.0260  Tot=              1.9069
 Quadrupole moment (field-independent basis, Debye-Ang):
   XX=            -54.0820   YY=            -59.1540   ZZ=            -65.4760
   XY=              0.2189   XZ=            -13.7402   YZ=              0.2438

 Normal termination of Gaussian 09 at Fri Feb 10 14:40:43 2017.
