 Gaussian 09, Revision A.02,
 Gaussian 09:  EM64L-G09RevA.02 11-Jun-2009

 -------------------------------------------
 # HF/6-31G* Opt=(ModRedundant) geom=nocrowd
 -------------------------------------------

 ------------------
 Phi Psi fixed scan
 ------------------
 Symbolic Z-matrix:
 Charge =  0 Multiplicity = 1

 SCF Done:  E(RHF) =  -492.832140516     A.U. after   15 cycles
 SCF Done:  E(RHF) =  -492.843765767     A.U. after   14 cycles
 SCF Done:  E(RHF) =  -492.846909724     A.U. after   14 cycles
 SCF Done:  E(RHF) =  -492.847296697     A.U. after   13 cycles
 SCF Done:  E(RHF) =  -492.847597042     A.U. after   13 cycles
 SCF Done:  E(RHF) =  -492.847868019     A.U. after   13 cycles
 SCF Done:  E(RHF) =  -492.848021270     A.U. after   17 cycles
 SCF Done:  E(RHF) =  -492.848243439     A.U. after   16 cycles
 SCF Done:  E(RHF) =  -492.848288296     A.U. after   11 cycles
 SCF Done:  E(RHF) =  -492.848307032     A.U. after   11 cycles
 SCF Done:  E(RHF) =  -492.848593009     A.U. after   11 cycles
 SCF Done:  E(RHF) =  -492.848275639     A.U. after   16 cycles
 SCF Done:  E(RHF) =  -492.848752716     A.U. after   13 cycles
 SCF Done:  E(RHF) =  -492.848745849     A.U. after   13 cycles
 SCF Done:  E(RHF) =  -492.848833225     A.U. after   11 cycles
 SCF Done:  E(RHF) =  -492.848835820     A.U. after   10 cycles
 SCF Done:  E(RHF) =  -492.848836832     A.U. after    9 cycles
 SCF Done:  E(RHF) =  -492.848837798     A.U. after   10 cycles
 SCF Done:  E(RHF) =  -492.848838118     A.U. after    8 cycles
 SCF Done:  E(RHF) =  -492.848838256     A.U. after    8 cycles
 Optimization completed.
    -- Stationary point found.

                         Standard orientation:
 ---------------------------------------------------------------------
 Center     Atomic      Atomic             Coordinates (Angstroms)
 Number     Number       Type             X           Y           Z
 ---------------------------------------------------------------------
      1          1           0        4.054373   -1.012424   -0.574815
      2          6           0        3.038977   -0.987824   -0.942059
      3          1           0        2.658729   -2.004060   -0.983142
      4          1           0        3.022740   -0.577164   -1.945761
      5          6           0        2.188764   -0.182829    0.016296
      6          8           0        2.518690    0.023458    1.147841
      7          7           0        1.027798    0.298429   -0.518032
      8          1           0        0.782042   -0.015124   -1.430794
      9          6           0       -0.042166    0.823460    0.309284
     10          1           0        0.349349    0.860257    1.313383
     11          6           0       -0.431465    2.233170   -0.132234
     12          1           0       -0.731299    2.266255   -1.176272
     13          1           0       -1.240155    2.630128    0.474303
     14          1           0        0.424173    2.887199   -0.020615
     15          6           0       -1.171978   -0.216916    0.354256
     16          8           0       -1.027736   -1.239744    0.964024
     17          7           0       -2.281045    0.033733   -0.378352
     18          1           0       -2.428979    0.945904   -0.738753
     19          6           0       -3.407959   -0.876288   -0.351763
     20          1           0       -3.072403   -1.881167   -0.562269
     21          1           0       -3.902233   -0.877812    0.613455
     22          1           0       -4.116280   -0.573477   -1.111622
 ---------------------------------------------------------------------

 The electronic state is 1-A.
 Alpha  occ. eigenvalues --  -20.52308 -20.52073 -15.59195 -15.58648 -11.34659
 Alpha  occ. eigenvalues --  -11.34544 -11.27813 -11.26195 -11.23513 -11.23003
 Alpha  occ. eigenvalues --   -1.39594  -1.38746  -1.24227  -1.23316  -1.05796
 Alpha  occ. eigenvalues --   -0.99299  -0.95943  -0.88905  -0.79583  -0.79479
 Alpha  occ. eigenvalues --   -0.73061  -0.67132  -0.65753  -0.64876  -0.62784
 Alpha  occ. eigenvalues --   -0.61793  -0.59152  -0.58838  -0.57620  -0.56549
 Alpha  occ. eigenvalues --   -0.55897  -0.54855  -0.52888  -0.51749  -0.50362
 Alpha  occ. eigenvalues --   -0.43314  -0.41482  -0.39436  -0.38220
 Alpha virt. eigenvalues --    0.18419   0.20442   0.22164   0.23555   0.25643
 Alpha virt. eigenvalues --    0.27940   0.28245   0.29963   0.30311   0.31356
 Alpha virt. eigenvalues --    0.32435   0.33240   0.33625   0.34439   0.37711

 Mulliken atomic charges:
              1
     1  H    0.215054
     2  C   -0.591778
     3  H    0.204440
     4  H    0.173863
     5  C    0.756532
     6  O   -0.590677
     7  N   -0.791770
     8  H    0.379077
     9  C   -0.049327
    10  H    0.264533
    11  C   -0.504866
    12  H    0.151721
    13  H    0.170596
    14  H    0.202802
    15  C    0.739866
    16  O   -0.600355
    17  N   -0.802410
    18  H    0.394184
    19  C   -0.273052
    20  H    0.202849
    21  H    0.182126
    22  H    0.166590
 Sum of Mulliken atomic charges =   0.00000

 Dipole moment (field-independent basis, Debye):
    X=             -2.9748    Y=              2.2162    Z=             -5.0545  Tot=              6.2697
 Quadrupole moment (field-independent basis, Debye-Ang):
   XX=            -55.9938   YY=            -60.5523   ZZ=            -63.0240
   XY=             -5.1869   XZ=             -4.9992   YZ=              3.9325

 Normal termination of Gaussian 09 at Fri Feb 10 15:13:40 2017.
