 Gaussian 09, Revision A.02,
 Gaussian 09:  EM64L-G09RevA.02 11-Jun-2009

 -------------------------------------------
 # HF/6-31G* Opt=(ModRedundant) geom=nocrowd
 -------------------------------------------

 ------------------
 Phi Psi fixed scan
 ------------------
 Symbolic Z-matrix:
 Charge =  0 Multiplicity = 1

 SCF Done:  E(RHF) =  -492.852502690     A.U. after   15 cycles
 SCF Done:  E(RHF) =  -492.858643962     A.U. after   13 cycles
 SCF Done:  E(RHF) =  -492.858955893     A.U. after   12 cycles
 SCF Done:  E(RHF) =  -492.858902607     A.U. after   13 cycles
 SCF Done:  E(RHF) =  -492.859156568     A.U. after   12 cycles
 SCF Done:  E(RHF) =  -492.859193795     A.U. after   11 cycles
 SCF Done:  E(RHF) =  -492.859225199     A.U. after   12 cycles
 SCF Done:  E(RHF) =  -492.859253221     A.U. after   10 cycles
 SCF Done:  E(RHF) =  -492.859315864     A.U. after   11 cycles
 SCF Done:  E(RHF) =  -492.859434891     A.U. after   12 cycles
 SCF Done:  E(RHF) =  -492.859668990     A.U. after   11 cycles
 SCF Done:  E(RHF) =  -492.859723569     A.U. after   11 cycles
 SCF Done:  E(RHF) =  -492.859730688     A.U. after   11 cycles
 SCF Done:  E(RHF) =  -492.859745929     A.U. after   12 cycles
 SCF Done:  E(RHF) =  -492.859747835     A.U. after   10 cycles
 SCF Done:  E(RHF) =  -492.859749768     A.U. after   10 cycles
 SCF Done:  E(RHF) =  -492.859752810     A.U. after   10 cycles
 SCF Done:  E(RHF) =  -492.859756244     A.U. after   10 cycles
 SCF Done:  E(RHF) =  -492.859756811     A.U. after    9 cycles
 SCF Done:  E(RHF) =  -492.859756858     A.U. after    8 cycles
 Optimization completed.
    -- Stationary point found.

                         Standard orientation:
 ---------------------------------------------------------------------
 Center     Atomic      Atomic             Coordinates (Angstroms)
 Number     Number       Type             X           Y           Z
 ---------------------------------------------------------------------
      1          1           0       -3.424361   -1.733155    0.777684
      2          6           0       -3.134002   -0.693472    0.830852
      3          1           0       -2.947381   -0.418931    1.862390
      4          1           0       -3.957431   -0.092476    0.458553
      5          6           0       -1.933096   -0.474917   -0.062178
      6          8           0       -1.781481   -1.092854   -1.084244
      7          7           0       -1.055873    0.466782    0.353670
      8          1           0       -1.207966    0.929632    1.220978
      9          6           0        0.061282    0.913564   -0.463343
     10          1           0       -0.117118    0.537285   -1.458329
     11          6           0        0.148364    2.434045   -0.485378
     12          1           0        0.322612    2.825211    0.509262
     13          1           0        0.971652    2.756265   -1.112689
     14          1           0       -0.771117    2.852267   -0.879597
     15          6           0        1.339088    0.292739    0.105815
     16          8           0        1.983042    0.835792    0.963027
     17          7           0        1.657366   -0.907279   -0.420367
     18          1           0        0.972333   -1.356992   -0.986849
     19          6           0        2.733288   -1.708409    0.121868
     20          1           0        3.608278   -1.090888    0.260491
     21          1           0        2.471067   -2.150650    1.077841
     22          1           0        2.966951   -2.498891   -0.578937
 ---------------------------------------------------------------------

 The electronic state is 1-A.
 Alpha  occ. eigenvalues --  -20.53042 -20.52195 -15.59602 -15.58058 -11.35834
 Alpha  occ. eigenvalues --  -11.33992 -11.27821 -11.25347 -11.23993 -11.22274
 Alpha  occ. eigenvalues --   -1.40004  -1.38839  -1.24852  -1.22731  -1.05845
 Alpha  occ. eigenvalues --   -0.99760  -0.96081  -0.87534  -0.80728  -0.78371
 Alpha  occ. eigenvalues --   -0.72849  -0.68109  -0.66867  -0.64379  -0.62403
 Alpha  occ. eigenvalues --   -0.61750  -0.60165  -0.59028  -0.57927  -0.55940
 Alpha  occ. eigenvalues --   -0.54842  -0.53643  -0.52224  -0.51776  -0.51604
 Alpha  occ. eigenvalues --   -0.43503  -0.42667  -0.38828  -0.38430
 Alpha virt. eigenvalues --    0.18563   0.21292   0.21929   0.24194   0.26177
 Alpha virt. eigenvalues --    0.27063   0.28218   0.30244   0.31220   0.32063
 Alpha virt. eigenvalues --    0.32613   0.33407   0.34116   0.35107   0.37731

 Mulliken atomic charges:
              1
     1  H    0.213906
     2  C   -0.579805
     3  H    0.175070
     4  H    0.205423
     5  C    0.751207
     6  O   -0.622761
     7  N   -0.798192
     8  H    0.393619
     9  C   -0.075485
    10  H    0.235857
    11  C   -0.483724
    12  H    0.189042
    13  H    0.181412
    14  H    0.171507
    15  C    0.783030
    16  O   -0.621926
    17  N   -0.795712
    18  H    0.406867
    19  C   -0.276847
    20  H    0.203641
    21  H    0.172156
    22  H    0.171716
 Sum of Mulliken atomic charges =   0.00000

 Dipole moment (field-independent basis, Debye):
    X=             -1.8507    Y=             -0.0815    Z=              0.6880  Tot=              1.9761
 Quadrupole moment (field-independent basis, Debye-Ang):
   XX=            -59.9937   YY=            -58.8179   ZZ=            -62.8002
   XY=             -8.7580   XZ=            -10.6616   YZ=             -3.9957

 Normal termination of Gaussian 09 at Fri Feb 10 14:28:40 2017.
