 Gaussian 09, Revision A.02,
 Gaussian 09:  EM64L-G09RevA.02 11-Jun-2009

 -------------------------------------------
 # HF/6-31G* Opt=(ModRedundant) geom=nocrowd
 -------------------------------------------

 ------------------
 Phi Psi fixed scan
 ------------------
 Symbolic Z-matrix:
 Charge =  0 Multiplicity = 1

 SCF Done:  E(RHF) =  -489.857475430     A.U. after   24 cycles
 SCF Done:  E(RHF) =  -491.289507480     A.U. after   19 cycles
 SCF Done:  E(RHF) =  -492.280199184     A.U. after   16 cycles
 SCF Done:  E(RHF) =  -492.630919741     A.U. after   16 cycles
 SCF Done:  E(RHF) =  -492.626750012     A.U. after   15 cycles
 SCF Done:  E(RHF) =  -492.772965416     A.U. after   16 cycles
 SCF Done:  E(RHF) =  -492.783745912     A.U. after   16 cycles
 SCF Done:  E(RHF) =  -492.821682368     A.U. after   13 cycles
 SCF Done:  E(RHF) =  -492.829251670     A.U. after   13 cycles
 SCF Done:  E(RHF) =  -492.837628211     A.U. after   13 cycles
 SCF Done:  E(RHF) =  -492.843291735     A.U. after   10 cycles
 SCF Done:  E(RHF) =  -492.843294464     A.U. after   10 cycles
 SCF Done:  E(RHF) =  -492.843299250     A.U. after   10 cycles
 SCF Done:  E(RHF) =  -492.843311524     A.U. after   10 cycles
 SCF Done:  E(RHF) =  -492.843328132     A.U. after   11 cycles
 SCF Done:  E(RHF) =  -492.843334949     A.U. after   11 cycles
 SCF Done:  E(RHF) =  -492.843338471     A.U. after   11 cycles
 SCF Done:  E(RHF) =  -492.843338605     A.U. after    9 cycles
 SCF Done:  E(RHF) =  -492.843338677     A.U. after    9 cycles
 SCF Done:  E(RHF) =  -492.843338691     A.U. after    8 cycles
 Optimization completed.
    -- Stationary point found.

                         Standard orientation:
 ---------------------------------------------------------------------
 Center     Atomic      Atomic             Coordinates (Angstroms)
 Number     Number       Type             X           Y           Z
 ---------------------------------------------------------------------
      1          1           0       -3.532901   -0.436218    1.266499
      2          6           0       -3.366925   -0.408985    0.194378
      3          1           0       -3.806602    0.499479   -0.199416
      4          1           0       -3.856703   -1.266879   -0.243241
      5          6           0       -1.876599   -0.524003   -0.065170
      6          8           0       -1.364796   -1.615610   -0.099756
      7          7           0       -1.250382    0.660081   -0.223535
      8          1           0       -1.868957    1.435980   -0.163639
      9          6           0        0.137421    1.137748   -0.399416
     10          1           0        0.254173    1.378338   -1.452270
     11          6           0        0.256516    2.440510    0.398229
     12          1           0        0.146224    2.247067    1.459975
     13          1           0        1.218560    2.893864    0.223803
     14          1           0       -0.516779    3.141601    0.095606
     15          6           0        1.384346    0.270938   -0.116380
     16          8           0        2.436036    0.864168   -0.103006
     17          7           0        1.301954   -1.047374    0.024202
     18          1           0        0.411732   -1.496102   -0.024390
     19          6           0        2.499873   -1.837768    0.204656
     20          1           0        3.039991   -1.529009    1.090722
     21          1           0        2.208290   -2.873810    0.311443
     22          1           0        3.164256   -1.742351   -0.645435
 ---------------------------------------------------------------------

 The electronic state is 1-A.
 Alpha  occ. eigenvalues --  -20.54085 -20.50835 -15.60651 -15.56312 -11.37115
 Alpha  occ. eigenvalues --  -11.34044 -11.29379 -11.24513 -11.24334 -11.22714
 Alpha  occ. eigenvalues --   -1.40866  -1.38074  -1.25564  -1.21796  -1.06418
 Alpha  occ. eigenvalues --   -1.00048  -0.95240  -0.88054  -0.82051  -0.77596
 Alpha  occ. eigenvalues --   -0.70962  -0.70471  -0.67225  -0.63173  -0.62733
 Alpha  occ. eigenvalues --   -0.61357  -0.60176  -0.59341  -0.58233  -0.55930
 Alpha  occ. eigenvalues --   -0.54382  -0.53888  -0.53339  -0.52355  -0.49991
 Alpha  occ. eigenvalues --   -0.43336  -0.41709  -0.39880  -0.37315
 Alpha virt. eigenvalues --    0.18641   0.19477   0.21342   0.25760   0.27066
 Alpha virt. eigenvalues --    0.28534   0.29069   0.29757   0.31267   0.31611
 Alpha virt. eigenvalues --    0.32921   0.33401   0.35099   0.36155   0.38237

 Mulliken atomic charges:
              1
     1  H    0.207683
     2  C   -0.584590
     3  H    0.172675
     4  H    0.218273
     5  C    0.780375
     6  O   -0.643720
     7  N   -0.845651
     8  H    0.389431
     9  C    0.003947
    10  H    0.215843
    11  C   -0.505628
    12  H    0.177396
    13  H    0.232170
    14  H    0.150462
    15  C    0.764123
    16  O   -0.640335
    17  N   -0.845527
    18  H    0.486462
    19  C   -0.268112
    20  H    0.183120
    21  H    0.169631
    22  H    0.181969
 Sum of Mulliken atomic charges =   0.00000

 Dipole moment (field-independent basis, Debye):
    X=             -4.3457    Y=              1.3255    Z=              0.2052  Tot=              4.5480
 Quadrupole moment (field-independent basis, Debye-Ang):
   XX=            -60.9993   YY=            -60.5233   ZZ=            -59.9153
   XY=            -10.5876   XZ=             -0.0611   YZ=             -0.9888

 Normal termination of Gaussian 09 at Fri Feb 10 22:35:56 2017.
