 Gaussian 09, Revision A.02,
 Gaussian 09:  EM64L-G09RevA.02 11-Jun-2009

 -------------------------------------------
 # HF/6-31G* Opt=(ModRedundant) geom=nocrowd
 -------------------------------------------

 ------------------
 Phi Psi fixed scan
 ------------------
 Symbolic Z-matrix:
 Charge =  0 Multiplicity = 1

 SCF Done:  E(RHF) =  -492.830842118     A.U. after   15 cycles
 SCF Done:  E(RHF) =  -492.841878923     A.U. after   15 cycles
 SCF Done:  E(RHF) =  -492.844882696     A.U. after   13 cycles
 SCF Done:  E(RHF) =  -492.845379331     A.U. after   13 cycles
 SCF Done:  E(RHF) =  -492.846288404     A.U. after   13 cycles
 SCF Done:  E(RHF) =  -492.847018720     A.U. after   13 cycles
 SCF Done:  E(RHF) =  -492.847366034     A.U. after   13 cycles
 SCF Done:  E(RHF) =  -492.847774222     A.U. after   12 cycles
 SCF Done:  E(RHF) =  -492.848009960     A.U. after   12 cycles
 SCF Done:  E(RHF) =  -492.848384091     A.U. after   13 cycles
 SCF Done:  E(RHF) =  -492.848707704     A.U. after   11 cycles
 SCF Done:  E(RHF) =  -492.848750163     A.U. after   11 cycles
 SCF Done:  E(RHF) =  -492.848753532     A.U. after   10 cycles
 SCF Done:  E(RHF) =  -492.848756138     A.U. after   10 cycles
 SCF Done:  E(RHF) =  -492.848756585     A.U. after    9 cycles
 SCF Done:  E(RHF) =  -492.848756848     A.U. after    9 cycles
 SCF Done:  E(RHF) =  -492.848756894     A.U. after    7 cycles
 SCF Done:  E(RHF) =  -492.848756930     A.U. after    7 cycles
 SCF Done:  E(RHF) =  -492.848756968     A.U. after    8 cycles
 SCF Done:  E(RHF) =  -492.848756983     A.U. after    7 cycles
 Optimization completed.
    -- Stationary point found.

                         Standard orientation:
 ---------------------------------------------------------------------
 Center     Atomic      Atomic             Coordinates (Angstroms)
 Number     Number       Type             X           Y           Z
 ---------------------------------------------------------------------
      1          1           0       -3.289378   -2.015952    0.168179
      2          6           0       -3.067143   -0.967252    0.300360
      3          1           0       -3.192020   -0.717034    1.349424
      4          1           0       -3.763416   -0.370633   -0.278340
      5          6           0       -1.627804   -0.718755   -0.095392
      6          8           0       -0.808057   -1.594879   -0.096840
      7          7           0       -1.345825    0.558449   -0.463109
      8          1           0       -2.080311    1.218744   -0.339793
      9          6           0       -0.012435    1.150473   -0.546031
     10          1           0        0.263606    1.219660   -1.594254
     11          6           0       -0.037765    2.556378    0.044087
     12          1           0       -0.256109    2.513976    1.102621
     13          1           0        0.924436    3.037155   -0.087659
     14          1           0       -0.785264    3.165210   -0.456990
     15          6           0        1.060291    0.312152    0.171262
     16          8           0        1.197007    0.382720    1.359500
     17          7           0        1.888449   -0.388654   -0.638255
     18          1           0        1.500580   -0.649990   -1.517011
     19          6           0        2.795643   -1.352540   -0.046876
     20          1           0        3.395782   -0.864693    0.706287
     21          1           0        2.259786   -2.175659    0.413009
     22          1           0        3.447611   -1.734815   -0.821666
 ---------------------------------------------------------------------

 The electronic state is 1-A.
 Alpha  occ. eigenvalues --  -20.52803 -20.51791 -15.59273 -15.57147 -11.35430
 Alpha  occ. eigenvalues --  -11.33904 -11.28412 -11.24134 -11.23607 -11.22849
 Alpha  occ. eigenvalues --   -1.39981  -1.38382  -1.24402  -1.22150  -1.05827
 Alpha  occ. eigenvalues --   -0.99540  -0.95121  -0.87321  -0.80790  -0.76789
 Alpha  occ. eigenvalues --   -0.70204  -0.69674  -0.67100  -0.63176  -0.62125
 Alpha  occ. eigenvalues --   -0.61530  -0.59885  -0.58318  -0.57662  -0.54945
 Alpha  occ. eigenvalues --   -0.54214  -0.53788  -0.53499  -0.51443  -0.50310
 Alpha  occ. eigenvalues --   -0.42292  -0.42231  -0.39319  -0.37927
 Alpha virt. eigenvalues --    0.19320   0.20402   0.21675   0.24026   0.26239
 Alpha virt. eigenvalues --    0.28026   0.28750   0.30086   0.30748   0.31898
 Alpha virt. eigenvalues --    0.32772   0.33349   0.34367   0.35587   0.38214

 Mulliken atomic charges:
              1
     1  H    0.215860
     2  C   -0.591351
     3  H    0.205548
     4  H    0.175943
     5  C    0.758377
     6  O   -0.611586
     7  N   -0.812852
     8  H    0.383866
     9  C    0.003846
    10  H    0.185453
    11  C   -0.511936
    12  H    0.208593
    13  H    0.187242
    14  H    0.158623
    15  C    0.774740
    16  O   -0.611390
    17  N   -0.763794
    18  H    0.381638
    19  C   -0.289756
    20  H    0.198187
    21  H    0.190926
    22  H    0.163822
 Sum of Mulliken atomic charges =   0.00000

 Dipole moment (field-independent basis, Debye):
    X=             -2.4701    Y=              1.9446    Z=             -2.8109  Tot=              4.2171
 Quadrupole moment (field-independent basis, Debye-Ang):
   XX=            -50.5168   YY=            -60.1933   ZZ=            -63.2299
   XY=             -4.7365   XZ=             -4.7027   YZ=             -0.7367

 Normal termination of Gaussian 09 at Fri Feb 10 22:58:38 2017.
