 Gaussian 09, Revision A.02,
 Gaussian 09:  EM64L-G09RevA.02 11-Jun-2009

 -------------------------------------------
 # HF/6-31G* Opt=(ModRedundant) geom=nocrowd
 -------------------------------------------

 ------------------
 Phi Psi fixed scan
 ------------------
 Symbolic Z-matrix:
 Charge =  0 Multiplicity = 1

 SCF Done:  E(RHF) =  -492.758596713     A.U. after   16 cycles
 SCF Done:  E(RHF) =  -492.825319859     A.U. after   15 cycles
 SCF Done:  E(RHF) =  -492.826611108     A.U. after   15 cycles
 SCF Done:  E(RHF) =  -492.829383770     A.U. after   13 cycles
 SCF Done:  E(RHF) =  -492.832608573     A.U. after   13 cycles
 SCF Done:  E(RHF) =  -492.835283332     A.U. after   13 cycles
 SCF Done:  E(RHF) =  -492.837320862     A.U. after   13 cycles
 SCF Done:  E(RHF) =  -492.839130500     A.U. after   14 cycles
 SCF Done:  E(RHF) =  -492.840204094     A.U. after   13 cycles
 SCF Done:  E(RHF) =  -492.840373873     A.U. after   13 cycles
 SCF Done:  E(RHF) =  -492.841010415     A.U. after   12 cycles
 SCF Done:  E(RHF) =  -492.841114782     A.U. after   12 cycles
 SCF Done:  E(RHF) =  -492.841192824     A.U. after   12 cycles
 SCF Done:  E(RHF) =  -492.841327044     A.U. after   12 cycles
 SCF Done:  E(RHF) =  -492.841550943     A.U. after   12 cycles
 SCF Done:  E(RHF) =  -492.841632683     A.U. after   12 cycles
 SCF Done:  E(RHF) =  -492.841680170     A.U. after   12 cycles
 SCF Done:  E(RHF) =  -492.841690069     A.U. after   11 cycles
 SCF Done:  E(RHF) =  -492.841713686     A.U. after   11 cycles
 SCF Done:  E(RHF) =  -492.841714306     A.U. after    9 cycles
 Optimization completed.
    -- Stationary point found.

                         Standard orientation:
 ---------------------------------------------------------------------
 Center     Atomic      Atomic             Coordinates (Angstroms)
 Number     Number       Type             X           Y           Z
 ---------------------------------------------------------------------
      1          1           0       -3.601010   -1.554831    0.331179
      2          6           0       -3.150308   -0.585181    0.481805
      3          1           0       -2.961072   -0.444371    1.541636
      4          1           0       -3.834130    0.190074    0.151612
      5          6           0       -1.836612   -0.530663   -0.263900
      6          8           0       -1.296868   -1.505884   -0.691387
      7          7           0       -1.344146    0.739141   -0.479805
      8          1           0       -1.879473    1.441608   -0.017662
      9          6           0        0.076934    1.060648   -0.485482
     10          1           0        0.388789    1.230909   -1.511987
     11          6           0        0.311783    2.348242    0.308621
     12          1           0        0.046759    2.199712    1.349257
     13          1           0        1.352502    2.643318    0.256953
     14          1           0       -0.288271    3.156131   -0.098707
     15          6           0        0.965837   -0.031547    0.118406
     16          8           0        0.661541   -0.604900    1.124702
     17          7           0        2.212430   -0.091457   -0.411836
     18          1           0        2.322308    0.200938   -1.356285
     19          6           0        3.166848   -1.062448    0.086485
     20          1           0        3.233810   -0.978876    1.160648
     21          1           0        2.881893   -2.078940   -0.162028
     22          1           0        4.135631   -0.847499   -0.345262
 ---------------------------------------------------------------------

 The electronic state is 1-A.
 Alpha  occ. eigenvalues --  -20.52024 -20.51851 -15.58420 -15.57959 -11.34317
 Alpha  occ. eigenvalues --  -11.34170 -11.28510 -11.25315 -11.23743 -11.22637
 Alpha  occ. eigenvalues --   -1.39673  -1.38095  -1.23573  -1.22905  -1.05702
 Alpha  occ. eigenvalues --   -0.98997  -0.95750  -0.87800  -0.79919  -0.77541
 Alpha  occ. eigenvalues --   -0.70349  -0.68349  -0.66682  -0.63609  -0.62489
 Alpha  occ. eigenvalues --   -0.61303  -0.59533  -0.57838  -0.57628  -0.55446
 Alpha  occ. eigenvalues --   -0.54921  -0.54685  -0.53626  -0.52053  -0.48790
 Alpha  occ. eigenvalues --   -0.42515  -0.41187  -0.39065  -0.38489
 Alpha virt. eigenvalues --    0.19293   0.20631   0.21400   0.23187   0.26699
 Alpha virt. eigenvalues --    0.27204   0.29237   0.30305   0.31009   0.31344
 Alpha virt. eigenvalues --    0.32109   0.33106   0.33955   0.34792   0.37859

 Mulliken atomic charges:
              1
     1  H    0.214426
     2  C   -0.599502
     3  H    0.202957
     4  H    0.175397
     5  C    0.764239
     6  O   -0.585051
     7  N   -0.798907
     8  H    0.373485
     9  C    0.008798
    10  H    0.179102
    11  C   -0.523314
    12  H    0.195731
    13  H    0.191917
    14  H    0.176435
    15  C    0.773151
    16  O   -0.612278
    17  N   -0.790863
    18  H    0.378893
    19  C   -0.280684
    20  H    0.204026
    21  H    0.185477
    22  H    0.166566
 Sum of Mulliken atomic charges =   0.00000

 Dipole moment (field-independent basis, Debye):
    X=              0.7247    Y=              4.1613    Z=             -0.9387  Tot=              4.3270
 Quadrupole moment (field-independent basis, Debye-Ang):
   XX=            -47.1389   YY=            -62.1618   ZZ=            -62.6745
   XY=             -4.2382   XZ=             -6.9784   YZ=             -0.4729

 Normal termination of Gaussian 09 at Fri Feb 10 23:06:32 2017.
