 Gaussian 09, Revision A.02,
 Gaussian 09:  EM64L-G09RevA.02 11-Jun-2009

 -------------------------------------------
 # HF/6-31G* Opt=(ModRedundant) geom=nocrowd
 -------------------------------------------

 ------------------
 Phi Psi fixed scan
 ------------------
 Symbolic Z-matrix:
 Charge =  0 Multiplicity = 1

 SCF Done:  E(RHF) =  -492.734982566     A.U. after   15 cycles
 SCF Done:  E(RHF) =  -492.807219939     A.U. after   14 cycles
 SCF Done:  E(RHF) =  -492.830824703     A.U. after   14 cycles
 SCF Done:  E(RHF) =  -492.839941919     A.U. after   14 cycles
 SCF Done:  E(RHF) =  -492.841421069     A.U. after   13 cycles
 SCF Done:  E(RHF) =  -492.841731344     A.U. after   13 cycles
 SCF Done:  E(RHF) =  -492.842250043     A.U. after   12 cycles
 SCF Done:  E(RHF) =  -492.842471458     A.U. after   12 cycles
 SCF Done:  E(RHF) =  -492.842593101     A.U. after   16 cycles
 SCF Done:  E(RHF) =  -492.842732191     A.U. after   12 cycles
 SCF Done:  E(RHF) =  -492.843468469     A.U. after   11 cycles
 SCF Done:  E(RHF) =  -492.843496541     A.U. after   11 cycles
 SCF Done:  E(RHF) =  -492.843506866     A.U. after   11 cycles
 SCF Done:  E(RHF) =  -492.843512708     A.U. after   10 cycles
 SCF Done:  E(RHF) =  -492.843516162     A.U. after   10 cycles
 SCF Done:  E(RHF) =  -492.843521074     A.U. after   11 cycles
 SCF Done:  E(RHF) =  -492.843526378     A.U. after   11 cycles
 SCF Done:  E(RHF) =  -492.843531435     A.U. after   11 cycles
 SCF Done:  E(RHF) =  -492.843533703     A.U. after   10 cycles
 SCF Done:  E(RHF) =  -492.843533860     A.U. after    8 cycles
 Optimization completed.
    -- Stationary point found.

                         Standard orientation:
 ---------------------------------------------------------------------
 Center     Atomic      Atomic             Coordinates (Angstroms)
 Number     Number       Type             X           Y           Z
 ---------------------------------------------------------------------
      1          1           0       -3.668551   -1.590435    0.113303
      2          6           0       -3.265905   -0.611671    0.329315
      3          1           0       -3.392400   -0.416077    1.389499
      4          1           0       -3.817706    0.138739   -0.224838
      5          6           0       -1.783965   -0.616732    0.008157
      6          8           0       -1.151449   -1.639068    0.068755
      7          7           0       -1.285721    0.592876   -0.330409
      8          1           0       -1.961054    1.322532   -0.338570
      9          6           0        0.077093    1.121152   -0.515127
     10          1           0        0.254594    1.178667   -1.586582
     11          6           0        0.103983    2.537665    0.051713
     12          1           0       -0.027742    2.524252    1.126103
     13          1           0        1.048772    3.012979   -0.165401
     14          1           0       -0.687825    3.133277   -0.395418
     15          6           0        1.286862    0.318141    0.020760
     16          8           0        2.087754    0.876091    0.721454
     17          7           0        1.478219   -0.924872   -0.460979
     18          1           0        0.650875   -1.435538   -0.679531
     19          6           0        2.598159   -1.702436    0.029409
     20          1           0        3.519676   -1.162153   -0.131397
     21          1           0        2.511562   -1.923113    1.088417
     22          1           0        2.634512   -2.632061   -0.522902
 ---------------------------------------------------------------------

 The electronic state is 1-A.
 Alpha  occ. eigenvalues --  -20.53687 -20.52157 -15.60354 -15.56124 -11.36665
 Alpha  occ. eigenvalues --  -11.34212 -11.29157 -11.24298 -11.24065 -11.22550
 Alpha  occ. eigenvalues --   -1.40565  -1.38863  -1.25304  -1.21703  -1.06272
 Alpha  occ. eigenvalues --   -0.99900  -0.95069  -0.87614  -0.81758  -0.76523
 Alpha  occ. eigenvalues --   -0.70706  -0.70234  -0.67586  -0.63407  -0.62857
 Alpha  occ. eigenvalues --   -0.61249  -0.60263  -0.59173  -0.57916  -0.55445
 Alpha  occ. eigenvalues --   -0.54120  -0.53563  -0.52731  -0.52037  -0.50948
 Alpha  occ. eigenvalues --   -0.43383  -0.42841  -0.39596  -0.37440
 Alpha virt. eigenvalues --    0.18782   0.18873   0.21710   0.25194   0.26941
 Alpha virt. eigenvalues --    0.28321   0.28743   0.29881   0.31038   0.31783
 Alpha virt. eigenvalues --    0.32661   0.33041   0.34690   0.35515   0.39319

 Mulliken atomic charges:
              1
     1  H    0.217366
     2  C   -0.586933
     3  H    0.206541
     4  H    0.174232
     5  C    0.768814
     6  O   -0.631534
     7  N   -0.834481
     8  H    0.388804
     9  C   -0.003325
    10  H    0.204899
    11  C   -0.486943
    12  H    0.190570
    13  H    0.206823
    14  H    0.146740
    15  C    0.744815
    16  O   -0.609557
    17  N   -0.787594
    18  H    0.436900
    19  C   -0.279833
    20  H    0.191419
    21  H    0.173948
    22  H    0.168329
 Sum of Mulliken atomic charges =   0.00000

 Dipole moment (field-independent basis, Debye):
    X=             -3.9067    Y=              1.3325    Z=             -1.5293  Tot=              4.4019
 Quadrupole moment (field-independent basis, Debye-Ang):
   XX=            -56.7418   YY=            -60.9890   ZZ=            -61.6287
   XY=             -8.3907   XZ=             -3.4431   YZ=             -1.9043

 Normal termination of Gaussian 09 at Fri Feb 10 22:50:11 2017.
