 Gaussian 09, Revision A.02,
 Gaussian 09:  EM64L-G09RevA.02 11-Jun-2009

 -------------------------------------------
 # HF/6-31G* Opt=(ModRedundant) geom=nocrowd
 -------------------------------------------

 ------------------
 Phi Psi fixed scan
 ------------------
 Symbolic Z-matrix:
 Charge =  0 Multiplicity = 1

 SCF Done:  E(RHF) =  -492.670784944     A.U. after   17 cycles
 SCF Done:  E(RHF) =  -492.735313737     A.U. after   15 cycles
 SCF Done:  E(RHF) =  -492.791703778     A.U. after   14 cycles
 SCF Done:  E(RHF) =  -492.814950468     A.U. after   14 cycles
 SCF Done:  E(RHF) =  -492.820830678     A.U. after   16 cycles
 SCF Done:  E(RHF) =  -492.823200592     A.U. after   13 cycles
 SCF Done:  E(RHF) =  -492.824568826     A.U. after   13 cycles
 SCF Done:  E(RHF) =  -492.825654022     A.U. after   14 cycles
 SCF Done:  E(RHF) =  -492.826477677     A.U. after   14 cycles
 SCF Done:  E(RHF) =  -492.827544843     A.U. after   13 cycles
 SCF Done:  E(RHF) =  -492.828065103     A.U. after   13 cycles
 SCF Done:  E(RHF) =  -492.828215669     A.U. after   11 cycles
 SCF Done:  E(RHF) =  -492.828345049     A.U. after   12 cycles
 SCF Done:  E(RHF) =  -492.828439810     A.U. after   12 cycles
 SCF Done:  E(RHF) =  -492.828518524     A.U. after   11 cycles
 SCF Done:  E(RHF) =  -492.828602491     A.U. after   11 cycles
 SCF Done:  E(RHF) =  -492.828611039     A.U. after   11 cycles
 SCF Done:  E(RHF) =  -492.828617200     A.U. after   11 cycles
 SCF Done:  E(RHF) =  -492.828619445     A.U. after   11 cycles
 SCF Done:  E(RHF) =  -492.828619727     A.U. after    8 cycles
 Optimization completed.
    -- Stationary point found.

                         Standard orientation:
 ---------------------------------------------------------------------
 Center     Atomic      Atomic             Coordinates (Angstroms)
 Number     Number       Type             X           Y           Z
 ---------------------------------------------------------------------
      1          1           0        3.855189   -1.328912   -0.259599
      2          6           0        3.390081   -0.443865    0.147943
      3          1           0        3.913401    0.436986   -0.211218
      4          1           0        3.470654   -0.464928    1.230710
      5          6           0        1.929943   -0.424598   -0.258123
      6          8           0        1.410800   -1.348612   -0.800098
      7          7           0        1.302672    0.786694   -0.032216
      8          1           0        1.917709    1.448709    0.389985
      9          6           0       -0.065952    1.046343    0.421285
     10          1           0       -0.035515    1.219208    1.493735
     11          6           0       -0.551770    2.330416   -0.252506
     12          1           0       -0.628261    2.203266   -1.327363
     13          1           0       -1.507276    2.653083    0.145281
     14          1           0        0.161471    3.128041   -0.074055
     15          6           0       -1.014871   -0.160844    0.332430
     16          8           0       -0.749239   -1.171268    0.914539
     17          7           0       -2.248364    0.067802   -0.182695
     18          1           0       -2.354070    0.797789   -0.847425
     19          6           0       -3.204179   -1.020421   -0.251712
     20          1           0       -3.321963   -1.458101    0.728133
     21          1           0       -4.155953   -0.621430   -0.577618
     22          1           0       -2.887542   -1.798319   -0.937625
 ---------------------------------------------------------------------

 The electronic state is 1-A.
 Alpha  occ. eigenvalues --  -20.51944 -20.51587 -15.58287 -15.58114 -11.34363
 Alpha  occ. eigenvalues --  -11.34292 -11.28940 -11.25153 -11.23544 -11.22823
 Alpha  occ. eigenvalues --   -1.39419  -1.38156  -1.23542  -1.22694  -1.05772
 Alpha  occ. eigenvalues --   -0.99000  -0.95066  -0.88768  -0.79952  -0.77500
 Alpha  occ. eigenvalues --   -0.70311  -0.68440  -0.65647  -0.64004  -0.61972
 Alpha  occ. eigenvalues --   -0.61172  -0.59853  -0.57622  -0.57145  -0.56398
 Alpha  occ. eigenvalues --   -0.55169  -0.54357  -0.53966  -0.52016  -0.49237
 Alpha  occ. eigenvalues --   -0.41854  -0.40428  -0.39042  -0.38278
 Alpha virt. eigenvalues --    0.18118   0.19953   0.22387   0.23581   0.26097
 Alpha virt. eigenvalues --    0.28104   0.28912   0.30136   0.30307   0.31399
 Alpha virt. eigenvalues --    0.32287   0.33052   0.34676   0.34851   0.37367

 Mulliken atomic charges:
              1
     1  H    0.216547
     2  C   -0.596941
     3  H    0.177093
     4  H    0.191537
     5  C    0.756632
     6  O   -0.558719
     7  N   -0.802509
     8  H    0.366745
     9  C   -0.020005
    10  H    0.204702
    11  C   -0.505067
    12  H    0.179310
    13  H    0.177285
    14  H    0.173179
    15  C    0.772124
    16  O   -0.592881
    17  N   -0.801493
    18  H    0.386938
    19  C   -0.278609
    20  H    0.203864
    21  H    0.164248
    22  H    0.186020
 Sum of Mulliken atomic charges =   0.00000

 Dipole moment (field-independent basis, Debye):
    X=             -0.3173    Y=              5.2190    Z=              0.1404  Tot=              5.2306
 Quadrupole moment (field-independent basis, Debye-Ang):
   XX=            -46.4359   YY=            -63.5792   ZZ=            -62.0325
   XY=              2.8050   XZ=              6.6664   YZ=              0.9280

 Normal termination of Gaussian 09 at Fri Feb 10 23:21:57 2017.
