 Gaussian 09, Revision A.02,
 Gaussian 09:  EM64L-G09RevA.02 11-Jun-2009

 -------------------------------------------
 # HF/6-31G* Opt=(ModRedundant) geom=nocrowd
 -------------------------------------------

 ------------------
 Phi Psi fixed scan
 ------------------
 Symbolic Z-matrix:
 Charge =  0 Multiplicity = 1

 SCF Done:  E(RHF) =  -492.787832982     A.U. after   15 cycles
 SCF Done:  E(RHF) =  -492.823736843     A.U. after   15 cycles
 SCF Done:  E(RHF) =  -492.831304760     A.U. after   14 cycles
 SCF Done:  E(RHF) =  -492.833863523     A.U. after   13 cycles
 SCF Done:  E(RHF) =  -492.835151334     A.U. after   13 cycles
 SCF Done:  E(RHF) =  -492.836199593     A.U. after   13 cycles
 SCF Done:  E(RHF) =  -492.836743871     A.U. after   13 cycles
 SCF Done:  E(RHF) =  -492.837009493     A.U. after   13 cycles
 SCF Done:  E(RHF) =  -492.837285772     A.U. after   12 cycles
 SCF Done:  E(RHF) =  -492.837484164     A.U. after   11 cycles
 SCF Done:  E(RHF) =  -492.837989900     A.U. after   12 cycles
 SCF Done:  E(RHF) =  -492.838240220     A.U. after   13 cycles
 SCF Done:  E(RHF) =  -492.838252745     A.U. after   12 cycles
 SCF Done:  E(RHF) =  -492.838303653     A.U. after   10 cycles
 SCF Done:  E(RHF) =  -492.838329985     A.U. after   11 cycles
 SCF Done:  E(RHF) =  -492.838335856     A.U. after   11 cycles
 SCF Done:  E(RHF) =  -492.838338979     A.U. after   11 cycles
 SCF Done:  E(RHF) =  -492.838339940     A.U. after    9 cycles
 SCF Done:  E(RHF) =  -492.838340060     A.U. after    8 cycles
 SCF Done:  E(RHF) =  -492.838340097     A.U. after    7 cycles
 Optimization completed.
    -- Stationary point found.

                         Standard orientation:
 ---------------------------------------------------------------------
 Center     Atomic      Atomic             Coordinates (Angstroms)
 Number     Number       Type             X           Y           Z
 ---------------------------------------------------------------------
      1          1           0        3.603099   -1.577486   -0.522562
      2          6           0        3.300984   -0.621911   -0.120671
      3          1           0        3.790924    0.175369   -0.669706
      4          1           0        3.615486   -0.561107    0.916957
      5          6           0        1.792655   -0.511771   -0.198400
      6          8           0        1.094681   -1.457311   -0.415952
      7          7           0        1.309850    0.762557   -0.062207
      8          1           0        2.004234    1.440001    0.167019
      9          6           0       -0.011107    1.151627    0.436511
     10          1           0        0.089331    1.409708    1.484269
     11          6           0       -0.485868    2.389673   -0.323054
     12          1           0       -0.547453    2.205355   -1.389846
     13          1           0       -1.453727    2.719732    0.035538
     14          1           0        0.219429    3.202276   -0.177906
     15          6           0       -1.019144   -0.012023    0.484209
     16          8           0       -1.039321   -0.726168    1.444237
     17          7           0       -1.980862   -0.041586   -0.470266
     18          1           0       -1.762827    0.380837   -1.343689
     19          6           0       -2.894055   -1.167725   -0.515825
     20          1           0       -3.377378   -1.275320    0.443379
     21          1           0       -3.645941   -0.971222   -1.269221
     22          1           0       -2.381769   -2.094328   -0.749824
 ---------------------------------------------------------------------

 The electronic state is 1-A.
 Alpha  occ. eigenvalues --  -20.52625 -20.51298 -15.58925 -15.57650 -11.35090
 Alpha  occ. eigenvalues --  -11.33987 -11.28474 -11.24550 -11.23427 -11.23383
 Alpha  occ. eigenvalues --   -1.39742  -1.38180  -1.24111  -1.22268  -1.05862
 Alpha  occ. eigenvalues --   -0.99493  -0.94638  -0.88483  -0.80435  -0.77178
 Alpha  occ. eigenvalues --   -0.70648  -0.68736  -0.66081  -0.63506  -0.62305
 Alpha  occ. eigenvalues --   -0.61255  -0.59721  -0.57874  -0.57357  -0.56324
 Alpha  occ. eigenvalues --   -0.54779  -0.54380  -0.53341  -0.51987  -0.50000
 Alpha  occ. eigenvalues --   -0.41896  -0.40863  -0.39313  -0.38234
 Alpha virt. eigenvalues --    0.18945   0.19488   0.21842   0.23759   0.25975
 Alpha virt. eigenvalues --    0.28122   0.28998   0.29885   0.30580   0.31837
 Alpha virt. eigenvalues --    0.32324   0.33506   0.34576   0.35293   0.37903

 Mulliken atomic charges:
              1
     1  H    0.217808
     2  C   -0.594173
     3  H    0.178783
     4  H    0.197130
     5  C    0.753423
     6  O   -0.583067
     7  N   -0.805426
     8  H    0.373328
     9  C   -0.027553
    10  H    0.210364
    11  C   -0.486498
    12  H    0.166054
    13  H    0.188705
    14  H    0.165513
    15  C    0.783346
    16  O   -0.605553
    17  N   -0.784245
    18  H    0.380600
    19  C   -0.283307
    20  H    0.201887
    21  H    0.162781
    22  H    0.190100
 Sum of Mulliken atomic charges =   0.00000

 Dipole moment (field-independent basis, Debye):
    X=              1.6018    Y=              4.3855    Z=             -2.0280  Tot=              5.0903
 Quadrupole moment (field-independent basis, Debye-Ang):
   XX=            -48.6864   YY=            -61.9605   ZZ=            -62.9526
   XY=              3.1204   XZ=              6.1287   YZ=              2.7008

 Normal termination of Gaussian 09 at Fri Feb 10 23:27:42 2017.
