 Gaussian 09, Revision A.02,
 Gaussian 09:  EM64L-G09RevA.02 11-Jun-2009

 -------------------------------------------
 # HF/6-31G* Opt=(ModRedundant) geom=nocrowd
 -------------------------------------------

 ------------------
 Phi Psi fixed scan
 ------------------
 Symbolic Z-matrix:
 Charge =  0 Multiplicity = 1

 SCF Done:  E(RHF) =  -492.137156501     A.U. after   25 cycles
 SCF Done:  E(RHF) =  -492.352851392     A.U. after   21 cycles
 SCF Done:  E(RHF) =  -492.670121067     A.U. after   16 cycles
 SCF Done:  E(RHF) =  -492.790035007     A.U. after   14 cycles
 SCF Done:  E(RHF) =  -492.806300901     A.U. after   14 cycles
 SCF Done:  E(RHF) =  -492.814328963     A.U. after   13 cycles
 SCF Done:  E(RHF) =  -492.828829515     A.U. after   14 cycles
 SCF Done:  E(RHF) =  -492.837982530     A.U. after   13 cycles
 SCF Done:  E(RHF) =  -492.840223984     A.U. after   12 cycles
 SCF Done:  E(RHF) =  -492.840997617     A.U. after   12 cycles
 SCF Done:  E(RHF) =  -492.842927667     A.U. after   11 cycles
 SCF Done:  E(RHF) =  -492.842937003     A.U. after   10 cycles
 SCF Done:  E(RHF) =  -492.842939953     A.U. after   10 cycles
 SCF Done:  E(RHF) =  -492.842939382     A.U. after    9 cycles
 SCF Done:  E(RHF) =  -492.842930592     A.U. after   13 cycles
 SCF Done:  E(RHF) =  -492.842944430     A.U. after   11 cycles
 SCF Done:  E(RHF) =  -492.842945990     A.U. after   10 cycles
 SCF Done:  E(RHF) =  -492.842946032     A.U. after    9 cycles
 SCF Done:  E(RHF) =  -492.842946021     A.U. after    8 cycles
 SCF Done:  E(RHF) =  -492.842946065     A.U. after    8 cycles
 Optimization completed on the basis of negligible forces.
    -- Stationary point found.

                         Standard orientation:
 ---------------------------------------------------------------------
 Center     Atomic      Atomic             Coordinates (Angstroms)
 Number     Number       Type             X           Y           Z
 ---------------------------------------------------------------------
      1          1           0       -3.826082   -1.349352   -0.094547
      2          6           0       -3.348128   -0.440794    0.241452
      3          1           0       -3.495864   -0.355088    1.313325
      4          1           0       -3.812839    0.412546   -0.238108
      5          6           0       -1.860433   -0.549189   -0.035708
      6          8           0       -1.332175   -1.632842   -0.031903
      7          7           0       -1.254805    0.636496   -0.257305
      8          1           0       -1.885242    1.404516   -0.228258
      9          6           0        0.128613    1.126406   -0.434948
     10          1           0        0.266754    1.294119   -1.500594
     11          6           0        0.207758    2.482035    0.270014
     12          1           0        0.084949    2.362686    1.340752
     13          1           0        1.163008    2.944217    0.082769
     14          1           0       -0.574118    3.142404   -0.095944
     15          6           0        1.370787    0.283648   -0.063648
     16          8           0        2.385750    0.894836    0.164251
     17          7           0        1.334860   -1.045229   -0.134280
     18          1           0        0.452723   -1.507219   -0.199501
     19          6           0        2.526078   -1.819547    0.137928
     20          1           0        3.324756   -1.543305   -0.537660
     21          1           0        2.875818   -1.670302    1.152964
     22          1           0        2.289101   -2.865393   -0.003419
 ---------------------------------------------------------------------

 The electronic state is 1-A.
 Alpha  occ. eigenvalues --  -20.54102 -20.51083 -15.60608 -15.56183 -11.37076
 Alpha  occ. eigenvalues --  -11.34066 -11.29408 -11.24487 -11.24269 -11.22580
 Alpha  occ. eigenvalues --   -1.40864  -1.38211  -1.25536  -1.21726  -1.06392
 Alpha  occ. eigenvalues --   -1.00003  -0.95238  -0.87919  -0.81994  -0.77384
 Alpha  occ. eigenvalues --   -0.70915  -0.70409  -0.67406  -0.63219  -0.62804
 Alpha  occ. eigenvalues --   -0.61054  -0.60290  -0.59469  -0.58199  -0.55761
 Alpha  occ. eigenvalues --   -0.54257  -0.53780  -0.53121  -0.52333  -0.50298
 Alpha  occ. eigenvalues --   -0.43347  -0.42108  -0.39647  -0.37306
 Alpha virt. eigenvalues --    0.18634   0.19377   0.21516   0.25687   0.27055
 Alpha virt. eigenvalues --    0.28471   0.29277   0.29491   0.31126   0.31709
 Alpha virt. eigenvalues --    0.32801   0.33218   0.34822   0.36234   0.38581

 Mulliken atomic charges:
              1
     1  H    0.218559
     2  C   -0.586264
     3  H    0.206940
     4  H    0.173969
     5  C    0.779320
     6  O   -0.640878
     7  N   -0.843770
     8  H    0.389781
     9  C   -0.002304
    10  H    0.213551
    11  C   -0.499160
    12  H    0.178942
    13  H    0.228240
    14  H    0.148027
    15  C    0.761092
    16  O   -0.634068
    17  N   -0.835962
    18  H    0.479803
    19  C   -0.269013
    20  H    0.185959
    21  H    0.177865
    22  H    0.169371
 Sum of Mulliken atomic charges =   0.00000

 Dipole moment (field-independent basis, Debye):
    X=             -4.2662    Y=              1.2930    Z=             -0.3907  Tot=              4.4750
 Quadrupole moment (field-independent basis, Debye-Ang):
   XX=            -60.2710   YY=            -60.8853   ZZ=            -60.0139
   XY=            -10.3643   XZ=             -1.4761   YZ=             -1.4079

 Normal termination of Gaussian 09 at Fri Feb 10 22:42:16 2017.
