 Gaussian 09, Revision A.02,
 Gaussian 09:  EM64L-G09RevA.02 11-Jun-2009

 -------------------------------------------
 # HF/6-31G* Opt=(ModRedundant) geom=nocrowd
 -------------------------------------------

 ------------------
 Phi Psi fixed scan
 ------------------
 Symbolic Z-matrix:
 Charge =  0 Multiplicity = 1

 SCF Done:  E(RHF) =  -492.802467009     A.U. after   15 cycles
 SCF Done:  E(RHF) =  -492.833647740     A.U. after   15 cycles
 SCF Done:  E(RHF) =  -492.839148570     A.U. after   13 cycles
 SCF Done:  E(RHF) =  -492.841816161     A.U. after   14 cycles
 SCF Done:  E(RHF) =  -492.843093145     A.U. after   13 cycles
 SCF Done:  E(RHF) =  -492.844049902     A.U. after   13 cycles
 SCF Done:  E(RHF) =  -492.844670032     A.U. after   13 cycles
 SCF Done:  E(RHF) =  -492.844974577     A.U. after   12 cycles
 SCF Done:  E(RHF) =  -492.845159686     A.U. after   12 cycles
 SCF Done:  E(RHF) =  -492.845263801     A.U. after   12 cycles
 SCF Done:  E(RHF) =  -492.845391260     A.U. after   12 cycles
 SCF Done:  E(RHF) =  -492.845588077     A.U. after   12 cycles
 SCF Done:  E(RHF) =  -492.845798478     A.U. after   12 cycles
 SCF Done:  E(RHF) =  -492.845839870     A.U. after   11 cycles
 SCF Done:  E(RHF) =  -492.845866828     A.U. after   11 cycles
 SCF Done:  E(RHF) =  -492.845885746     A.U. after   11 cycles
 SCF Done:  E(RHF) =  -492.845891182     A.U. after   10 cycles
 SCF Done:  E(RHF) =  -492.845892723     A.U. after   10 cycles
 SCF Done:  E(RHF) =  -492.845892773     A.U. after    8 cycles
 Optimization completed.
    -- Stationary point found.

                         Standard orientation:
 ---------------------------------------------------------------------
 Center     Atomic      Atomic             Coordinates (Angstroms)
 Number     Number       Type             X           Y           Z
 ---------------------------------------------------------------------
      1          1           0       -3.479710   -1.756236    0.232916
      2          6           0       -3.128360   -0.745174    0.376123
      3          1           0       -3.064972   -0.543212    1.441088
      4          1           0       -3.834129   -0.047470   -0.062026
      5          6           0       -1.751081   -0.611572   -0.232029
      6          8           0       -1.072905   -1.557899   -0.506524
      7          7           0       -1.355970    0.674155   -0.500971
      8          1           0       -1.970941    1.368767   -0.137122
      9          6           0        0.039364    1.095950   -0.500284
     10          1           0        0.357468    1.233250   -1.529444
     11          6           0        0.177234    2.431635    0.229740
     12          1           0       -0.097807    2.317845    1.271153
     13          1           0        1.200577    2.784961    0.179945
     14          1           0       -0.458772    3.182229   -0.229978
     15          6           0        0.974384    0.085091    0.173963
     16          8           0        0.780364   -0.276201    1.300133
     17          7           0        2.119619   -0.170614   -0.499546
     18          1           0        2.094714   -0.067502   -1.488530
     19          6           0        3.070057   -1.128097    0.031246
     20          1           0        3.306506   -0.868596    1.052095
     21          1           0        2.678324   -2.139142    0.014363
     22          1           0        3.973949   -1.083870   -0.562277
 ---------------------------------------------------------------------

 The electronic state is 1-A.
 Alpha  occ. eigenvalues --  -20.52237 -20.51607 -15.58345 -15.58122 -11.34557
 Alpha  occ. eigenvalues --  -11.34068 -11.28335 -11.24970 -11.23409 -11.22950
 Alpha  occ. eigenvalues --   -1.39665  -1.38123  -1.23743  -1.22740  -1.05676
 Alpha  occ. eigenvalues --   -0.99193  -0.95605  -0.87558  -0.80071  -0.77461
 Alpha  occ. eigenvalues --   -0.70326  -0.68765  -0.66784  -0.63465  -0.62102
 Alpha  occ. eigenvalues --   -0.61482  -0.59582  -0.58079  -0.57608  -0.55090
 Alpha  occ. eigenvalues --   -0.54618  -0.54592  -0.53432  -0.51970  -0.49118
 Alpha  occ. eigenvalues --   -0.42195  -0.41519  -0.38864  -0.38688
 Alpha virt. eigenvalues --    0.19437   0.20846   0.21440   0.23389   0.26627
 Alpha virt. eigenvalues --    0.27428   0.29237   0.30534   0.31009   0.31192
 Alpha virt. eigenvalues --    0.32309   0.33499   0.34114   0.35098   0.37900

 Mulliken atomic charges:
              1
     1  H    0.215055
     2  C   -0.597146
     3  H    0.204368
     4  H    0.176820
     5  C    0.761341
     6  O   -0.594885
     7  N   -0.799272
     8  H    0.376717
     9  C    0.009389
    10  H    0.179182
    11  C   -0.522970
    12  H    0.201700
    13  H    0.189694
    14  H    0.171282
    15  C    0.785481
    16  O   -0.622105
    17  N   -0.789058
    18  H    0.380975
    19  C   -0.283199
    20  H    0.202652
    21  H    0.188278
    22  H    0.165701
 Sum of Mulliken atomic charges =   0.00000

 Dipole moment (field-independent basis, Debye):
    X=             -0.3221    Y=              3.4572    Z=             -1.8031  Tot=              3.9124
 Quadrupole moment (field-independent basis, Debye-Ang):
   XX=            -47.3831   YY=            -61.3222   ZZ=            -63.0654
   XY=             -4.2604   XZ=             -6.2318   YZ=             -0.3297

 Normal termination of Gaussian 09 at Fri Feb 10 23:03:47 2017.
