 Gaussian 09, Revision A.02,
 Gaussian 09:  EM64L-G09RevA.02 11-Jun-2009

 -------------------------------------------
 # HF/6-31G* Opt=(ModRedundant) geom=nocrowd
 -------------------------------------------

 ------------------
 Phi Psi fixed scan
 ------------------
 Symbolic Z-matrix:
 Charge =  0 Multiplicity = 1

 SCF Done:  E(RHF) =  -491.978378614     A.U. after   27 cycles
 SCF Done:  E(RHF) =  -492.238045365     A.U. after   23 cycles
 SCF Done:  E(RHF) =  -492.595897250     A.U. after   16 cycles
 SCF Done:  E(RHF) =  -492.739609792     A.U. after   14 cycles
 SCF Done:  E(RHF) =  -492.794623583     A.U. after   14 cycles
 SCF Done:  E(RHF) =  -492.811615477     A.U. after   13 cycles
 SCF Done:  E(RHF) =  -492.822402517     A.U. after   13 cycles
 SCF Done:  E(RHF) =  -492.835250044     A.U. after   14 cycles
 SCF Done:  E(RHF) =  -492.837922151     A.U. after   13 cycles
 SCF Done:  E(RHF) =  -492.839585355     A.U. after   13 cycles
 SCF Done:  E(RHF) =  -492.843727986     A.U. after   13 cycles
 SCF Done:  E(RHF) =  -492.843811186     A.U. after   12 cycles
 SCF Done:  E(RHF) =  -492.843852176     A.U. after   11 cycles
 SCF Done:  E(RHF) =  -492.843905670     A.U. after   11 cycles
 SCF Done:  E(RHF) =  -492.843910057     A.U. after   11 cycles
 SCF Done:  E(RHF) =  -492.843911517     A.U. after    9 cycles
 SCF Done:  E(RHF) =  -492.843912294     A.U. after   10 cycles
 SCF Done:  E(RHF) =  -492.843912524     A.U. after    7 cycles
 SCF Done:  E(RHF) =  -492.843912719     A.U. after    8 cycles
 SCF Done:  E(RHF) =  -492.843912791     A.U. after    8 cycles
 Optimization completed.
    -- Stationary point found.

                         Standard orientation:
 ---------------------------------------------------------------------
 Center     Atomic      Atomic             Coordinates (Angstroms)
 Number     Number       Type             X           Y           Z
 ---------------------------------------------------------------------
      1          1           0       -3.682535   -1.108477    0.878579
      2          6           0       -3.385764   -0.400029    0.117174
      3          1           0       -3.735474    0.588138    0.389312
      4          1           0       -3.859483   -0.695746   -0.812279
      5          6           0       -1.883014   -0.498448   -0.064119
      6          8           0       -1.370848   -1.588760   -0.133808
      7          7           0       -1.250981    0.687212   -0.166340
      8          1           0       -1.862229    1.466457   -0.081184
      9          6           0        0.136772    1.152273   -0.360423
     10          1           0        0.220175    1.467172   -1.395024
     11          6           0        0.319368    2.389212    0.528170
     12          1           0        0.250729    2.116355    1.576014
     13          1           0        1.282817    2.836558    0.341675
     14          1           0       -0.450167    3.126684    0.316514
     15          6           0        1.380358    0.256736   -0.181743
     16          8           0        2.434987    0.810249   -0.378265
     17          7           0        1.288555   -1.023356    0.166783
     18          1           0        0.394659   -1.466970    0.153131
     19          6           0        2.483143   -1.833886    0.266531
     20          1           0        3.177189   -1.402762    0.975244
     21          1           0        2.196011   -2.819486    0.607213
     22          1           0        2.986990   -1.921970   -0.689244
 ---------------------------------------------------------------------

 The electronic state is 1-A.
 Alpha  occ. eigenvalues --  -20.53917 -20.50873 -15.60709 -15.56373 -11.37085
 Alpha  occ. eigenvalues --  -11.34078 -11.29296 -11.24512 -11.24330 -11.22907
 Alpha  occ. eigenvalues --   -1.40778  -1.38119  -1.25588  -1.21839  -1.06445
 Alpha  occ. eigenvalues --   -1.00107  -0.95141  -0.88187  -0.82119  -0.77544
 Alpha  occ. eigenvalues --   -0.71035  -0.70513  -0.66987  -0.63192  -0.62617
 Alpha  occ. eigenvalues --   -0.61670  -0.60159  -0.59124  -0.58206  -0.56244
 Alpha  occ. eigenvalues --   -0.54610  -0.53806  -0.53336  -0.52357  -0.49836
 Alpha  occ. eigenvalues --   -0.43335  -0.41364  -0.40231  -0.37387
 Alpha virt. eigenvalues --    0.18608   0.19539   0.21039   0.25777   0.26988
 Alpha virt. eigenvalues --    0.27904   0.28824   0.30352   0.31426   0.32077
 Alpha virt. eigenvalues --    0.32909   0.33925   0.35557   0.35713   0.38023

 Mulliken atomic charges:
              1
     1  H    0.215111
     2  C   -0.579582
     3  H    0.169126
     4  H    0.211352
     5  C    0.779632
     6  O   -0.645871
     7  N   -0.845992
     8  H    0.388825
     9  C    0.010946
    10  H    0.216836
    11  C   -0.507141
    12  H    0.178705
    13  H    0.230015
    14  H    0.152539
    15  C    0.757199
    16  O   -0.639969
    17  N   -0.838961
    18  H    0.482411
    19  C   -0.271034
    20  H    0.187462
    21  H    0.169547
    22  H    0.178844
 Sum of Mulliken atomic charges =   0.00000

 Dipole moment (field-independent basis, Debye):
    X=             -4.3714    Y=              1.4287    Z=              0.6987  Tot=              4.6517
 Quadrupole moment (field-independent basis, Debye-Ang):
   XX=            -60.8478   YY=            -60.0633   ZZ=            -60.3325
   XY=            -10.2768   XZ=              1.8211   YZ=             -0.5401

 Normal termination of Gaussian 09 at Fri Feb 10 22:22:44 2017.
