 Gaussian 09, Revision A.02,
 Gaussian 09:  EM64L-G09RevA.02 11-Jun-2009

 -------------------------------------------
 # HF/6-31G* Opt=(ModRedundant) geom=nocrowd
 -------------------------------------------

 ------------------
 Phi Psi fixed scan
 ------------------
 Symbolic Z-matrix:
 Charge =  0 Multiplicity = 1

 SCF Done:  E(RHF) =  -492.800828067     A.U. after   15 cycles
 SCF Done:  E(RHF) =  -492.836014084     A.U. after   15 cycles
 SCF Done:  E(RHF) =  -492.840961203     A.U. after   13 cycles
 SCF Done:  E(RHF) =  -492.842044612     A.U. after   13 cycles
 SCF Done:  E(RHF) =  -492.842980679     A.U. after   14 cycles
 SCF Done:  E(RHF) =  -492.843598942     A.U. after   13 cycles
 SCF Done:  E(RHF) =  -492.843883597     A.U. after   12 cycles
 SCF Done:  E(RHF) =  -492.844133275     A.U. after   12 cycles
 SCF Done:  E(RHF) =  -492.844385918     A.U. after   12 cycles
 SCF Done:  E(RHF) =  -492.844661137     A.U. after   13 cycles
 SCF Done:  E(RHF) =  -492.844957765     A.U. after   11 cycles
 SCF Done:  E(RHF) =  -492.844967269     A.U. after   10 cycles
 SCF Done:  E(RHF) =  -492.844978089     A.U. after   11 cycles
 SCF Done:  E(RHF) =  -492.844989767     A.U. after   11 cycles
 SCF Done:  E(RHF) =  -492.845006033     A.U. after   11 cycles
 SCF Done:  E(RHF) =  -492.845023061     A.U. after   11 cycles
 SCF Done:  E(RHF) =  -492.845025306     A.U. after   10 cycles
 SCF Done:  E(RHF) =  -492.845026327     A.U. after   10 cycles
 SCF Done:  E(RHF) =  -492.845027441     A.U. after   11 cycles
 SCF Done:  E(RHF) =  -492.845027549     A.U. after    8 cycles
 Optimization completed.
    -- Stationary point found.

                         Standard orientation:
 ---------------------------------------------------------------------
 Center     Atomic      Atomic             Coordinates (Angstroms)
 Number     Number       Type             X           Y           Z
 ---------------------------------------------------------------------
      1          1           0       -3.512997   -1.776169    0.090451
      2          6           0       -3.197171   -0.764107    0.298259
      3          1           0       -3.370075   -0.562557    1.350679
      4          1           0       -3.791382   -0.070576   -0.285428
      5          6           0       -1.711043   -0.654156    0.020546
      6          8           0       -0.987323   -1.606025    0.144955
      7          7           0       -1.300728    0.578944   -0.353351
      8          1           0       -2.016348    1.267212   -0.408719
      9          6           0        0.042056    1.142278   -0.540263
     10          1           0        0.231481    1.183538   -1.609990
     11          6           0        0.049944    2.564596    0.008977
     12          1           0       -0.092721    2.560336    1.081039
     13          1           0        0.994792    3.046038   -0.203743
     14          1           0       -0.739196    3.150143   -0.455633
     15          6           0        1.223706    0.343358    0.054118
     16          8           0        1.837671    0.782771    0.985592
     17          7           0        1.591097   -0.774177   -0.613923
     18          1           0        0.843327   -1.254484   -1.061768
     19          6           0        2.598234   -1.635746   -0.026666
     20          1           0        3.488716   -1.062263    0.182480
     21          1           0        2.253793   -2.091866    0.895667
     22          1           0        2.840893   -2.414016   -0.738320
 ---------------------------------------------------------------------

 The electronic state is 1-A.
 Alpha  occ. eigenvalues --  -20.53190 -20.52393 -15.60076 -15.56450 -11.36222
 Alpha  occ. eigenvalues --  -11.34198 -11.28898 -11.24083 -11.23967 -11.22542
 Alpha  occ. eigenvalues --   -1.40238  -1.38949  -1.25043  -1.21845  -1.06128
 Alpha  occ. eigenvalues --   -0.99765  -0.95011  -0.87439  -0.81519  -0.76389
 Alpha  occ. eigenvalues --   -0.70376  -0.70201  -0.67407  -0.63406  -0.62710
 Alpha  occ. eigenvalues --   -0.61348  -0.60168  -0.58806  -0.57768  -0.55311
 Alpha  occ. eigenvalues --   -0.53907  -0.53512  -0.53121  -0.51566  -0.51054
 Alpha  occ. eigenvalues --   -0.43115  -0.42751  -0.39532  -0.37549
 Alpha virt. eigenvalues --    0.18729   0.19252   0.21819   0.25100   0.26581
 Alpha virt. eigenvalues --    0.28082   0.28665   0.29835   0.30953   0.31586
 Alpha virt. eigenvalues --    0.32812   0.33096   0.34695   0.35081   0.38907

 Mulliken atomic charges:
              1
     1  H    0.215607
     2  C   -0.585251
     3  H    0.207399
     4  H    0.172066
     5  C    0.759227
     6  O   -0.624064
     7  N   -0.827516
     8  H    0.387011
     9  C   -0.005769
    10  H    0.197415
    11  C   -0.486966
    12  H    0.200004
    13  H    0.194917
    14  H    0.148008
    15  C    0.751636
    16  O   -0.601615
    17  N   -0.759809
    18  H    0.402626
    19  C   -0.286214
    20  H    0.194861
    21  H    0.180068
    22  H    0.166357
 Sum of Mulliken atomic charges =   0.00000

 Dipole moment (field-independent basis, Debye):
    X=             -3.6958    Y=              1.3338    Z=             -2.3728  Tot=              4.5900
 Quadrupole moment (field-independent basis, Debye-Ang):
   XX=            -54.7465   YY=            -60.4573   ZZ=            -62.4245
   XY=             -6.8392   XZ=             -3.4839   YZ=             -1.3634

 Normal termination of Gaussian 09 at Fri Feb 10 22:53:14 2017.
