 Gaussian 09, Revision A.02,
 Gaussian 09:  EM64L-G09RevA.02 11-Jun-2009

 -------------------------------------------
 # HF/6-31G* Opt=(ModRedundant) geom=nocrowd
 -------------------------------------------

 ------------------
 Phi Psi fixed scan
 ------------------
 Symbolic Z-matrix:
 Charge =  0 Multiplicity = 1

 SCF Done:  E(RHF) =  -492.796042506     A.U. after   15 cycles
 SCF Done:  E(RHF) =  -492.836253343     A.U. after   15 cycles
 SCF Done:  E(RHF) =  -492.841452688     A.U. after   13 cycles
 SCF Done:  E(RHF) =  -492.842633042     A.U. after   13 cycles
 SCF Done:  E(RHF) =  -492.843039944     A.U. after   13 cycles
 SCF Done:  E(RHF) =  -492.843929631     A.U. after   12 cycles
 SCF Done:  E(RHF) =  -492.844245914     A.U. after   13 cycles
 SCF Done:  E(RHF) =  -492.844526507     A.U. after   12 cycles
 SCF Done:  E(RHF) =  -492.844710582     A.U. after   12 cycles
 SCF Done:  E(RHF) =  -492.845059172     A.U. after   15 cycles
 SCF Done:  E(RHF) =  -492.845515311     A.U. after   10 cycles
 SCF Done:  E(RHF) =  -492.845509454     A.U. after   10 cycles
 SCF Done:  E(RHF) =  -492.845536832     A.U. after   16 cycles
 SCF Done:  E(RHF) =  -492.845541163     A.U. after   11 cycles
 SCF Done:  E(RHF) =  -492.845508032     A.U. after   12 cycles
 SCF Done:  E(RHF) =  -492.845543181     A.U. after   12 cycles
 SCF Done:  E(RHF) =  -492.845543424     A.U. after   11 cycles
 SCF Done:  E(RHF) =  -492.845545941     A.U. after   11 cycles
 SCF Done:  E(RHF) =  -492.845546008     A.U. after    8 cycles
 SCF Done:  E(RHF) =  -492.845546023     A.U. after    7 cycles
 Optimization completed.
    -- Stationary point found.

                         Standard orientation:
 ---------------------------------------------------------------------
 Center     Atomic      Atomic             Coordinates (Angstroms)
 Number     Number       Type             X           Y           Z
 ---------------------------------------------------------------------
      1          1           0        3.553750   -1.490574   -0.582799
      2          6           0        3.313180   -0.541798   -0.124838
      3          1           0        3.670640    0.266115   -0.752357
      4          1           0        3.825453   -0.488546    0.830388
      5          6           0        1.819224   -0.490776    0.125623
      6          8           0        1.202446   -1.491028    0.385083
      7          7           0        1.277365    0.744783    0.066902
      8          1           0        1.904709    1.478575   -0.172857
      9          6           0       -0.088362    1.215669    0.303510
     10          1           0       -0.116451    1.676624    1.281798
     11          6           0       -0.430714    2.278682   -0.747034
     12          1           0       -0.436850    1.848671   -1.741614
     13          1           0       -1.406122    2.700177   -0.539451
     14          1           0        0.294867    3.087031   -0.722228
     15          6           0       -1.258178    0.220666    0.354996
     16          8           0       -2.143262    0.466121    1.127198
     17          7           0       -1.343050   -0.748019   -0.585683
     18          1           0       -0.474086   -1.151312   -0.852712
     19          6           0       -2.455513   -1.676860   -0.522461
     20          1           0       -3.386783   -1.130539   -0.536306
     21          1           0       -2.412781   -2.320443   -1.391418
     22          1           0       -2.427856   -2.287364    0.373998
 ---------------------------------------------------------------------

 The electronic state is 1-A.
 Alpha  occ. eigenvalues --  -20.53377 -20.52068 -15.60282 -15.56579 -11.36468
 Alpha  occ. eigenvalues --  -11.34190 -11.28704 -11.24344 -11.24170 -11.23471
 Alpha  occ. eigenvalues --   -1.40440  -1.38838  -1.25279  -1.21814  -1.06487
 Alpha  occ. eigenvalues --   -1.00174  -0.94576  -0.88380  -0.81868  -0.76862
 Alpha  occ. eigenvalues --   -0.70964  -0.69912  -0.66873  -0.63116  -0.62685
 Alpha  occ. eigenvalues --   -0.62346  -0.59847  -0.58618  -0.57912  -0.56614
 Alpha  occ. eigenvalues --   -0.55136  -0.53937  -0.53379  -0.51816  -0.50374
 Alpha  occ. eigenvalues --   -0.43257  -0.41474  -0.40245  -0.37976
 Alpha virt. eigenvalues --    0.18671   0.19872   0.20517   0.25418   0.26438
 Alpha virt. eigenvalues --    0.27804   0.29104   0.29740   0.30552   0.32003
 Alpha virt. eigenvalues --    0.32545   0.33974   0.34131   0.35133   0.36848

 Mulliken atomic charges:
              1
     1  H    0.215179
     2  C   -0.581787
     3  H    0.170823
     4  H    0.209139
     5  C    0.754222
     6  O   -0.625778
     7  N   -0.833354
     8  H    0.385461
     9  C    0.007478
    10  H    0.220695
    11  C   -0.507254
    12  H    0.186843
    13  H    0.206125
    14  H    0.161268
    15  C    0.747461
    16  O   -0.610643
    17  N   -0.772962
    18  H    0.412794
    19  C   -0.284933
    20  H    0.194056
    21  H    0.165742
    22  H    0.179426
 Sum of Mulliken atomic charges =   0.00000

 Dipole moment (field-independent basis, Debye):
    X=              4.0739    Y=              2.0337    Z=             -2.8467  Tot=              5.3700
 Quadrupole moment (field-independent basis, Debye-Ang):
   XX=            -57.3052   YY=            -58.6818   ZZ=            -63.4947
   XY=              6.9437   XZ=              3.9996   YZ=              1.2944

 Normal termination of Gaussian 09 at Fri Feb 10 23:40:41 2017.
