 Gaussian 09, Revision A.02,
 Gaussian 09:  EM64L-G09RevA.02 11-Jun-2009

 -------------------------------------------
 # HF/6-31G* Opt=(ModRedundant) geom=nocrowd
 -------------------------------------------

 ------------------
 Phi Psi fixed scan
 ------------------
 Symbolic Z-matrix:
 Charge =  0 Multiplicity = 1

 SCF Done:  E(RHF) =  -492.680951595     A.U. after   17 cycles
 SCF Done:  E(RHF) =  -492.742545395     A.U. after   15 cycles
 SCF Done:  E(RHF) =  -492.802179285     A.U. after   14 cycles
 SCF Done:  E(RHF) =  -492.812658211     A.U. after   14 cycles
 SCF Done:  E(RHF) =  -492.824939846     A.U. after   12 cycles
 SCF Done:  E(RHF) =  -492.828097403     A.U. after   13 cycles
 SCF Done:  E(RHF) =  -492.830920822     A.U. after   13 cycles
 SCF Done:  E(RHF) =  -492.832607374     A.U. after   13 cycles
 SCF Done:  E(RHF) =  -492.833826923     A.U. after   14 cycles
 SCF Done:  E(RHF) =  -492.834574097     A.U. after   13 cycles
 SCF Done:  E(RHF) =  -492.835402500     A.U. after   11 cycles
 SCF Done:  E(RHF) =  -492.835514571     A.U. after   12 cycles
 SCF Done:  E(RHF) =  -492.835623567     A.U. after   12 cycles
 SCF Done:  E(RHF) =  -492.835740004     A.U. after   12 cycles
 SCF Done:  E(RHF) =  -492.835851541     A.U. after   11 cycles
 SCF Done:  E(RHF) =  -492.835859263     A.U. after   10 cycles
 SCF Done:  E(RHF) =  -492.835863321     A.U. after   10 cycles
 SCF Done:  E(RHF) =  -492.835864093     A.U. after    8 cycles
 SCF Done:  E(RHF) =  -492.835864252     A.U. after    8 cycles
 SCF Done:  E(RHF) =  -492.835864264     A.U. after    8 cycles
 Optimization completed.
    -- Stationary point found.

                         Standard orientation:
 ---------------------------------------------------------------------
 Center     Atomic      Atomic             Coordinates (Angstroms)
 Number     Number       Type             X           Y           Z
 ---------------------------------------------------------------------
      1          1           0       -3.665598   -1.381587    0.497953
      2          6           0       -3.123827   -0.458015    0.637384
      3          1           0       -2.796066   -0.390743    1.670252
      4          1           0       -3.779764    0.382502    0.433033
      5          6           0       -1.911666   -0.455677   -0.266515
      6          8           0       -1.536017   -1.429902   -0.840371
      7          7           0       -1.327843    0.788975   -0.448154
      8          1           0       -1.783816    1.486773    0.098779
      9          6           0        0.109660    1.030897   -0.486616
     10          1           0        0.402393    1.219016   -1.516340
     11          6           0        0.421752    2.286086    0.336541
     12          1           0        0.196608    2.114679    1.383963
     13          1           0        1.465450    2.557807    0.251853
     14          1           0       -0.174898    3.120391   -0.018357
     15          6           0        0.970426   -0.122461    0.042319
     16          8           0        0.581088   -0.893906    0.869313
     17          7           0        2.284678   -0.021188   -0.292510
     18          1           0        2.507695    0.457411   -1.136117
     19          6           0        3.225818   -1.031656    0.149970
     20          1           0        3.136148   -1.160130    1.217955
     21          1           0        3.052734   -1.990607   -0.326584
     22          1           0        4.227722   -0.694601   -0.081783
 ---------------------------------------------------------------------

 The electronic state is 1-A.
 Alpha  occ. eigenvalues --  -20.52563 -20.51529 -15.58580 -15.57642 -11.34602
 Alpha  occ. eigenvalues --  -11.33883 -11.28749 -11.25571 -11.24059 -11.22412
 Alpha  occ. eigenvalues --   -1.39910  -1.37971  -1.23557  -1.22880  -1.05731
 Alpha  occ. eigenvalues --   -0.98834  -0.95801  -0.88124  -0.79796  -0.77535
 Alpha  occ. eigenvalues --   -0.70333  -0.67980  -0.66600  -0.63786  -0.62832
 Alpha  occ. eigenvalues --   -0.61209  -0.59462  -0.57725  -0.57574  -0.55814
 Alpha  occ. eigenvalues --   -0.55184  -0.54861  -0.53861  -0.52008  -0.48606
 Alpha  occ. eigenvalues --   -0.42993  -0.40888  -0.39340  -0.38097
 Alpha virt. eigenvalues --    0.19071   0.20567   0.21116   0.23023   0.26809
 Alpha virt. eigenvalues --    0.27106   0.28956   0.29754   0.31255   0.31576
 Alpha virt. eigenvalues --    0.31963   0.32409   0.33595   0.34808   0.37681

 Mulliken atomic charges:
              1
     1  H    0.214076
     2  C   -0.601364
     3  H    0.200458
     4  H    0.173779
     5  C    0.767917
     6  O   -0.573565
     7  N   -0.801635
     8  H    0.370881
     9  C    0.004185
    10  H    0.182837
    11  C   -0.521661
    12  H    0.189205
    13  H    0.191645
    14  H    0.179897
    15  C    0.757012
    16  O   -0.597314
    17  N   -0.787785
    18  H    0.375977
    19  C   -0.279219
    20  H    0.205137
    21  H    0.182330
    22  H    0.167205
 Sum of Mulliken atomic charges =   0.00000

 Dipole moment (field-independent basis, Debye):
    X=              1.6675    Y=              4.6580    Z=              0.0242  Tot=              4.9475
 Quadrupole moment (field-independent basis, Debye-Ang):
   XX=            -47.7801   YY=            -62.8570   ZZ=            -62.3119
   XY=             -4.1128   XZ=             -7.7391   YZ=             -0.9669

 Normal termination of Gaussian 09 at Fri Feb 10 23:09:37 2017.
