 Gaussian 09, Revision A.02,
 Gaussian 09:  EM64L-G09RevA.02 11-Jun-2009

 -------------------------------------------
 # HF/6-31G* Opt=(ModRedundant) geom=nocrowd
 -------------------------------------------

 ------------------
 Phi Psi fixed scan
 ------------------
 Symbolic Z-matrix:
 Charge =  0 Multiplicity = 1

 SCF Done:  E(RHF) =  -492.745835258     A.U. after   16 cycles
 SCF Done:  E(RHF) =  -492.813189525     A.U. after   15 cycles
 SCF Done:  E(RHF) =  -492.817981390     A.U. after   14 cycles
 SCF Done:  E(RHF) =  -492.827492628     A.U. after   13 cycles
 SCF Done:  E(RHF) =  -492.829558112     A.U. after   13 cycles
 SCF Done:  E(RHF) =  -492.830732703     A.U. after   14 cycles
 SCF Done:  E(RHF) =  -492.831857779     A.U. after   14 cycles
 SCF Done:  E(RHF) =  -492.832442605     A.U. after   13 cycles
 SCF Done:  E(RHF) =  -492.832284780     A.U. after   13 cycles
 SCF Done:  E(RHF) =  -492.832661393     A.U. after   12 cycles
 SCF Done:  E(RHF) =  -492.832749188     A.U. after   11 cycles
 SCF Done:  E(RHF) =  -492.833081860     A.U. after   13 cycles
 SCF Done:  E(RHF) =  -492.833290518     A.U. after   13 cycles
 SCF Done:  E(RHF) =  -492.833461088     A.U. after   12 cycles
 SCF Done:  E(RHF) =  -492.833525043     A.U. after   11 cycles
 SCF Done:  E(RHF) =  -492.833552218     A.U. after   11 cycles
 SCF Done:  E(RHF) =  -492.833574836     A.U. after   11 cycles
 SCF Done:  E(RHF) =  -492.833581284     A.U. after   11 cycles
 SCF Done:  E(RHF) =  -492.833582466     A.U. after    9 cycles
 SCF Done:  E(RHF) =  -492.833582623     A.U. after    9 cycles
 Optimization completed.
    -- Stationary point found.

                         Standard orientation:
 ---------------------------------------------------------------------
 Center     Atomic      Atomic             Coordinates (Angstroms)
 Number     Number       Type             X           Y           Z
 ---------------------------------------------------------------------
      1          1           0        3.737319   -1.447911   -0.423822
      2          6           0        3.353529   -0.528057   -0.008674
      3          1           0        3.865307    0.315351   -0.461167
      4          1           0        3.552650   -0.510333    1.058719
      5          6           0        1.859222   -0.466373   -0.249402
      6          8           0        1.239193   -1.404618   -0.646480
      7          7           0        1.307466    0.779135   -0.051426
      8          1           0        1.966944    1.445355    0.288654
      9          6           0       -0.034621    1.094935    0.444227
     10          1           0        0.041053    1.299651    1.507076
     11          6           0       -0.522747    2.363523   -0.254670
     12          1           0       -0.586333    2.223194   -1.328617
     13          1           0       -1.487939    2.677539    0.125608
     14          1           0        0.180779    3.171147   -0.079664
     15          6           0       -1.007507   -0.098213    0.422784
     16          8           0       -0.857374   -0.988669    1.208037
     17          7           0       -2.130022    0.027913   -0.324443
     18          1           0       -2.100566    0.636473   -1.109130
     19          6           0       -3.068062   -1.075987   -0.391970
     20          1           0       -3.357772   -1.361972    0.607872
     21          1           0       -3.945733   -0.749019   -0.934306
     22          1           0       -2.641244   -1.941481   -0.886358
 ---------------------------------------------------------------------

 The electronic state is 1-A.
 Alpha  occ. eigenvalues --  -20.52268 -20.51338 -15.58481 -15.58057 -11.34643
 Alpha  occ. eigenvalues --  -11.34164 -11.28686 -11.24906 -11.23447 -11.23090
 Alpha  occ. eigenvalues --   -1.39484  -1.38178  -1.23770  -1.22549  -1.05786
 Alpha  occ. eigenvalues --   -0.99225  -0.94900  -0.88623  -0.80121  -0.77429
 Alpha  occ. eigenvalues --   -0.70470  -0.68579  -0.65846  -0.63724  -0.62140
 Alpha  occ. eigenvalues --   -0.61201  -0.59753  -0.57706  -0.57276  -0.56321
 Alpha  occ. eigenvalues --   -0.54963  -0.54470  -0.53624  -0.52046  -0.49540
 Alpha  occ. eigenvalues --   -0.41808  -0.40672  -0.39070  -0.38312
 Alpha virt. eigenvalues --    0.18501   0.19712   0.22120   0.23695   0.26072
 Alpha virt. eigenvalues --    0.28096   0.28996   0.30017   0.30827   0.31181
 Alpha virt. eigenvalues --    0.32306   0.33343   0.34654   0.35007   0.37699

 Mulliken atomic charges:
              1
     1  H    0.217187
     2  C   -0.595892
     3  H    0.178223
     4  H    0.194357
     5  C    0.754186
     6  O   -0.570279
     7  N   -0.801683
     8  H    0.369502
     9  C   -0.022876
    10  H    0.206732
    11  C   -0.497572
    12  H    0.172146
    13  H    0.184287
    14  H    0.169785
    15  C    0.780931
    16  O   -0.602487
    17  N   -0.796222
    18  H    0.384406
    19  C   -0.280168
    20  H    0.203315
    21  H    0.163649
    22  H    0.188475
 Sum of Mulliken atomic charges =   0.00000

 Dipole moment (field-independent basis, Debye):
    X=              0.5481    Y=              4.9140    Z=             -0.9401  Tot=              5.0331
 Quadrupole moment (field-independent basis, Debye-Ang):
   XX=            -47.0838   YY=            -62.9563   ZZ=            -62.4469
   XY=              2.8675   XZ=              6.4537   YZ=              1.9308

 Normal termination of Gaussian 09 at Fri Feb 10 23:24:42 2017.
