 Gaussian 09, Revision A.02,
 Gaussian 09:  EM64L-G09RevA.02 11-Jun-2009

 -------------------------------------------
 # HF/6-31G* Opt=(ModRedundant) geom=nocrowd
 -------------------------------------------

 ------------------
 Phi Psi fixed scan
 ------------------
 Symbolic Z-matrix:
 Charge =  0 Multiplicity = 1

 SCF Done:  E(RHF) =  -492.822772335     A.U. after   15 cycles
 SCF Done:  E(RHF) =  -492.838266019     A.U. after   14 cycles
 SCF Done:  E(RHF) =  -492.841945907     A.U. after   13 cycles
 SCF Done:  E(RHF) =  -492.842863299     A.U. after   12 cycles
 SCF Done:  E(RHF) =  -492.843470620     A.U. after   13 cycles
 SCF Done:  E(RHF) =  -492.843949135     A.U. after   12 cycles
 SCF Done:  E(RHF) =  -492.844315313     A.U. after   13 cycles
 SCF Done:  E(RHF) =  -492.844639246     A.U. after   12 cycles
 SCF Done:  E(RHF) =  -492.844903121     A.U. after   12 cycles
 SCF Done:  E(RHF) =  -492.845184601     A.U. after   13 cycles
 SCF Done:  E(RHF) =  -492.845416010     A.U. after   12 cycles
 SCF Done:  E(RHF) =  -492.845616447     A.U. after   12 cycles
 SCF Done:  E(RHF) =  -492.845632409     A.U. after   12 cycles
 SCF Done:  E(RHF) =  -492.845639947     A.U. after   10 cycles
 SCF Done:  E(RHF) =  -492.845648776     A.U. after   11 cycles
 SCF Done:  E(RHF) =  -492.845656916     A.U. after   11 cycles
 SCF Done:  E(RHF) =  -492.845661451     A.U. after   10 cycles
 SCF Done:  E(RHF) =  -492.845664200     A.U. after   10 cycles
 SCF Done:  E(RHF) =  -492.845665168     A.U. after    9 cycles
 SCF Done:  E(RHF) =  -492.845665550     A.U. after    9 cycles
 Optimization completed.
    -- Stationary point found.

                         Standard orientation:
 ---------------------------------------------------------------------
 Center     Atomic      Atomic             Coordinates (Angstroms)
 Number     Number       Type             X           Y           Z
 ---------------------------------------------------------------------
      1          1           0        3.404981   -1.691590   -0.569406
      2          6           0        3.216157   -0.699542   -0.185872
      3          1           0        3.624543    0.038987   -0.866484
      4          1           0        3.721107   -0.599474    0.769940
      5          6           0        1.725363   -0.535170    0.026946
      6          8           0        1.006756   -1.477901    0.210709
      7          7           0        1.285894    0.747965   -0.002722
      8          1           0        1.976349    1.455301   -0.117977
      9          6           0       -0.039438    1.248147    0.355072
     10          1           0        0.007698    1.649673    1.359423
     11          6           0       -0.443393    2.369109   -0.603306
     12          1           0       -0.491855    2.021622   -1.627937
     13          1           0       -1.412750    2.768142   -0.328276
     14          1           0        0.276432    3.181377   -0.554510
     15          6           0       -1.124645    0.165066    0.463448
     16          8           0       -1.621241   -0.067450    1.526368
     17          7           0       -1.595685   -0.342662   -0.706115
     18          1           0       -0.939030   -0.356021   -1.454751
     19          6           0       -2.487050   -1.486216   -0.655999
     20          1           0       -3.336668   -1.250047   -0.033602
     21          1           0       -2.835325   -1.696691   -1.659141
     22          1           0       -1.993028   -2.363958   -0.253768
 ---------------------------------------------------------------------

 The electronic state is 1-A.
 Alpha  occ. eigenvalues --  -20.53021 -20.51788 -15.59783 -15.56920 -11.35853
 Alpha  occ. eigenvalues --  -11.33896 -11.28362 -11.24042 -11.24012 -11.23499
 Alpha  occ. eigenvalues --   -1.40156  -1.38462  -1.24855  -1.21827  -1.06216
 Alpha  occ. eigenvalues --   -0.99948  -0.94354  -0.88420  -0.81308  -0.76760
 Alpha  occ. eigenvalues --   -0.70796  -0.69226  -0.66775  -0.63197  -0.62476
 Alpha  occ. eigenvalues --   -0.61682  -0.59738  -0.58316  -0.57535  -0.56447
 Alpha  occ. eigenvalues --   -0.54988  -0.53930  -0.53508  -0.51283  -0.51063
 Alpha  occ. eigenvalues --   -0.42383  -0.41169  -0.39808  -0.38058
 Alpha virt. eigenvalues --    0.19140   0.19984   0.21163   0.24227   0.25809
 Alpha virt. eigenvalues --    0.28185   0.28693   0.29765   0.29884   0.31677
 Alpha virt. eigenvalues --    0.32729   0.33796   0.34507   0.34968   0.37076

 Mulliken atomic charges:
              1
     1  H    0.216722
     2  C   -0.586665
     3  H    0.173052
     4  H    0.204828
     5  C    0.751580
     6  O   -0.603850
     7  N   -0.826127
     8  H    0.381839
     9  C   -0.023274
    10  H    0.218763
    11  C   -0.486523
    12  H    0.172871
    13  H    0.193506
    14  H    0.160688
    15  C    0.770587
    16  O   -0.599805
    17  N   -0.755227
    18  H    0.375437
    19  C   -0.289011
    20  H    0.199028
    21  H    0.161787
    22  H    0.189792
 Sum of Mulliken atomic charges =   0.00000

 Dipole moment (field-independent basis, Debye):
    X=              3.4641    Y=              3.0356    Z=             -3.5415  Tot=              5.8101
 Quadrupole moment (field-independent basis, Debye-Ang):
   XX=            -53.6531   YY=            -59.3255   ZZ=            -63.9920
   XY=              4.2603   XZ=              4.7754   YZ=              2.9480

 Normal termination of Gaussian 09 at Fri Feb 10 23:33:20 2017.
