 Gaussian 09, Revision A.02,
 Gaussian 09:  EM64L-G09RevA.02 11-Jun-2009

 -------------------------------------------
 # HF/6-31G* Opt=(ModRedundant) geom=nocrowd
 -------------------------------------------

 ------------------
 Phi Psi fixed scan
 ------------------
 Symbolic Z-matrix:
 Charge =  0 Multiplicity = 1

 SCF Done:  E(RHF) =  -492.811031032     A.U. after   15 cycles
 SCF Done:  E(RHF) =  -492.832706431     A.U. after   15 cycles
 SCF Done:  E(RHF) =  -492.838130231     A.U. after   13 cycles
 SCF Done:  E(RHF) =  -492.839505584     A.U. after   13 cycles
 SCF Done:  E(RHF) =  -492.840043101     A.U. after   13 cycles
 SCF Done:  E(RHF) =  -492.840671159     A.U. after   13 cycles
 SCF Done:  E(RHF) =  -492.841192344     A.U. after   13 cycles
 SCF Done:  E(RHF) =  -492.841325583     A.U. after   13 cycles
 SCF Done:  E(RHF) =  -492.841630611     A.U. after   13 cycles
 SCF Done:  E(RHF) =  -492.841878038     A.U. after   12 cycles
 SCF Done:  E(RHF) =  -492.842337786     A.U. after   15 cycles
 SCF Done:  E(RHF) =  -492.842556040     A.U. after   12 cycles
 SCF Done:  E(RHF) =  -492.842660603     A.U. after   12 cycles
 SCF Done:  E(RHF) =  -492.842674062     A.U. after   11 cycles
 SCF Done:  E(RHF) =  -492.842675041     A.U. after    9 cycles
 SCF Done:  E(RHF) =  -492.842675243     A.U. after    8 cycles
 SCF Done:  E(RHF) =  -492.842675293     A.U. after    6 cycles
 SCF Done:  E(RHF) =  -492.842675332     A.U. after    8 cycles
 SCF Done:  E(RHF) =  -492.842675401     A.U. after    8 cycles
 SCF Done:  E(RHF) =  -492.842675400     A.U. after    7 cycles
 Optimization completed.
    -- Stationary point found.

                         Standard orientation:
 ---------------------------------------------------------------------
 Center     Atomic      Atomic             Coordinates (Angstroms)
 Number     Number       Type             X           Y           Z
 ---------------------------------------------------------------------
      1          1           0        3.485710   -1.671765   -0.557846
      2          6           0        3.250493   -0.690531   -0.173009
      3          1           0        3.705120    0.067042   -0.801991
      4          1           0        3.668087   -0.598907    0.825154
      5          6           0        1.745258   -0.541958   -0.099062
      6          8           0        1.011601   -1.488561   -0.112902
      7          7           0        1.304129    0.745849   -0.048956
      8          1           0        2.012523    1.441930    0.026965
      9          6           0       -0.009728    1.206928    0.399739
     10          1           0        0.082505    1.537317    1.427071
     11          6           0       -0.455218    2.392764   -0.455138
     12          1           0       -0.522236    2.130763   -1.504307
     13          1           0       -1.420113    2.760581   -0.126582
     14          1           0        0.260777    3.204393   -0.363918
     15          6           0       -1.058674    0.084784    0.499639
     16          8           0       -1.303801   -0.396497    1.566887
     17          7           0       -1.799791   -0.163112   -0.611090
     18          1           0       -1.352268    0.026043   -1.480153
     19          6           0       -2.693072   -1.306563   -0.609520
     20          1           0       -3.374313   -1.226243    0.223866
     21          1           0       -3.262331   -1.300589   -1.530223
     22          1           0       -2.150577   -2.241801   -0.525486
 ---------------------------------------------------------------------

 The electronic state is 1-A.
 Alpha  occ. eigenvalues --  -20.52899 -20.51504 -15.59393 -15.57201 -11.35534
 Alpha  occ. eigenvalues --  -11.33891 -11.28362 -11.24201 -11.23757 -11.23386
 Alpha  occ. eigenvalues --   -1.40011  -1.38283  -1.24509  -1.21973  -1.06020
 Alpha  occ. eigenvalues --   -0.99750  -0.94394  -0.88407  -0.80885  -0.76857
 Alpha  occ. eigenvalues --   -0.70785  -0.68951  -0.66385  -0.63360  -0.62426
 Alpha  occ. eigenvalues --   -0.61404  -0.59725  -0.58105  -0.57378  -0.56387
 Alpha  occ. eigenvalues --   -0.54808  -0.54103  -0.53295  -0.51727  -0.50555
 Alpha  occ. eigenvalues --   -0.42101  -0.41022  -0.39599  -0.38149
 Alpha virt. eigenvalues --    0.19142   0.19591   0.21625   0.23874   0.25859
 Alpha virt. eigenvalues --    0.28240   0.28863   0.29832   0.30160   0.32123
 Alpha virt. eigenvalues --    0.32496   0.33566   0.34639   0.35199   0.37599

 Mulliken atomic charges:
              1
     1  H    0.217813
     2  C   -0.591188
     3  H    0.177146
     4  H    0.200617
     5  C    0.753954
     6  O   -0.595775
     7  N   -0.814855
     8  H    0.377920
     9  C   -0.030236
    10  H    0.214664
    11  C   -0.479584
    12  H    0.165986
    13  H    0.190653
    14  H    0.161605
    15  C    0.778999
    16  O   -0.602152
    17  N   -0.767958
    18  H    0.376940
    19  C   -0.287270
    20  H    0.200165
    21  H    0.162029
    22  H    0.190525
 Sum of Mulliken atomic charges =   0.00000

 Dipole moment (field-independent basis, Debye):
    X=              2.6673    Y=              3.6993    Z=             -2.9341  Tot=              5.4229
 Quadrupole moment (field-independent basis, Debye-Ang):
   XX=            -51.0190   YY=            -60.6650   ZZ=            -63.5340
   XY=              3.6278   XZ=              5.5570   YZ=              3.0793

 Normal termination of Gaussian 09 at Fri Feb 10 23:30:33 2017.
