 Gaussian 09, Revision A.02,
 Gaussian 09:  EM64L-G09RevA.02 11-Jun-2009

 -------------------------------------------
 # HF/6-31G* Opt=(ModRedundant) geom=nocrowd
 -------------------------------------------

 ------------------
 Phi Psi fixed scan
 ------------------
 Symbolic Z-matrix:
 Charge =  0 Multiplicity = 1

 SCF Done:  E(RHF) =  -492.823847452     A.U. after   15 cycles
 SCF Done:  E(RHF) =  -492.839858834     A.U. after   15 cycles
 SCF Done:  E(RHF) =  -492.843775262     A.U. after   13 cycles
 SCF Done:  E(RHF) =  -492.844853021     A.U. after   13 cycles
 SCF Done:  E(RHF) =  -492.845840544     A.U. after   13 cycles
 SCF Done:  E(RHF) =  -492.846571107     A.U. after   12 cycles
 SCF Done:  E(RHF) =  -492.846737471     A.U. after   13 cycles
 SCF Done:  E(RHF) =  -492.847322386     A.U. after   12 cycles
 SCF Done:  E(RHF) =  -492.847507326     A.U. after   12 cycles
 SCF Done:  E(RHF) =  -492.847703928     A.U. after   12 cycles
 SCF Done:  E(RHF) =  -492.847924692     A.U. after   12 cycles
 SCF Done:  E(RHF) =  -492.848132026     A.U. after   11 cycles
 SCF Done:  E(RHF) =  -492.848291771     A.U. after   12 cycles
 SCF Done:  E(RHF) =  -492.848306330     A.U. after   10 cycles
 SCF Done:  E(RHF) =  -492.848312869     A.U. after   10 cycles
 SCF Done:  E(RHF) =  -492.848316682     A.U. after   10 cycles
 SCF Done:  E(RHF) =  -492.848319579     A.U. after   10 cycles
 SCF Done:  E(RHF) =  -492.848320554     A.U. after    9 cycles
 SCF Done:  E(RHF) =  -492.848320812     A.U. after    8 cycles
 Optimization completed.
    -- Stationary point found.

                         Standard orientation:
 ---------------------------------------------------------------------
 Center     Atomic      Atomic             Coordinates (Angstroms)
 Number     Number       Type             X           Y           Z
 ---------------------------------------------------------------------
      1          1           0       -3.343998   -1.937884    0.193483
      2          6           0       -3.081392   -0.898249    0.322131
      3          1           0       -3.124570   -0.656174    1.379700
      4          1           0       -3.796935   -0.272966   -0.200568
      5          6           0       -1.669478   -0.683223   -0.174257
      6          8           0       -0.890733   -1.584260   -0.306502
      7          7           0       -1.358317    0.605437   -0.498923
      8          1           0       -2.044928    1.280856   -0.245083
      9          6           0        0.003319    1.129961   -0.524362
     10          1           0        0.311181    1.232325   -1.560634
     11          6           0        0.040989    2.508089    0.130556
     12          1           0       -0.216267    2.429946    1.178933
     13          1           0        1.033880    2.935601    0.051120
     14          1           0       -0.652539    3.182572   -0.363344
     15          6           0        1.002463    0.211387    0.194285
     16          8           0        0.949832    0.065287    1.382817
     17          7           0        2.012607   -0.259095   -0.572206
     18          1           0        1.820219   -0.348532   -1.544355
     19          6           0        2.939397   -1.223584   -0.012834
     20          1           0        3.356068   -0.830268    0.902084
     21          1           0        2.453178   -2.167987    0.205517
     22          1           0        3.740090   -1.386398   -0.722586
 ---------------------------------------------------------------------

 The electronic state is 1-A.
 Alpha  occ. eigenvalues --  -20.52590 -20.51536 -15.58794 -15.57644 -11.34999
 Alpha  occ. eigenvalues --  -11.33913 -11.28292 -11.24534 -11.23296 -11.23098
 Alpha  occ. eigenvalues --   -1.39843  -1.38175  -1.24040  -1.22440  -1.05707
 Alpha  occ. eigenvalues --   -0.99388  -0.95355  -0.87394  -0.80357  -0.77173
 Alpha  occ. eigenvalues --   -0.70272  -0.69228  -0.66923  -0.63289  -0.61920
 Alpha  occ. eigenvalues --   -0.61631  -0.59677  -0.58231  -0.57637  -0.54849
 Alpha  occ. eigenvalues --   -0.54545  -0.54180  -0.53409  -0.51740  -0.49628
 Alpha  occ. eigenvalues --   -0.42147  -0.41869  -0.39159  -0.38287
 Alpha virt. eigenvalues --    0.19401   0.20928   0.21442   0.23635   0.26502
 Alpha virt. eigenvalues --    0.27734   0.29006   0.30403   0.30776   0.31657
 Alpha virt. eigenvalues --    0.32537   0.33522   0.34202   0.35483   0.37955

 Mulliken atomic charges:
              1
     1  H    0.215687
     2  C   -0.594556
     3  H    0.204963
     4  H    0.177409
     5  C    0.759527
     6  O   -0.604357
     7  N   -0.803909
     8  H    0.380434
     9  C    0.007704
    10  H    0.181617
    11  C   -0.520070
    12  H    0.206209
    13  H    0.188010
    14  H    0.165214
    15  C    0.786280
    16  O   -0.621085
    17  N   -0.779212
    18  H    0.381497
    19  C   -0.286919
    20  H    0.200503
    21  H    0.190392
    22  H    0.164661
 Sum of Mulliken atomic charges =   0.00000

 Dipole moment (field-independent basis, Debye):
    X=             -1.4374    Y=              2.6443    Z=             -2.4379  Tot=              3.8732
 Quadrupole moment (field-independent basis, Debye-Ang):
   XX=            -48.6330   YY=            -60.5841   ZZ=            -63.2883
   XY=             -4.3418   XZ=             -5.4832   YZ=             -0.4797

 Normal termination of Gaussian 09 at Fri Feb 10 23:01:15 2017.
