 Gaussian 09, Revision A.02,
 Gaussian 09:  EM64L-G09RevA.02 11-Jun-2009

 -------------------------------------------
 # HF/6-31G* Opt=(ModRedundant) geom=nocrowd
 -------------------------------------------

 ------------------
 Phi Psi fixed scan
 ------------------
 Symbolic Z-matrix:
 Charge =  0 Multiplicity = 1

 SCF Done:  E(RHF) =  -492.825006123     A.U. after   15 cycles
 SCF Done:  E(RHF) =  -492.839430810     A.U. after   15 cycles
 SCF Done:  E(RHF) =  -492.843391841     A.U. after   13 cycles
 SCF Done:  E(RHF) =  -492.844152102     A.U. after   13 cycles
 SCF Done:  E(RHF) =  -492.844957338     A.U. after   13 cycles
 SCF Done:  E(RHF) =  -492.845813289     A.U. after   13 cycles
 SCF Done:  E(RHF) =  -492.846228283     A.U. after   13 cycles
 SCF Done:  E(RHF) =  -492.846351283     A.U. after   13 cycles
 SCF Done:  E(RHF) =  -492.846612219     A.U. after   11 cycles
 SCF Done:  E(RHF) =  -492.847107336     A.U. after   13 cycles
 SCF Done:  E(RHF) =  -492.847216862     A.U. after   13 cycles
 SCF Done:  E(RHF) =  -492.847286590     A.U. after   11 cycles
 SCF Done:  E(RHF) =  -492.847309419     A.U. after   11 cycles
 SCF Done:  E(RHF) =  -492.847318364     A.U. after   11 cycles
 SCF Done:  E(RHF) =  -492.847337499     A.U. after   12 cycles
 SCF Done:  E(RHF) =  -492.847346812     A.U. after   11 cycles
 SCF Done:  E(RHF) =  -492.847350821     A.U. after   10 cycles
 SCF Done:  E(RHF) =  -492.847352486     A.U. after   10 cycles
 SCF Done:  E(RHF) =  -492.847354057     A.U. after   10 cycles
 SCF Done:  E(RHF) =  -492.847354449     A.U. after    9 cycles
 Optimization completed.
    -- Stationary point found.

                         Standard orientation:
 ---------------------------------------------------------------------
 Center     Atomic      Atomic             Coordinates (Angstroms)
 Number     Number       Type             X           Y           Z
 ---------------------------------------------------------------------
      1          1           0       -3.355336   -1.951139    0.111255
      2          6           0       -3.114932   -0.911660    0.280837
      3          1           0       -3.298125   -0.684249    1.326326
      4          1           0       -3.760459   -0.285080   -0.323987
      5          6           0       -1.644386   -0.698508   -0.013923
      6          8           0       -0.847092   -1.589625    0.098049
      7          7           0       -1.320546    0.558654   -0.399508
      8          1           0       -2.065360    1.217658   -0.418044
      9          6           0        0.006503    1.157197   -0.551354
     10          1           0        0.232651    1.202625   -1.613347
     11          6           0       -0.016417    2.576849    0.003424
     12          1           0       -0.188003    2.561798    1.070837
     13          1           0        0.930395    3.068931   -0.181712
     14          1           0       -0.796025    3.159381   -0.480269
     15          6           0        1.143200    0.354670    0.112475
     16          8           0        1.519248    0.625636    1.217066
     17          7           0        1.737641   -0.575229   -0.672600
     18          1           0        1.150073   -0.960649   -1.377676
     19          6           0        2.654174   -1.518106   -0.062397
     20          1           0        3.425140   -0.978816    0.466822
     21          1           0        2.145921   -2.176486    0.633825
     22          1           0        3.113365   -2.108699   -0.844572
 ---------------------------------------------------------------------

 The electronic state is 1-A.
 Alpha  occ. eigenvalues --  -20.52913 -20.52147 -15.59715 -15.56784 -11.35812
 Alpha  occ. eigenvalues --  -11.34031 -11.28636 -11.23925 -11.23857 -11.22634
 Alpha  occ. eigenvalues --   -1.40055  -1.38680  -1.24747  -1.21967  -1.05977
 Alpha  occ. eigenvalues --   -0.99646  -0.95005  -0.87330  -0.81215  -0.76516
 Alpha  occ. eigenvalues --   -0.70216  -0.69999  -0.67247  -0.63226  -0.62437
 Alpha  occ. eigenvalues --   -0.61377  -0.60089  -0.58479  -0.57682  -0.55162
 Alpha  occ. eigenvalues --   -0.53844  -0.53556  -0.53503  -0.51193  -0.50994
 Alpha  occ. eigenvalues --   -0.42674  -0.42417  -0.39405  -0.37691
 Alpha virt. eigenvalues --    0.19129   0.19743   0.21806   0.24638   0.26020
 Alpha virt. eigenvalues --    0.28091   0.28714   0.29858   0.30842   0.31803
 Alpha virt. eigenvalues --    0.32930   0.33150   0.34520   0.35424   0.38476

 Mulliken atomic charges:
              1
     1  H    0.215351
     2  C   -0.587041
     3  H    0.206855
     4  H    0.172717
     5  C    0.757307
     6  O   -0.616907
     7  N   -0.821712
     8  H    0.385712
     9  C   -0.002852
    10  H    0.190133
    11  C   -0.497485
    12  H    0.207141
    13  H    0.188290
    14  H    0.151977
    15  C    0.762690
    16  O   -0.602405
    17  N   -0.753667
    18  H    0.384648
    19  C   -0.289866
    20  H    0.196772
    21  H    0.188294
    22  H    0.164050
 Sum of Mulliken atomic charges =   0.00000

 Dipole moment (field-independent basis, Debye):
    X=             -3.2715    Y=              1.4883    Z=             -2.9064  Tot=              4.6222
 Quadrupole moment (field-independent basis, Debye-Ang):
   XX=            -52.7064   YY=            -60.1250   ZZ=            -62.8713
   XY=             -5.5548   XZ=             -3.8829   YZ=             -0.9322

 Normal termination of Gaussian 09 at Fri Feb 10 22:55:59 2017.
