 Gaussian 09, Revision A.02,
 Gaussian 09:  EM64L-G09RevA.02 11-Jun-2009

 -------------------------------------------
 # HF/6-31G* Opt=(ModRedundant) geom=nocrowd
 -------------------------------------------

 ------------------
 Phi Psi fixed scan
 ------------------
 Symbolic Z-matrix:
 Charge =  0 Multiplicity = 1

 SCF Done:  E(RHF) =  -492.505132839     A.U. after   20 cycles
 SCF Done:  E(RHF) =  -492.632412350     A.U. after   18 cycles
 SCF Done:  E(RHF) =  -492.757620479     A.U. after   16 cycles
 SCF Done:  E(RHF) =  -492.796358568     A.U. after   14 cycles
 SCF Done:  E(RHF) =  -492.811968617     A.U. after   14 cycles
 SCF Done:  E(RHF) =  -492.815236102     A.U. after   12 cycles
 SCF Done:  E(RHF) =  -492.816923277     A.U. after   13 cycles
 SCF Done:  E(RHF) =  -492.817379043     A.U. after   13 cycles
 SCF Done:  E(RHF) =  -492.817703556     A.U. after   13 cycles
 SCF Done:  E(RHF) =  -492.817911151     A.U. after   13 cycles
 SCF Done:  E(RHF) =  -492.821893923     A.U. after   12 cycles
 SCF Done:  E(RHF) =  -492.821932067     A.U. after   12 cycles
 SCF Done:  E(RHF) =  -492.821951586     A.U. after   12 cycles
 SCF Done:  E(RHF) =  -492.821957675     A.U. after   11 cycles
 SCF Done:  E(RHF) =  -492.821958653     A.U. after    9 cycles
 SCF Done:  E(RHF) =  -492.821959199     A.U. after    9 cycles
 SCF Done:  E(RHF) =  -492.821959301     A.U. after   10 cycles
 SCF Done:  E(RHF) =  -492.821959369     A.U. after   10 cycles
 SCF Done:  E(RHF) =  -492.821959520     A.U. after    9 cycles
 SCF Done:  E(RHF) =  -492.821959602     A.U. after    9 cycles
 Optimization completed.
    -- Stationary point found.

                         Standard orientation:
 ---------------------------------------------------------------------
 Center     Atomic      Atomic             Coordinates (Angstroms)
 Number     Number       Type             X           Y           Z
 ---------------------------------------------------------------------
      1          1           0       -3.659805   -1.155341    0.930253
      2          6           0       -3.006935   -0.296347    0.970626
      3          1           0       -2.468209   -0.299371    1.913468
      4          1           0       -3.602605    0.610885    0.926556
      5          6           0       -2.022989   -0.370035   -0.179130
      6          8           0       -1.959096   -1.313239   -0.897179
      7          7           0       -1.300183    0.810060   -0.383641
      8          1           0       -1.629478    1.506248    0.249591
      9          6           0        0.148376    0.976939   -0.535565
     10          1           0        0.362423    1.116884   -1.593931
     11          6           0        0.534643    2.270982    0.191744
     12          1           0        0.449534    2.152933    1.266959
     13          1           0        1.544815    2.585481   -0.031568
     14          1           0       -0.125501    3.070989   -0.124998
     15          6           0        1.013809   -0.222407   -0.112158
     16          8           0        0.575492   -1.292691    0.182073
     17          7           0        2.338590    0.065568    0.041723
     18          1           0        2.703239    0.860330   -0.430776
     19          6           0        3.277097   -1.008504    0.306617
     20          1           0        2.947762   -1.568384    1.168520
     21          1           0        3.368515   -1.692733   -0.530479
     22          1           0        4.245292   -0.573641    0.517867
 ---------------------------------------------------------------------

 The electronic state is 1-A.
 Alpha  occ. eigenvalues --  -20.52896 -20.51491 -15.58729 -15.57393 -11.34954
 Alpha  occ. eigenvalues --  -11.33751 -11.29236 -11.25767 -11.24679 -11.22429
 Alpha  occ. eigenvalues --   -1.40207  -1.37949  -1.23632  -1.22703  -1.05863
 Alpha  occ. eigenvalues --   -0.98764  -0.95758  -0.88993  -0.79607  -0.77692
 Alpha  occ. eigenvalues --   -0.70239  -0.67385  -0.66641  -0.64422  -0.62664
 Alpha  occ. eigenvalues --   -0.61264  -0.59558  -0.58108  -0.57351  -0.56377
 Alpha  occ. eigenvalues --   -0.55562  -0.55297  -0.54117  -0.51670  -0.48766
 Alpha  occ. eigenvalues --   -0.43681  -0.40706  -0.39460  -0.37474
 Alpha virt. eigenvalues --    0.18640   0.20180   0.21065   0.23157   0.26362
 Alpha virt. eigenvalues --    0.27497   0.28188   0.28756   0.30379   0.31652
 Alpha virt. eigenvalues --    0.31937   0.32264   0.33508   0.34634   0.37768

 Mulliken atomic charges:
              1
     1  H    0.215376
     2  C   -0.602773
     3  H    0.189920
     4  H    0.174018
     5  C    0.766345
     6  O   -0.543439
     7  N   -0.814177
     8  H    0.368113
     9  C   -0.006047
    10  H    0.202492
    11  C   -0.523203
    12  H    0.185551
    13  H    0.171359
    14  H    0.186841
    15  C    0.745438
    16  O   -0.577273
    17  N   -0.788287
    18  H    0.376315
    19  C   -0.278101
    20  H    0.206762
    21  H    0.177775
    22  H    0.166993
 Sum of Mulliken atomic charges =   0.00000

 Dipole moment (field-independent basis, Debye):
    X=              2.8505    Y=              5.3505    Z=              1.7055  Tot=              6.2978
 Quadrupole moment (field-independent basis, Debye-Ang):
   XX=            -50.1165   YY=            -63.6229   ZZ=            -61.7359
   XY=             -3.4815   XZ=             -7.9709   YZ=             -2.4508

 Normal termination of Gaussian 09 at Fri Feb 10 23:15:57 2017.
