 Gaussian 09, Revision A.02,
 Gaussian 09:  EM64L-G09RevA.02 11-Jun-2009

 -------------------------------------------
 # HF/6-31G* Opt=(ModRedundant) geom=nocrowd
 -------------------------------------------

 ------------------
 Phi Psi fixed scan
 ------------------
 Symbolic Z-matrix:
 Charge =  0 Multiplicity = 1

 SCF Done:  E(RHF) =  -492.559679294     A.U. after   18 cycles
 SCF Done:  E(RHF) =  -492.652933514     A.U. after   15 cycles
 SCF Done:  E(RHF) =  -492.760841324     A.U. after   14 cycles
 SCF Done:  E(RHF) =  -492.814838102     A.U. after   14 cycles
 SCF Done:  E(RHF) =  -492.834837080     A.U. after   14 cycles
 SCF Done:  E(RHF) =  -492.839496794     A.U. after   13 cycles
 SCF Done:  E(RHF) =  -492.840838433     A.U. after   12 cycles
 SCF Done:  E(RHF) =  -492.841260903     A.U. after   12 cycles
 SCF Done:  E(RHF) =  -492.841430185     A.U. after   12 cycles
 SCF Done:  E(RHF) =  -492.841535929     A.U. after   12 cycles
 SCF Done:  E(RHF) =  -492.842945841     A.U. after   11 cycles
 SCF Done:  E(RHF) =  -492.842806049     A.U. after   14 cycles
 SCF Done:  E(RHF) =  -492.842959111     A.U. after   13 cycles
 SCF Done:  E(RHF) =  -492.842961783     A.U. after   10 cycles
 SCF Done:  E(RHF) =  -492.842965592     A.U. after   10 cycles
 SCF Done:  E(RHF) =  -492.842966905     A.U. after   10 cycles
 SCF Done:  E(RHF) =  -492.842967159     A.U. after    9 cycles
 SCF Done:  E(RHF) =  -492.842967220     A.U. after    8 cycles
 SCF Done:  E(RHF) =  -492.842967284     A.U. after    8 cycles
 SCF Done:  E(RHF) =  -492.842967291     A.U. after    6 cycles
 Optimization completed.
    -- Stationary point found.

                         Standard orientation:
 ---------------------------------------------------------------------
 Center     Atomic      Atomic             Coordinates (Angstroms)
 Number     Number       Type             X           Y           Z
 ---------------------------------------------------------------------
      1          1           0       -3.766689   -1.451491    0.033505
      2          6           0       -3.315437   -0.505121    0.293070
      3          1           0       -3.446195   -0.344900    1.358647
      4          1           0       -3.818686    0.294823   -0.237314
      5          6           0       -1.830915   -0.579406   -0.009693
      6          8           0       -1.263814   -1.641855    0.022955
      7          7           0       -1.266715    0.614411   -0.293229
      8          1           0       -1.915247    1.367778   -0.285039
      9          6           0        0.108735    1.119831   -0.475190
     10          1           0        0.267008    1.223488   -1.546630
     11          6           0        0.159323    2.513619    0.148523
     12          1           0        0.036381    2.457311    1.223568
     13          1           0        1.106704    2.984337   -0.060071
     14          1           0       -0.631785    3.135810   -0.262064
     15          6           0        1.338255    0.298585   -0.018645
     16          8           0        2.272760    0.902575    0.441864
     17          7           0        1.391376   -1.008814   -0.299542
     18          1           0        0.527150   -1.494593   -0.409405
     19          6           0        2.559620   -1.774762    0.079924
     20          1           0        3.447920   -1.346707   -0.362960
     21          1           0        2.696372   -1.801798    1.155770
     22          1           0        2.435388   -2.785481   -0.285102
 ---------------------------------------------------------------------

 The electronic state is 1-A.
 Alpha  occ. eigenvalues --  -20.53982 -20.51595 -15.60523 -15.56073 -11.36938
 Alpha  occ. eigenvalues --  -11.34138 -11.29339 -11.24422 -11.24162 -11.22541
 Alpha  occ. eigenvalues --   -1.40772  -1.38522  -1.25462  -1.21677  -1.06355
 Alpha  occ. eigenvalues --   -0.99964  -0.95161  -0.87775  -0.81909  -0.76957
 Alpha  occ. eigenvalues --   -0.70851  -0.70324  -0.67550  -0.63301  -0.62872
 Alpha  occ. eigenvalues --   -0.60987  -0.60387  -0.59401  -0.58079  -0.55605
 Alpha  occ. eigenvalues --   -0.54215  -0.53631  -0.52788  -0.52309  -0.50670
 Alpha  occ. eigenvalues --   -0.43390  -0.42534  -0.39580  -0.37352
 Alpha virt. eigenvalues --    0.18690   0.19121   0.21608   0.25447   0.27011
 Alpha virt. eigenvalues --    0.28421   0.28882   0.29749   0.31122   0.31835
 Alpha virt. eigenvalues --    0.32660   0.33110   0.34651   0.36047   0.38966

 Mulliken atomic charges:
              1
     1  H    0.218319
     2  C   -0.587157
     3  H    0.206471
     4  H    0.174618
     5  C    0.775801
     6  O   -0.636718
     7  N   -0.840100
     8  H    0.389644
     9  C   -0.004034
    10  H    0.209885
    11  C   -0.491265
    12  H    0.183502
    13  H    0.218677
    14  H    0.146464
    15  C    0.751558
    16  O   -0.622391
    17  N   -0.814353
    18  H    0.462538
    19  C   -0.273740
    20  H    0.189128
    21  H    0.174180
    22  H    0.168972
 Sum of Mulliken atomic charges =   0.00000

 Dipole moment (field-independent basis, Debye):
    X=             -4.1143    Y=              1.3127    Z=             -0.9498  Tot=              4.4218
 Quadrupole moment (field-independent basis, Debye-Ang):
   XX=            -58.7748   YY=            -61.0822   ZZ=            -60.6454
   XY=             -9.6063   XZ=             -2.6947   YZ=             -1.7954

 Normal termination of Gaussian 09 at Fri Feb 10 22:47:03 2017.
