 Gaussian 09, Revision A.02,
 Gaussian 09:  EM64L-G09RevA.02 11-Jun-2009

 -------------------------------------------
 # HF/6-31G* Opt=(ModRedundant) geom=nocrowd
 -------------------------------------------

 ------------------
 Phi Psi fixed scan
 ------------------
 Symbolic Z-matrix:
 Charge =  0 Multiplicity = 1

 SCF Done:  E(RHF) =  -492.566006471     A.U. after   20 cycles
 SCF Done:  E(RHF) =  -492.669066185     A.U. after   17 cycles
 SCF Done:  E(RHF) =  -492.769345706     A.U. after   15 cycles
 SCF Done:  E(RHF) =  -492.786583842     A.U. after   14 cycles
 SCF Done:  E(RHF) =  -492.811323243     A.U. after   13 cycles
 SCF Done:  E(RHF) =  -492.815514622     A.U. after   13 cycles
 SCF Done:  E(RHF) =  -492.817811356     A.U. after   13 cycles
 SCF Done:  E(RHF) =  -492.818694463     A.U. after   13 cycles
 SCF Done:  E(RHF) =  -492.819199539     A.U. after   13 cycles
 SCF Done:  E(RHF) =  -492.819696747     A.U. after   16 cycles
 SCF Done:  E(RHF) =  -492.823125903     A.U. after   12 cycles
 SCF Done:  E(RHF) =  -492.823309285     A.U. after   13 cycles
 SCF Done:  E(RHF) =  -492.823412380     A.U. after   12 cycles
 SCF Done:  E(RHF) =  -492.823466557     A.U. after   11 cycles
 SCF Done:  E(RHF) =  -492.823482439     A.U. after   11 cycles
 SCF Done:  E(RHF) =  -492.823495734     A.U. after   11 cycles
 SCF Done:  E(RHF) =  -492.823499039     A.U. after   11 cycles
 SCF Done:  E(RHF) =  -492.823499785     A.U. after   10 cycles
 SCF Done:  E(RHF) =  -492.823500063     A.U. after   10 cycles
 SCF Done:  E(RHF) =  -492.823500218     A.U. after    8 cycles
 Optimization completed.
    -- Stationary point found.

                         Standard orientation:
 ---------------------------------------------------------------------
 Center     Atomic      Atomic             Coordinates (Angstroms)
 Number     Number       Type             X           Y           Z
 ---------------------------------------------------------------------
      1          1           0       -3.953912   -1.221358    0.068786
      2          6           0       -3.414278   -0.367370   -0.312242
      3          1           0       -3.931057    0.542783   -0.022605
      4          1           0       -3.394608   -0.411181   -1.397178
      5          6           0       -1.998907   -0.397284    0.233022
      6          8           0       -1.589566   -1.313753    0.869572
      7          7           0       -1.296804    0.777531    0.008917
      8          1           0       -1.864659    1.447762   -0.463337
      9          6           0        0.097375    1.005348   -0.378034
     10          1           0        0.121739    1.167611   -1.453801
     11          6           0        0.563007    2.295370    0.303132
     12          1           0        0.649619    2.159059    1.375842
     13          1           0        1.507195    2.646446   -0.098026
     14          1           0       -0.166630    3.079513    0.134501
     15          6           0        1.038641   -0.199576   -0.230819
     16          8           0        0.707411   -1.289346   -0.590109
     17          7           0        2.338947    0.096090    0.038195
     18          1           0        2.539006    0.908868    0.571763
     19          6           0        3.308698   -0.979767    0.110970
     20          1           0        3.278442   -1.554578   -0.802387
     21          1           0        4.293888   -0.546010    0.223069
     22          1           0        3.116004   -1.649791    0.941709
 ---------------------------------------------------------------------

 The electronic state is 1-A.
 Alpha  occ. eigenvalues --  -20.51938 -20.51686 -15.58330 -15.57868 -11.34540
 Alpha  occ. eigenvalues --  -11.34070 -11.29194 -11.25284 -11.23697 -11.22650
 Alpha  occ. eigenvalues --   -1.39549  -1.38072  -1.23438  -1.22690  -1.05823
 Alpha  occ. eigenvalues --   -0.98830  -0.95145  -0.88899  -0.79910  -0.77428
 Alpha  occ. eigenvalues --   -0.70157  -0.68310  -0.65527  -0.64256  -0.61811
 Alpha  occ. eigenvalues --   -0.61157  -0.60024  -0.57611  -0.57076  -0.56542
 Alpha  occ. eigenvalues --   -0.55251  -0.54326  -0.54121  -0.51929  -0.49149
 Alpha  occ. eigenvalues --   -0.42019  -0.40105  -0.39177  -0.38142
 Alpha virt. eigenvalues --    0.17888   0.20203   0.22461   0.23409   0.26129
 Alpha virt. eigenvalues --    0.28023   0.28593   0.29767   0.30292   0.31937
 Alpha virt. eigenvalues --    0.32295   0.32948   0.34355   0.35087   0.37127

 Mulliken atomic charges:
              1
     1  H    0.216093
     2  C   -0.597610
     3  H    0.176072
     4  H    0.188380
     5  C    0.758880
     6  O   -0.547910
     7  N   -0.807652
     8  H    0.365359
     9  C   -0.016665
    10  H    0.203815
    11  C   -0.507760
    12  H    0.185922
    13  H    0.169066
    14  H    0.175653
    15  C    0.756529
    16  O   -0.579222
    17  N   -0.799630
    18  H    0.387271
    19  C   -0.277837
    20  H    0.203790
    21  H    0.164466
    22  H    0.182991
 Sum of Mulliken atomic charges =   0.00000

 Dipole moment (field-independent basis, Debye):
    X=              0.9595    Y=              5.4226    Z=             -1.0617  Tot=              5.6082
 Quadrupole moment (field-independent basis, Debye-Ang):
   XX=            -46.5618   YY=            -63.8901   ZZ=            -61.7040
   XY=             -2.8228   XZ=              6.7151   YZ=              0.1991

 Normal termination of Gaussian 09 at Fri Feb 10 23:19:14 2017.
