 Gaussian 09, Revision A.02,
 Gaussian 09:  EM64L-G09RevA.02 11-Jun-2009

 -------------------------------------------
 # HF/6-31G* Opt=(ModRedundant) geom=nocrowd
 -------------------------------------------

 ------------------
 Phi Psi fixed scan
 ------------------
 Symbolic Z-matrix:
 Charge =  0 Multiplicity = 1

 SCF Done:  E(RHF) =  -492.820895958     A.U. after   15 cycles
 SCF Done:  E(RHF) =  -492.838718750     A.U. after   15 cycles
 SCF Done:  E(RHF) =  -492.842836456     A.U. after   13 cycles
 SCF Done:  E(RHF) =  -492.843568994     A.U. after   13 cycles
 SCF Done:  E(RHF) =  -492.844055541     A.U. after   13 cycles
 SCF Done:  E(RHF) =  -492.844677300     A.U. after   12 cycles
 SCF Done:  E(RHF) =  -492.845195697     A.U. after   13 cycles
 SCF Done:  E(RHF) =  -492.845398790     A.U. after   12 cycles
 SCF Done:  E(RHF) =  -492.845595793     A.U. after   12 cycles
 SCF Done:  E(RHF) =  -492.845891145     A.U. after   13 cycles
 SCF Done:  E(RHF) =  -492.846244920     A.U. after   10 cycles
 SCF Done:  E(RHF) =  -492.846253349     A.U. after   11 cycles
 SCF Done:  E(RHF) =  -492.846258821     A.U. after   11 cycles
 SCF Done:  E(RHF) =  -492.846266022     A.U. after   11 cycles
 SCF Done:  E(RHF) =  -492.846280715     A.U. after   11 cycles
 SCF Done:  E(RHF) =  -492.846290310     A.U. after   10 cycles
 SCF Done:  E(RHF) =  -492.846293389     A.U. after   10 cycles
 SCF Done:  E(RHF) =  -492.846294374     A.U. after   10 cycles
 SCF Done:  E(RHF) =  -492.846294598     A.U. after   10 cycles
 SCF Done:  E(RHF) =  -492.846294691     A.U. after    8 cycles
 Optimization completed.
    -- Stationary point found.

                         Standard orientation:
 ---------------------------------------------------------------------
 Center     Atomic      Atomic             Coordinates (Angstroms)
 Number     Number       Type             X           Y           Z
 ---------------------------------------------------------------------
      1          1           0        3.413598   -1.648285   -0.531525
      2          6           0        3.224547   -0.646256   -0.174602
      3          1           0        3.579997    0.073659   -0.902981
      4          1           0        3.779052   -0.502331    0.747341
      5          6           0        1.744336   -0.506348    0.118844
      6          8           0        1.071868   -1.455525    0.416294
      7          7           0        1.270759    0.760709    0.049709
      8          1           0        1.923660    1.466651   -0.205322
      9          6           0       -0.076742    1.255705    0.321531
     10          1           0       -0.085476    1.699350    1.308464
     11          6           0       -0.439269    2.332156   -0.704844
     12          1           0       -0.452446    1.928629   -1.710041
     13          1           0       -1.417493    2.742011   -0.482939
     14          1           0        0.277939    3.147503   -0.668630
     15          6           0       -1.197982    0.209398    0.397469
     16          8           0       -1.923723    0.210856    1.349786
     17          7           0       -1.420649   -0.546448   -0.707413
     18          1           0       -0.615011   -0.736371   -1.258680
     19          6           0       -2.369713   -1.639948   -0.623127
     20          1           0       -3.318629   -1.265753   -0.270305
     21          1           0       -2.503478   -2.057450   -1.612798
     22          1           0       -2.028719   -2.418327    0.051083
 ---------------------------------------------------------------------

 The electronic state is 1-A.
 Alpha  occ. eigenvalues --  -20.53176 -20.52013 -15.60018 -15.56830 -11.36095
 Alpha  occ. eigenvalues --  -11.34016 -11.28458 -11.24201 -11.24103 -11.23592
 Alpha  occ. eigenvalues --   -1.40280  -1.38682  -1.25075  -1.21851  -1.06376
 Alpha  occ. eigenvalues --   -1.00087  -0.94495  -0.88431  -0.81556  -0.76916
 Alpha  occ. eigenvalues --   -0.70785  -0.69520  -0.67035  -0.63061  -0.62520
 Alpha  occ. eigenvalues --   -0.62086  -0.59787  -0.58474  -0.57812  -0.56504
 Alpha  occ. eigenvalues --   -0.55170  -0.53805  -0.53757  -0.51539  -0.50788
 Alpha  occ. eigenvalues --   -0.42793  -0.41362  -0.40037  -0.37962
 Alpha virt. eigenvalues --    0.19053   0.20124   0.20628   0.24964   0.25743
 Alpha virt. eigenvalues --    0.27988   0.28802   0.29534   0.29831   0.31503
 Alpha virt. eigenvalues --    0.32678   0.33818   0.34124   0.34984   0.36763

 Mulliken atomic charges:
              1
     1  H    0.216000
     2  C   -0.584196
     3  H    0.171152
     4  H    0.207190
     5  C    0.745125
     6  O   -0.608716
     7  N   -0.830998
     8  H    0.383883
     9  C   -0.009752
    10  H    0.221764
    11  C   -0.500278
    12  H    0.180657
    13  H    0.198798
    14  H    0.162138
    15  C    0.763056
    16  O   -0.603913
    17  N   -0.753540
    18  H    0.381918
    19  C   -0.287956
    20  H    0.198271
    21  H    0.162904
    22  H    0.186493
 Sum of Mulliken atomic charges =   0.00000

 Dipole moment (field-independent basis, Debye):
    X=              3.9025    Y=              2.4522    Z=             -3.6111  Tot=              5.8551
 Quadrupole moment (field-independent basis, Debye-Ang):
   XX=            -56.0169   YY=            -58.5200   ZZ=            -64.0157
   XY=              5.1958   XZ=              4.0899   YZ=              2.3666

 Normal termination of Gaussian 09 at Fri Feb 10 23:36:26 2017.
