 Gaussian 09, Revision A.02,
 Gaussian 09:  EM64L-G09RevA.02 11-Jun-2009

 -------------------------------------------
 # HF/6-31G* Opt=(ModRedundant) geom=nocrowd
 -------------------------------------------

 ------------------
 Phi Psi fixed scan
 ------------------
 Symbolic Z-matrix:
 Charge =  0 Multiplicity = 1

 SCF Done:  E(RHF) =  -492.719397145     A.U. after   17 cycles
 SCF Done:  E(RHF) =  -492.808834162     A.U. after   15 cycles
 SCF Done:  E(RHF) =  -492.834699290     A.U. after   14 cycles
 SCF Done:  E(RHF) =  -492.841759617     A.U. after   14 cycles
 SCF Done:  E(RHF) =  -492.843009040     A.U. after   13 cycles
 SCF Done:  E(RHF) =  -492.843283238     A.U. after   13 cycles
 SCF Done:  E(RHF) =  -492.843870433     A.U. after   12 cycles
 SCF Done:  E(RHF) =  -492.844029626     A.U. after   11 cycles
 SCF Done:  E(RHF) =  -492.844163945     A.U. after   12 cycles
 SCF Done:  E(RHF) =  -492.844262307     A.U. after   11 cycles
 SCF Done:  E(RHF) =  -492.845050673     A.U. after   11 cycles
 SCF Done:  E(RHF) =  -492.845062418     A.U. after   10 cycles
 SCF Done:  E(RHF) =  -492.845063551     A.U. after   10 cycles
 SCF Done:  E(RHF) =  -492.845048645     A.U. after   10 cycles
 SCF Done:  E(RHF) =  -492.845073655     A.U. after   11 cycles
 SCF Done:  E(RHF) =  -492.845071527     A.U. after   10 cycles
 SCF Done:  E(RHF) =  -492.845077441     A.U. after   11 cycles
 SCF Done:  E(RHF) =  -492.845077865     A.U. after    9 cycles
 SCF Done:  E(RHF) =  -492.845077979     A.U. after    9 cycles
 SCF Done:  E(RHF) =  -492.845078013     A.U. after    8 cycles
 Optimization completed.
    -- Stationary point found.

                         Standard orientation:
 ---------------------------------------------------------------------
 Center     Atomic      Atomic             Coordinates (Angstroms)
 Number     Number       Type             X           Y           Z
 ---------------------------------------------------------------------
      1          1           0       -3.629441   -1.298294    0.728565
      2          6           0       -3.361223   -0.458354    0.102755
      3          1           0       -3.725325    0.457780    0.551611
      4          1           0       -3.845741   -0.591676   -0.858501
      5          6           0       -1.860911   -0.481220   -0.113419
      6          8           0       -1.296330   -1.527902   -0.310426
      7          7           0       -1.267610    0.729065   -0.096321
      8          1           0       -1.881064    1.488360    0.093798
      9          6           0        0.110261    1.188545   -0.313198
     10          1           0        0.153235    1.628968   -1.300718
     11          6           0        0.411216    2.284153    0.718531
     12          1           0        0.407455    1.873115    1.721916
     13          1           0        1.379520    2.720931    0.517339
     14          1           0       -0.333760    3.073348    0.666648
     15          6           0        1.315046    0.231953   -0.307715
     16          8           0        2.293679    0.631367   -0.881880
     17          7           0        1.303052   -0.884578    0.440865
     18          1           0        0.420207   -1.336250    0.535506
     19          6           0        2.471488   -1.742472    0.435492
     20          1           0        3.343873   -1.177693    0.730200
     21          1           0        2.310832   -2.540387    1.148353
     22          1           0        2.658064   -2.172967   -0.542752
 ---------------------------------------------------------------------

 The electronic state is 1-A.
 Alpha  occ. eigenvalues --  -20.53570 -20.51659 -15.60531 -15.56426 -11.36782
 Alpha  occ. eigenvalues --  -11.34201 -11.28960 -11.24437 -11.24218 -11.23351
 Alpha  occ. eigenvalues --   -1.40571  -1.38625  -1.25461  -1.21821  -1.06529
 Alpha  occ. eigenvalues --   -1.00199  -0.94757  -0.88357  -0.82063  -0.77000
 Alpha  occ. eigenvalues --   -0.71066  -0.70271  -0.66799  -0.63182  -0.62554
 Alpha  occ. eigenvalues --   -0.62339  -0.59965  -0.58777  -0.58033  -0.56596
 Alpha  occ. eigenvalues --   -0.55026  -0.53901  -0.53323  -0.52052  -0.50054
 Alpha  occ. eigenvalues --   -0.43384  -0.41346  -0.40410  -0.37804
 Alpha virt. eigenvalues --    0.18505   0.19927   0.20287   0.25485   0.26810
 Alpha virt. eigenvalues --    0.27620   0.29043   0.30165   0.31574   0.31911
 Alpha virt. eigenvalues --    0.32700   0.34110   0.34738   0.35698   0.37260

 Mulliken atomic charges:
              1
     1  H    0.214277
     2  C   -0.579769
     3  H    0.169346
     4  H    0.211137
     5  C    0.767637
     6  O   -0.638062
     7  N   -0.838302
     8  H    0.386859
     9  C    0.016007
    10  H    0.219159
    11  C   -0.508918
    12  H    0.185083
    13  H    0.215658
    14  H    0.159018
    15  C    0.740457
    16  O   -0.621706
    17  N   -0.798169
    18  H    0.444772
    19  C   -0.281046
    20  H    0.191986
    21  H    0.167687
    22  H    0.176887
 Sum of Mulliken atomic charges =   0.00000

 Dipole moment (field-independent basis, Debye):
    X=             -4.2097    Y=              1.7961    Z=              2.0838  Tot=              5.0289
 Quadrupole moment (field-independent basis, Debye-Ang):
   XX=            -58.8686   YY=            -59.0934   ZZ=            -62.3388
   XY=             -8.4718   XZ=              3.6500   YZ=             -0.6129

 Normal termination of Gaussian 09 at Fri Feb 10 23:45:10 2017.
