 Gaussian 09, Revision A.02,
 Gaussian 09:  EM64L-G09RevA.02 11-Jun-2009

 -------------------------------------------
 # HF/6-31G* Opt=(ModRedundant) geom=nocrowd
 -------------------------------------------

 ------------------
 Phi Psi fixed scan
 ------------------
 Symbolic Z-matrix:
 Charge =  0 Multiplicity = 1

 SCF Done:  E(RHF) =  -492.576979967     A.U. after   19 cycles
 SCF Done:  E(RHF) =  -492.673824981     A.U. after   16 cycles
 SCF Done:  E(RHF) =  -492.767822054     A.U. after   15 cycles
 SCF Done:  E(RHF) =  -492.803640506     A.U. after   14 cycles
 SCF Done:  E(RHF) =  -492.817833803     A.U. after   14 cycles
 SCF Done:  E(RHF) =  -492.820770383     A.U. after   13 cycles
 SCF Done:  E(RHF) =  -492.823220450     A.U. after   13 cycles
 SCF Done:  E(RHF) =  -492.824667486     A.U. after   13 cycles
 SCF Done:  E(RHF) =  -492.825982587     A.U. after   14 cycles
 SCF Done:  E(RHF) =  -492.826873003     A.U. after   14 cycles
 SCF Done:  E(RHF) =  -492.828522784     A.U. after   13 cycles
 SCF Done:  E(RHF) =  -492.828613544     A.U. after   11 cycles
 SCF Done:  E(RHF) =  -492.828680558     A.U. after   12 cycles
 SCF Done:  E(RHF) =  -492.828719974     A.U. after   11 cycles
 SCF Done:  E(RHF) =  -492.828782617     A.U. after   12 cycles
 SCF Done:  E(RHF) =  -492.828802206     A.U. after   11 cycles
 SCF Done:  E(RHF) =  -492.828804973     A.U. after   10 cycles
 SCF Done:  E(RHF) =  -492.828806188     A.U. after   10 cycles
 SCF Done:  E(RHF) =  -492.828806631     A.U. after   10 cycles
 SCF Done:  E(RHF) =  -492.828806802     A.U. after    9 cycles
 Optimization completed.
    -- Stationary point found.

                         Standard orientation:
 ---------------------------------------------------------------------
 Center     Atomic      Atomic             Coordinates (Angstroms)
 Number     Number       Type             X           Y           Z
 ---------------------------------------------------------------------
      1          1           0       -3.668118   -1.254986    0.720564
      2          6           0       -3.057618   -0.369777    0.818216
      3          1           0       -2.599029   -0.358696    1.802266
      4          1           0       -3.683212    0.513074    0.725969
      5          6           0       -1.974282   -0.398165   -0.237738
      6          8           0       -1.773611   -1.350132   -0.921540
      7          7           0       -1.311618    0.815819   -0.415083
      8          1           0       -1.695184    1.506413    0.193348
      9          6           0        0.134655    1.004989   -0.503988
     10          1           0        0.395416    1.183420   -1.545000
     11          6           0        0.498019    2.262233    0.296812
     12          1           0        0.331613    2.099658    1.356901
     13          1           0        1.532991    2.541920    0.158533
     14          1           0       -0.118575    3.093184   -0.029471
     15          6           0        0.986371   -0.184533   -0.036888
     16          8           0        0.545753   -1.126737    0.550642
     17          7           0        2.328952    0.032335   -0.135901
     18          1           0        2.639855    0.680993   -0.823978
     19          6           0        3.257383   -1.025031    0.216412
     20          1           0        3.031334   -1.382418    1.209380
     21          1           0        3.206914   -1.864238   -0.469379
     22          1           0        4.260360   -0.618741    0.207983
 ---------------------------------------------------------------------

 The electronic state is 1-A.
 Alpha  occ. eigenvalues --  -20.52963 -20.51403 -15.58694 -15.57420 -11.34864
 Alpha  occ. eigenvalues --  -11.33745 -11.29005 -11.25734 -11.24367 -11.22335
 Alpha  occ. eigenvalues --   -1.40186  -1.37893  -1.23623  -1.22771  -1.05768
 Alpha  occ. eigenvalues --   -0.98752  -0.95793  -0.88539  -0.79669  -0.77565
 Alpha  occ. eigenvalues --   -0.70298  -0.67643  -0.66589  -0.64144  -0.62866
 Alpha  occ. eigenvalues --   -0.61219  -0.59429  -0.57888  -0.57392  -0.56170
 Alpha  occ. eigenvalues --   -0.55413  -0.55099  -0.54018  -0.51893  -0.48589
 Alpha  occ. eigenvalues --   -0.43461  -0.40715  -0.39492  -0.37767
 Alpha virt. eigenvalues --    0.18878   0.20597   0.20704   0.22980   0.26658
 Alpha virt. eigenvalues --    0.27382   0.28568   0.29119   0.31161   0.31646
 Alpha virt. eigenvalues --    0.31932   0.31955   0.33273   0.34870   0.37510

 Mulliken atomic charges:
              1
     1  H    0.214385
     2  C   -0.602561
     3  H    0.196032
     4  H    0.173071
     5  C    0.769855
     6  O   -0.559473
     7  N   -0.806408
     8  H    0.368863
     9  C   -0.004396
    10  H    0.191591
    11  C   -0.518955
    12  H    0.184744
    13  H    0.184050
    14  H    0.182647
    15  C    0.747308
    16  O   -0.585031
    17  N   -0.783923
    18  H    0.373916
    19  C   -0.279155
    20  H    0.206509
    21  H    0.179254
    22  H    0.167675
 Sum of Mulliken atomic charges =   0.00000

 Dipole moment (field-independent basis, Debye):
    X=              2.4322    Y=              4.9850    Z=              0.9347  Tot=              5.6249
 Quadrupole moment (field-independent basis, Debye-Ang):
   XX=            -49.0088   YY=            -63.3025   ZZ=            -62.0453
   XY=             -3.8765   XZ=             -8.2916   YZ=             -1.6643

 Normal termination of Gaussian 09 at Fri Feb 10 23:12:31 2017.
