 Gaussian 09, Revision A.02,
 Gaussian 09:  EM64L-G09RevA.02 11-Jun-2009

 -------------------------------------------
 # HF/6-31G* Opt=(ModRedundant) geom=nocrowd
 -------------------------------------------

 ------------------
 Phi Psi fixed scan
 ------------------
 Symbolic Z-matrix:
 Charge =  0 Multiplicity = 1

 SCF Done:  E(RHF) =  -492.521865231     A.U. after   19 cycles
 SCF Done:  E(RHF) =  -492.622580669     A.U. after   17 cycles
 SCF Done:  E(RHF) =  -492.744863033     A.U. after   14 cycles
 SCF Done:  E(RHF) =  -492.813601366     A.U. after   14 cycles
 SCF Done:  E(RHF) =  -492.836325890     A.U. after   13 cycles
 SCF Done:  E(RHF) =  -492.841568973     A.U. after   13 cycles
 SCF Done:  E(RHF) =  -492.842578108     A.U. after   13 cycles
 SCF Done:  E(RHF) =  -492.842942178     A.U. after   12 cycles
 SCF Done:  E(RHF) =  -492.843087746     A.U. after   12 cycles
 SCF Done:  E(RHF) =  -492.843184065     A.U. after   11 cycles
 SCF Done:  E(RHF) =  -492.844531649     A.U. after   10 cycles
 SCF Done:  E(RHF) =  -492.844533154     A.U. after    9 cycles
 SCF Done:  E(RHF) =  -492.844534264     A.U. after    9 cycles
 SCF Done:  E(RHF) =  -492.844534684     A.U. after    8 cycles
 SCF Done:  E(RHF) =  -492.844535302     A.U. after    9 cycles
 SCF Done:  E(RHF) =  -492.844536206     A.U. after   10 cycles
 SCF Done:  E(RHF) =  -492.844537553     A.U. after   10 cycles
 SCF Done:  E(RHF) =  -492.844538553     A.U. after   10 cycles
 SCF Done:  E(RHF) =  -492.844539110     A.U. after   10 cycles
 SCF Done:  E(RHF) =  -492.844539140     A.U. after    8 cycles
 Optimization completed.
    -- Stationary point found.

                         Standard orientation:
 ---------------------------------------------------------------------
 Center     Atomic      Atomic             Coordinates (Angstroms)
 Number     Number       Type             X           Y           Z
 ---------------------------------------------------------------------
      1          1           0       -3.860789   -1.121588   -0.519297
      2          6           0       -3.370931   -0.416987    0.138633
      3          1           0       -3.554987   -0.733611    1.159523
      4          1           0       -3.799450    0.567418   -0.004004
      5          6           0       -1.878163   -0.484233   -0.119590
      6          8           0       -1.348255   -1.558439   -0.262845
      7          7           0       -1.257316    0.711130   -0.152812
      8          1           0       -1.865705    1.483442   -0.004508
      9          6           0        0.129509    1.170029   -0.341878
     10          1           0        0.201478    1.557230   -1.350833
     11          6           0        0.363158    2.331525    0.633965
     12          1           0        0.321518    1.979627    1.659333
     13          1           0        1.329899    2.775538    0.449938
     14          1           0       -0.395942    3.098033    0.504154
     15          6           0        1.357309    0.244691   -0.242410
     16          8           0        2.392401    0.737400   -0.614905
     17          7           0        1.281620   -0.970911    0.306679
     18          1           0        0.391560   -1.420881    0.309832
     19          6           0        2.466423   -1.801941    0.362082
     20          1           0        3.260206   -1.285080    0.882388
     21          1           0        2.221143   -2.707131    0.901271
     22          1           0        2.823944   -2.064720   -0.627685
 ---------------------------------------------------------------------

 The electronic state is 1-A.
 Alpha  occ. eigenvalues --  -20.53770 -20.51204 -15.60648 -15.56406 -11.36972
 Alpha  occ. eigenvalues --  -11.34149 -11.29147 -11.24491 -11.24289 -11.23178
 Alpha  occ. eigenvalues --   -1.40690  -1.38347  -1.25547  -1.21855  -1.06505
 Alpha  occ. eigenvalues --   -1.00171  -0.94976  -0.88296  -0.82114  -0.77306
 Alpha  occ. eigenvalues --   -0.71065  -0.70433  -0.66913  -0.63187  -0.62605
 Alpha  occ. eigenvalues --   -0.62043  -0.60049  -0.58973  -0.58125  -0.56334
 Alpha  occ. eigenvalues --   -0.54861  -0.53842  -0.53488  -0.52230  -0.49875
 Alpha  occ. eigenvalues --   -0.43380  -0.41261  -0.40435  -0.37587
 Alpha virt. eigenvalues --    0.18684   0.19550   0.20596   0.25538   0.27000
 Alpha virt. eigenvalues --    0.27975   0.28950   0.30209   0.31618   0.31994
 Alpha virt. eigenvalues --    0.32768   0.33819   0.35441   0.35622   0.37600

 Mulliken atomic charges:
              1
     1  H    0.217031
     2  C   -0.580783
     3  H    0.208656
     4  H    0.169928
     5  C    0.776377
     6  O   -0.643367
     7  N   -0.843287
     8  H    0.388039
     9  C    0.017235
    10  H    0.218468
    11  C   -0.509430
    12  H    0.180947
    13  H    0.224496
    14  H    0.156103
    15  C    0.745884
    16  O   -0.632619
    17  N   -0.820493
    18  H    0.466741
    19  C   -0.276306
    20  H    0.190517
    21  H    0.168816
    22  H    0.177047
 Sum of Mulliken atomic charges =   0.00000

 Dipole moment (field-independent basis, Debye):
    X=             -4.3020    Y=              1.5924    Z=              1.5045  Tot=              4.8277
 Quadrupole moment (field-independent basis, Debye-Ang):
   XX=            -60.2988   YY=            -59.5465   ZZ=            -61.1753
   XY=             -9.5509   XZ=              2.4366   YZ=             -0.5570

 Normal termination of Gaussian 09 at Fri Feb 10 23:49:17 2017.
