 Gaussian 09, Revision A.02,
 Gaussian 09:  EM64L-G09RevA.02 11-Jun-2009

 ----------------------------------------------------------------------
 # b3lyp/6-31G* Opt=(ModRedundant, maxcycles=1000, calcfc) geom=nocrowd
 ----------------------------------------------------------------------

 ------------------
 Phi Psi fixed scan
 ------------------
 Symbolic Z-matrix:
 Charge =  0 Multiplicity = 1

 SCF Done:  E(RB3LYP) =  -990.469344130     A.U. after   15 cycles

  Exact polarizability:   0.000   0.000   0.000   0.000   0.000   0.000
 Approx polarizability: 219.606  10.098 225.887   9.827  29.443 222.569

 SCF Done:  E(RB3LYP) =  -990.480776435     A.U. after   13 cycles
 SCF Done:  E(RB3LYP) =  -990.492877063     A.U. after   13 cycles
 SCF Done:  E(RB3LYP) =  -990.495209991     A.U. after   14 cycles
 SCF Done:  E(RB3LYP) =  -990.497705208     A.U. after   12 cycles
 SCF Done:  E(RB3LYP) =  -990.499284745     A.U. after   14 cycles
 SCF Done:  E(RB3LYP) =  -990.489371802     A.U. after   14 cycles
 SCF Done:  E(RB3LYP) =  -990.499818978     A.U. after   14 cycles
 SCF Done:  E(RB3LYP) =  -990.500369358     A.U. after   12 cycles
 SCF Done:  E(RB3LYP) =  -990.496913212     A.U. after   15 cycles
 SCF Done:  E(RB3LYP) =  -990.501031127     A.U. after    9 cycles
 SCF Done:  E(RB3LYP) =  -990.501032124     A.U. after    9 cycles
 SCF Done:  E(RB3LYP) =  -990.501032686     A.U. after    9 cycles
 SCF Done:  E(RB3LYP) =  -990.501032802     A.U. after    7 cycles
 SCF Done:  E(RB3LYP) =  -990.501032816     A.U. after    6 cycles
 SCF Done:  E(RB3LYP) =  -990.501032849     A.U. after    6 cycles
 SCF Done:  E(RB3LYP) =  -990.501032888     A.U. after    6 cycles
 SCF Done:  E(RB3LYP) =  -990.501032951     A.U. after    7 cycles
 SCF Done:  E(RB3LYP) =  -990.501033027     A.U. after    7 cycles
 SCF Done:  E(RB3LYP) =  -990.501033050     A.U. after    6 cycles
 Optimization completed.
    -- Stationary point found.

                         Standard orientation:
 ---------------------------------------------------------------------
 Center     Atomic      Atomic             Coordinates (Angstroms)
 Number     Number       Type             X           Y           Z
 ---------------------------------------------------------------------
      1          1           0       -4.404500   -3.417506    1.723664
      2          6           0       -4.795449   -2.406391    1.572302
      3          1           0       -4.592634   -1.808063    2.465800
      4          1           0       -5.878148   -2.492757    1.438724
      5          6           0       -4.188066   -1.831690    0.301210
      6          8           0       -4.337805   -2.366222   -0.794095
      7          7           0       -3.470459   -0.684013    0.459824
      8          1           0       -3.293323   -0.275898    1.370221
      9          6           0       -2.773968   -0.056358   -0.644260
     10          1           0       -2.307582   -0.843630   -1.250427
     11          6           0       -3.730237    0.751486   -1.545800
     12          1           0       -4.206408    1.555948   -0.975645
     13          1           0       -3.202851    1.194035   -2.399106
     14          1           0       -4.501377    0.078652   -1.928413
     15          6           0       -1.689873    0.848830   -0.034929
     16          8           0       -1.726110    1.189223    1.142564
     17          7           0       -0.695672    1.217126   -0.900293
     18          1           0       -0.833958    0.941143   -1.863976
     19          6           0        0.227399    2.348360   -0.683969
     20          1           0        0.581793    2.609753   -1.689888
     21          6           0       -0.412819    3.595340   -0.071235
     22          1           0       -0.792565    3.391110    0.929681
     23          1           0        0.344461    4.378980   -0.004878
     24          1           0       -1.237222    3.943112   -0.702650
     25          6           0        1.508245    1.927412    0.078470
     26          8           0        2.162796    2.743894    0.720094
     27          7           0        1.906490    0.647772   -0.122726
     28          1           0        1.306869   -0.024088   -0.587588
     29          6           0        3.113305    0.106183    0.470082
     30          1           0        3.922565    0.831169    0.318425
     31          6           0        2.959274   -0.151783    1.982721
     32          1           0        2.167016   -0.885162    2.164747
     33          1           0        3.891294   -0.530647    2.417483
     34          1           0        2.698460    0.786399    2.478048
     35          6           0        3.421399   -1.200078   -0.279562
     36          8           0        2.544455   -1.808264   -0.888601
     37          7           0        4.707102   -1.631025   -0.180949
     38          1           0        5.369292   -1.055118    0.319489
     39          6           0        5.170577   -2.879867   -0.762658
     40          1           0        4.315540   -3.350751   -1.248860
     41          1           0        5.953429   -2.700521   -1.508464
     42          1           0        5.562212   -3.552891    0.008697
 ---------------------------------------------------------------------

 The electronic state is 1-A.
 Alpha  occ. eigenvalues --  -19.13250 -19.12710 -19.11016 -19.09916 -14.37861
 Alpha  occ. eigenvalues --  -14.37765 -14.35452 -14.35069 -10.30176 -10.29879
 Alpha  occ. eigenvalues --  -10.28420 -10.27918 -10.24620 -10.24155 -10.23916
 Alpha  occ. eigenvalues --  -10.22909 -10.18778 -10.18645 -10.18503 -10.17467
 Alpha  occ. eigenvalues --   -1.05171  -1.04726  -1.02885  -1.01941  -0.94128
 Alpha  occ. eigenvalues --   -0.93503  -0.91932  -0.91575  -0.79394  -0.77550
 Alpha  occ. eigenvalues --   -0.75726  -0.72156  -0.71772  -0.67477  -0.65947
 Alpha  occ. eigenvalues --   -0.63623  -0.60447  -0.58949  -0.57766  -0.57469
 Alpha  occ. eigenvalues --   -0.55044  -0.53346  -0.49836  -0.48432  -0.48244
 Alpha  occ. eigenvalues --   -0.47593  -0.46477  -0.45922  -0.45353  -0.45115
 Alpha  occ. eigenvalues --   -0.43781  -0.43510  -0.42703  -0.41770  -0.41554
 Alpha  occ. eigenvalues --   -0.40816  -0.40313  -0.40023  -0.39506  -0.38870
 Alpha  occ. eigenvalues --   -0.38704  -0.38445  -0.37551  -0.37179  -0.36971
 Alpha  occ. eigenvalues --   -0.36743  -0.36170  -0.34874  -0.33976  -0.28911
 Alpha  occ. eigenvalues --   -0.26917  -0.26787  -0.26697  -0.24969  -0.24643
 Alpha  occ. eigenvalues --   -0.24069  -0.23913
 Alpha virt. eigenvalues --    0.00692   0.01248   0.02381   0.03753   0.05793
 Alpha virt. eigenvalues --    0.06307   0.09763   0.11165   0.11783   0.12512
 Alpha virt. eigenvalues --    0.12736   0.13179   0.13599   0.14465   0.14993

 Mulliken atomic charges:
              1
     1  H    0.183109
     2  C   -0.533397
     3  H    0.148497
     4  H    0.182401
     5  C    0.598136
     6  O   -0.523543
     7  N   -0.605986
     8  H    0.347039
     9  C   -0.036046
    10  H    0.175874
    11  C   -0.447613
    12  H    0.159235
    13  H    0.131485
    14  H    0.195264
    15  C    0.613867
    16  O   -0.518107
    17  N   -0.632090
    18  H    0.337069
    19  C   -0.058342
    20  H    0.166868
    21  C   -0.450736
    22  H    0.198083
    23  H    0.175640
    24  H    0.134932
    25  C    0.642024
    26  O   -0.536250
    27  N   -0.615236
    28  H    0.351659
    29  C   -0.029839
    30  H    0.163935
    31  C   -0.445622
    32  H    0.162643
    33  H    0.135182
    34  H    0.195148
    35  C    0.606523
    36  O   -0.530559
    37  N   -0.592897
    38  H    0.331369
    39  C   -0.313692
    40  H    0.208039
    41  H    0.162964
    42  H    0.162969
 Sum of Mulliken atomic charges =   0.00000

 Dipole moment (field-independent basis, Debye):
    X=              3.8902    Y=             -0.1937    Z=             -0.6157  Tot=              3.9433
 Quadrupole moment (field-independent basis, Debye-Ang):
   XX=            -99.3357   YY=           -130.0907   ZZ=           -116.3459
   XY=            -19.9403   XZ=             -5.9697   YZ=            -15.6970

 Normal termination of Gaussian 09 at Fri Dec 30 11:15:09 2016.
