 Gaussian 09, Revision A.02,
 Gaussian 09:  EM64L-G09RevA.02 11-Jun-2009

 ----------------------------------------------------------------------
 # b3lyp/6-31G* Opt=(ModRedundant, maxcycles=1000, calcfc) geom=nocrowd
 ----------------------------------------------------------------------

 ------------------
 Phi Psi fixed scan
 ------------------
 Symbolic Z-matrix:
 Charge =  0 Multiplicity = 1

 SCF Done:  E(RB3LYP) =  -990.470421673     A.U. after   14 cycles

  Exact polarizability:   0.000   0.000   0.000   0.000   0.000   0.000
 Approx polarizability: 239.812 -12.433 212.141  -0.942   8.723 214.747

 SCF Done:  E(RB3LYP) =  -990.480691055     A.U. after   13 cycles
 SCF Done:  E(RB3LYP) =  -990.491164851     A.U. after   15 cycles
 SCF Done:  E(RB3LYP) =  -990.494426788     A.U. after   13 cycles
 SCF Done:  E(RB3LYP) =  -990.496043837     A.U. after   12 cycles
 SCF Done:  E(RB3LYP) =  -990.498007441     A.U. after   13 cycles
 SCF Done:  E(RB3LYP) =  -990.498528779     A.U. after   14 cycles
 SCF Done:  E(RB3LYP) =  -990.498742699     A.U. after   13 cycles
 SCF Done:  E(RB3LYP) =  -990.428804272     A.U. after   15 cycles
 SCF Done:  E(RB3LYP) =  -990.498796770     A.U. after   15 cycles
 SCF Done:  E(RB3LYP) =  -990.498909141     A.U. after    9 cycles
 SCF Done:  E(RB3LYP) =  -990.498909715     A.U. after    7 cycles
 SCF Done:  E(RB3LYP) =  -990.498910488     A.U. after    7 cycles
 SCF Done:  E(RB3LYP) =  -990.498911745     A.U. after    9 cycles
 SCF Done:  E(RB3LYP) =  -990.498913067     A.U. after    9 cycles
 SCF Done:  E(RB3LYP) =  -990.498914151     A.U. after    9 cycles
 SCF Done:  E(RB3LYP) =  -990.498914642     A.U. after    9 cycles
 SCF Done:  E(RB3LYP) =  -990.498914760     A.U. after    7 cycles
 SCF Done:  E(RB3LYP) =  -990.498914788     A.U. after    6 cycles
 SCF Done:  E(RB3LYP) =  -990.498914808     A.U. after    6 cycles
 Optimization completed.
    -- Stationary point found.

                         Standard orientation:
 ---------------------------------------------------------------------
 Center     Atomic      Atomic             Coordinates (Angstroms)
 Number     Number       Type             X           Y           Z
 ---------------------------------------------------------------------
      1          1           0        7.195782   -1.367019   -1.230907
      2          6           0        6.133421   -1.552909   -1.415628
      3          1           0        6.006595   -2.634473   -1.528326
      4          1           0        5.840988   -1.061362   -2.348537
      5          6           0        5.335728   -1.089130   -0.205199
      6          8           0        5.571684   -1.502270    0.927448
      7          7           0        4.350539   -0.185444   -0.463944
      8          1           0        4.093995    0.080211   -1.408113
      9          6           0        3.439582    0.273920    0.564930
     10          1           0        3.173000   -0.583965    1.196253
     11          6           0        4.077201    1.358324    1.455409
     12          1           0        4.342467    2.236232    0.856968
     13          1           0        3.395363    1.674932    2.252591
     14          1           0        4.982173    0.950083    1.911880
     15          6           0        2.180725    0.799288   -0.155572
     16          8           0        2.193575    1.030185   -1.359949
     17          7           0        1.125882    1.033204    0.678790
     18          1           0        1.211931    0.631461    1.603321
     19          6           0       -0.239264    1.381894    0.299048
     20          1           0       -0.654568    1.927587    1.157546
     21          6           0       -0.352522    2.299446   -0.928384
     22          1           0       -0.037460    1.789740   -1.837559
     23          1           0       -1.393199    2.624897   -1.032466
     24          1           0        0.274981    3.185486   -0.796544
     25          6           0       -1.078120    0.092542    0.118147
     26          8           0       -0.581790   -0.970827   -0.234943
     27          7           0       -2.400791    0.239419    0.398637
     28          1           0       -2.814050    1.143270    0.607338
     29          6           0       -3.365542   -0.813982    0.140878
     30          1           0       -3.086875   -1.316697   -0.794195
     31          6           0       -3.387045   -1.860674    1.271345
     32          1           0       -3.674796   -1.394667    2.219417
     33          1           0       -4.092731   -2.670707    1.054695
     34          1           0       -2.387843   -2.291438    1.372762
     35          6           0       -4.733503   -0.127587   -0.023157
     36          8           0       -4.908987    1.037715    0.327354
     37          7           0       -5.710382   -0.908742   -0.552338
     38          1           0       -5.471706   -1.846918   -0.841411
     39          6           0       -7.075958   -0.448596   -0.746474
     40          1           0       -7.132144    0.575946   -0.377507
     41          1           0       -7.348923   -0.463071   -1.807760
     42          1           0       -7.783796   -1.072226   -0.188792
 ---------------------------------------------------------------------

 The electronic state is 1-A.
 Alpha  occ. eigenvalues --  -19.13378 -19.12009 -19.11699 -19.09181 -14.38282
 Alpha  occ. eigenvalues --  -14.36756 -14.36233 -14.34186 -10.30506 -10.29193
 Alpha  occ. eigenvalues --  -10.28842 -10.27170 -10.24754 -10.24666 -10.23325
 Alpha  occ. eigenvalues --  -10.22905 -10.19450 -10.18500 -10.17888 -10.17824
 Alpha  occ. eigenvalues --   -1.05395  -1.04167  -1.03336  -1.01150  -0.94063
 Alpha  occ. eigenvalues --   -0.93122  -0.92842  -0.90718  -0.79795  -0.77577
 Alpha  occ. eigenvalues --   -0.75387  -0.72248  -0.71444  -0.67564  -0.66056
 Alpha  occ. eigenvalues --   -0.63510  -0.60816  -0.58642  -0.57812  -0.56597
 Alpha  occ. eigenvalues --   -0.55377  -0.52527  -0.50403  -0.49197  -0.47674
 Alpha  occ. eigenvalues --   -0.47134  -0.46891  -0.46060  -0.44636  -0.44513
 Alpha  occ. eigenvalues --   -0.44195  -0.43322  -0.42710  -0.42183  -0.41013
 Alpha  occ. eigenvalues --   -0.40855  -0.40728  -0.40165  -0.39377  -0.38947
 Alpha  occ. eigenvalues --   -0.38379  -0.38140  -0.37840  -0.37504  -0.37162
 Alpha  occ. eigenvalues --   -0.36492  -0.36030  -0.35250  -0.33189  -0.27843
 Alpha  occ. eigenvalues --   -0.27475  -0.26979  -0.25741  -0.25619  -0.24737
 Alpha  occ. eigenvalues --   -0.23643  -0.23159
 Alpha virt. eigenvalues --    0.00735   0.01480   0.02881   0.04514   0.05646
 Alpha virt. eigenvalues --    0.06408   0.09185   0.10553   0.10933   0.12794
 Alpha virt. eigenvalues --    0.13177   0.13399   0.14020   0.14546   0.14698

 Mulliken atomic charges:
              1
     1  H    0.179809
     2  C   -0.532780
     3  H    0.181065
     4  H    0.147807
     5  C    0.596502
     6  O   -0.526650
     7  N   -0.603983
     8  H    0.347328
     9  C   -0.037184
    10  H    0.171802
    11  C   -0.441735
    12  H    0.154622
    13  H    0.133891
    14  H    0.189482
    15  C    0.623452
    16  O   -0.528494
    17  N   -0.595413
    18  H    0.332147
    19  C   -0.053255
    20  H    0.147069
    21  C   -0.444740
    22  H    0.203355
    23  H    0.143768
    24  H    0.164975
    25  C    0.606001
    26  O   -0.518072
    27  N   -0.615791
    28  H    0.352219
    29  C   -0.034125
    30  H    0.173109
    31  C   -0.443439
    32  H    0.159424
    33  H    0.137014
    34  H    0.190458
    35  C    0.605856
    36  O   -0.530609
    37  N   -0.591815
    38  H    0.333201
    39  C   -0.314185
    40  H    0.208263
    41  H    0.165513
    42  H    0.164139
 Sum of Mulliken atomic charges =   0.00000

 Dipole moment (field-independent basis, Debye):
    X=             -6.4513    Y=              0.0414    Z=             -0.3568  Tot=              6.4613
 Quadrupole moment (field-independent basis, Debye-Ang):
   XX=           -108.6759   YY=           -119.0909   ZZ=           -117.3278
   XY=             21.6205   XZ=             -2.6740   YZ=              6.8525

 Normal termination of Gaussian 09 at Fri Dec 30 07:38:12 2016.
