 Gaussian 09, Revision A.02,
 Gaussian 09:  EM64L-G09RevA.02 11-Jun-2009

 ----------------------------------------------------------------------
 # b3lyp/6-31G* Opt=(ModRedundant, maxcycles=1000, calcfc) geom=nocrowd
 ----------------------------------------------------------------------

 ------------------
 Phi Psi fixed scan
 ------------------
 Symbolic Z-matrix:
 Charge =  0 Multiplicity = 1

 SCF Done:  E(RB3LYP) =  -990.470008588     A.U. after   14 cycles

  Exact polarizability:   0.000   0.000   0.000   0.000   0.000   0.000
 Approx polarizability: 238.397  10.347 214.263  12.816   5.920 213.335

 SCF Done:  E(RB3LYP) =  -990.480688717     A.U. after   15 cycles
 SCF Done:  E(RB3LYP) =  -990.490426538     A.U. after   15 cycles
 SCF Done:  E(RB3LYP) =  -990.493848132     A.U. after   15 cycles
 SCF Done:  E(RB3LYP) =  -990.495926718     A.U. after   15 cycles
 SCF Done:  E(RB3LYP) =  -990.497682085     A.U. after   13 cycles
 SCF Done:  E(RB3LYP) =  -990.498648774     A.U. after   13 cycles
 SCF Done:  E(RB3LYP) =  -990.492874164     A.U. after   15 cycles
 SCF Done:  E(RB3LYP) =  -990.498751894     A.U. after   15 cycles
 SCF Done:  E(RB3LYP) =  -990.499107412     A.U. after   11 cycles
 SCF Done:  E(RB3LYP) =  -990.499990377     A.U. after   15 cycles
 SCF Done:  E(RB3LYP) =  -990.499994408     A.U. after   10 cycles
 SCF Done:  E(RB3LYP) =  -990.499996961     A.U. after    9 cycles
 SCF Done:  E(RB3LYP) =  -990.499999253     A.U. after    9 cycles
 SCF Done:  E(RB3LYP) =  -990.500000564     A.U. after   10 cycles
 SCF Done:  E(RB3LYP) =  -990.500001277     A.U. after   10 cycles
 SCF Done:  E(RB3LYP) =  -990.500000549     A.U. after    9 cycles
 SCF Done:  E(RB3LYP) =  -990.500000783     A.U. after    9 cycles
 SCF Done:  E(RB3LYP) =  -990.500000860     A.U. after    9 cycles
 SCF Done:  E(RB3LYP) =  -990.500000895     A.U. after    7 cycles
 Optimization completed.
    -- Stationary point found.

                         Standard orientation:
 ---------------------------------------------------------------------
 Center     Atomic      Atomic             Coordinates (Angstroms)
 Number     Number       Type             X           Y           Z
 ---------------------------------------------------------------------
      1          1           0        6.870419   -2.008791   -1.195601
      2          6           0        5.796381   -2.211288   -1.138276
      3          1           0        5.677954   -3.251079   -0.817644
      4          1           0        5.357766   -2.092137   -2.133751
      5          6           0        5.179860   -1.300810   -0.085633
      6          8           0        5.561627   -1.304474    1.081867
      7          7           0        4.187500   -0.480594   -0.529213
      8          1           0        3.811326   -0.546014   -1.468209
      9          6           0        3.442142    0.381048    0.366649
     10          1           0        3.232962   -0.177572    1.288623
     11          6           0        4.232180    1.652641    0.733340
     12          1           0        4.444196    2.243022   -0.164342
     13          1           0        3.675036    2.279419    1.438013
     14          1           0        5.176022    1.357007    1.197743
     15          6           0        2.114826    0.719672   -0.339855
     16          8           0        1.954776    0.484923   -1.534196
     17          7           0        1.203632    1.344506    0.462032
     18          1           0        1.361502    1.223350    1.454246
     19          6           0       -0.190008    1.619564    0.124413
     20          1           0       -0.486214    2.455339    0.774986
     21          6           0       -0.418320    2.074480   -1.324401
     22          1           0       -0.297340    1.256944   -2.033494
     23          1           0       -1.422846    2.499755   -1.425118
     24          1           0        0.298973    2.857673   -1.584449
     25          6           0       -1.064877    0.417557    0.572001
     26          8           0       -0.583998   -0.534343    1.180049
     27          7           0       -2.393038    0.535814    0.319273
     28          1           0       -2.773905    1.267726   -0.271258
     29          6           0       -3.337155   -0.516199    0.651354
     30          1           0       -2.869910   -1.483831    0.428274
     31          6           0       -3.726385   -0.491455    2.141824
     32          1           0       -4.207082    0.458743    2.396373
     33          1           0       -4.416267   -1.306442    2.388386
     34          1           0       -2.823290   -0.609305    2.745801
     35          6           0       -4.562394   -0.307032   -0.256369
     36          8           0       -4.737891    0.750960   -0.857370
     37          7           0       -5.422767   -1.356397   -0.313674
     38          1           0       -5.183732   -2.201230    0.186118
     39          6           0       -6.652526   -1.331760   -1.089007
     40          1           0       -6.725843   -0.348750   -1.555112
     41          1           0       -6.639761   -2.099496   -1.870924
     42          1           0       -7.525706   -1.492670   -0.446625
 ---------------------------------------------------------------------

 The electronic state is 1-A.
 Alpha  occ. eigenvalues --  -19.13301 -19.12232 -19.11840 -19.09187 -14.38214
 Alpha  occ. eigenvalues --  -14.36491 -14.36157 -14.34212 -10.30431 -10.29236
 Alpha  occ. eigenvalues --  -10.29007 -10.27187 -10.24710 -10.24670 -10.23257
 Alpha  occ. eigenvalues --  -10.22884 -10.19421 -10.18762 -10.17935 -10.17717
 Alpha  occ. eigenvalues --   -1.05338  -1.04314  -1.03458  -1.01166  -0.93997
 Alpha  occ. eigenvalues --   -0.93043  -0.92782  -0.90736  -0.79780  -0.77546
 Alpha  occ. eigenvalues --   -0.75339  -0.72188  -0.71452  -0.67524  -0.66152
 Alpha  occ. eigenvalues --   -0.63634  -0.60796  -0.58676  -0.57523  -0.56533
 Alpha  occ. eigenvalues --   -0.55294  -0.52772  -0.50133  -0.49204  -0.47766
 Alpha  occ. eigenvalues --   -0.47151  -0.46816  -0.46172  -0.44705  -0.44284
 Alpha  occ. eigenvalues --   -0.44089  -0.43025  -0.42936  -0.42677  -0.40978
 Alpha  occ. eigenvalues --   -0.40774  -0.40521  -0.40084  -0.39472  -0.39124
 Alpha  occ. eigenvalues --   -0.38624  -0.38168  -0.37926  -0.37502  -0.37232
 Alpha  occ. eigenvalues --   -0.36518  -0.35995  -0.35194  -0.33200  -0.27747
 Alpha  occ. eigenvalues --   -0.27395  -0.26814  -0.25852  -0.25664  -0.25119
 Alpha  occ. eigenvalues --   -0.23713  -0.23177
 Alpha virt. eigenvalues --    0.00845   0.01769   0.02280   0.04470   0.05731
 Alpha virt. eigenvalues --    0.07050   0.09327   0.10480   0.10994   0.12844
 Alpha virt. eigenvalues --    0.13124   0.13258   0.13789   0.14264   0.14860

 Mulliken atomic charges:
              1
     1  H    0.180056
     2  C   -0.532831
     3  H    0.180791
     4  H    0.146915
     5  C    0.596712
     6  O   -0.525597
     7  N   -0.605398
     8  H    0.346076
     9  C   -0.036565
    10  H    0.176668
    11  C   -0.441488
    12  H    0.152796
    13  H    0.137089
    14  H    0.189349
    15  C    0.613617
    16  O   -0.531148
    17  N   -0.585211
    18  H    0.336573
    19  C   -0.064785
    20  H    0.165133
    21  C   -0.454533
    22  H    0.198320
    23  H    0.143662
    24  H    0.168577
    25  C    0.618390
    26  O   -0.531612
    27  N   -0.623757
    28  H    0.357716
    29  C   -0.031094
    30  H    0.173123
    31  C   -0.444090
    32  H    0.159790
    33  H    0.137290
    34  H    0.189258
    35  C    0.605839
    36  O   -0.530095
    37  N   -0.592189
    38  H    0.332949
    39  C   -0.314156
    40  H    0.208443
    41  H    0.165570
    42  H    0.163846
 Sum of Mulliken atomic charges =   0.00000

 Dipole moment (field-independent basis, Debye):
    X=             -6.1766    Y=             -0.1697    Z=             -0.3119  Tot=              6.1868
 Quadrupole moment (field-independent basis, Debye-Ang):
   XX=           -113.5618   YY=           -110.7406   ZZ=           -122.0354
   XY=             20.1497   XZ=            -13.6701   YZ=              8.5882

 Normal termination of Gaussian 09 at Fri Dec 30 08:38:05 2016.
