 Gaussian 09, Revision A.02,
 Gaussian 09:  EM64L-G09RevA.02 11-Jun-2009

 ----------------------------------------------------------------------
 # b3lyp/6-31G* Opt=(ModRedundant, maxcycles=1000, calcfc) geom=nocrowd
 ----------------------------------------------------------------------

 ------------------
 Phi Psi fixed scan
 ------------------
 Symbolic Z-matrix:
 Charge =  0 Multiplicity = 1

 SCF Done:  E(RB3LYP) =  -990.472064332     A.U. after   15 cycles

  Exact polarizability:   0.000   0.000   0.000   0.000   0.000   0.000
 Approx polarizability: 230.712  19.917 224.180 -11.137 -11.870 213.682

 SCF Done:  E(RB3LYP) =  -990.483180311     A.U. after   13 cycles
 SCF Done:  E(RB3LYP) =  -990.494764468     A.U. after   13 cycles
 SCF Done:  E(RB3LYP) =  -990.497237497     A.U. after   13 cycles
 SCF Done:  E(RB3LYP) =  -990.499588543     A.U. after   12 cycles
 SCF Done:  E(RB3LYP) =  -990.501181834     A.U. after   15 cycles
 SCF Done:  E(RB3LYP) =  -990.501397726     A.U. after   13 cycles
 SCF Done:  E(RB3LYP) =  -990.501715206     A.U. after   14 cycles
 SCF Done:  E(RB3LYP) =  -990.499661410     A.U. after   16 cycles
 SCF Done:  E(RB3LYP) =  -990.501824944     A.U. after   16 cycles
 SCF Done:  E(RB3LYP) =  -990.502380016     A.U. after   11 cycles
 SCF Done:  E(RB3LYP) =  -990.502405157     A.U. after   12 cycles
 SCF Done:  E(RB3LYP) =  -990.502408350     A.U. after   11 cycles
 SCF Done:  E(RB3LYP) =  -990.502413208     A.U. after   10 cycles
 SCF Done:  E(RB3LYP) =  -990.502414182     A.U. after    9 cycles
 SCF Done:  E(RB3LYP) =  -990.502414203     A.U. after    8 cycles
 SCF Done:  E(RB3LYP) =  -990.502414392     A.U. after    7 cycles
 SCF Done:  E(RB3LYP) =  -990.502414483     A.U. after    6 cycles
 SCF Done:  E(RB3LYP) =  -990.502414604     A.U. after    7 cycles
 SCF Done:  E(RB3LYP) =  -990.502414649     A.U. after    6 cycles
 Optimization completed.
    -- Stationary point found.

                         Standard orientation:
 ---------------------------------------------------------------------
 Center     Atomic      Atomic             Coordinates (Angstroms)
 Number     Number       Type             X           Y           Z
 ---------------------------------------------------------------------
      1          1           0       -3.931883   -3.606506    1.393863
      2          6           0       -4.388841   -2.613276    1.450675
      3          1           0       -4.110227   -2.147917    2.401104
      4          1           0       -5.473833   -2.751625    1.424133
      5          6           0       -3.966321   -1.809138    0.230194
      6          8           0       -4.253003   -2.156177   -0.912273
      7          7           0       -3.249137   -0.679946    0.490548
      8          1           0       -2.957990   -0.426090    1.427300
      9          6           0       -2.707004    0.145369   -0.569177
     10          1           0       -2.317179   -0.515086   -1.354614
     11          6           0       -3.777856    1.064186   -1.191895
     12          1           0       -4.183029    1.746240   -0.437150
     13          1           0       -3.366581    1.659785   -2.015149
     14          1           0       -4.586399    0.442518   -1.583760
     15          6           0       -1.560975    0.968786    0.043719
     16          8           0       -1.454944    1.113843    1.257559
     17          7           0       -0.696793    1.508473   -0.866953
     18          1           0       -0.894192    1.317185   -1.839974
     19          6           0        0.304890    2.552803   -0.600369
     20          1           0        0.494364    3.019025   -1.575006
     21          6           0       -0.164697    3.659472    0.352915
     22          1           0       -0.385533    3.259243    1.342715
     23          1           0        0.633525    4.400534    0.431867
     24          1           0       -1.065233    4.140792   -0.042201
     25          6           0        1.688068    2.011211   -0.170965
     26          8           0        2.608909    2.795925    0.047006
     27          7           0        1.816061    0.668423   -0.091288
     28          1           0        1.043017    0.047385   -0.298691
     29          6           0        3.068330    0.028158    0.257530
     30          1           0        3.877885    0.555113   -0.263158
     31          6           0        3.341527    0.083966    1.773775
     32          1           0        2.553705   -0.441601    2.322793
     33          1           0        4.305778   -0.373551    2.022952
     34          1           0        3.360617    1.129493    2.090873
     35          6           0        2.976574   -1.423380   -0.242558
     36          8           0        1.895286   -1.938297   -0.516994
     37          7           0        4.164443   -2.079645   -0.324508
     38          1           0        5.009718   -1.572586   -0.103330
     39          6           0        4.272794   -3.473763   -0.721702
     40          1           0        3.262702   -3.839332   -0.909335
     41          1           0        4.867658   -3.577932   -1.636337
     42          1           0        4.732179   -4.074936    0.071280
 ---------------------------------------------------------------------

 The electronic state is 1-A.
 Alpha  occ. eigenvalues --  -19.13120 -19.12748 -19.10805 -19.09815 -14.37881
 Alpha  occ. eigenvalues --  -14.37755 -14.35563 -14.34958 -10.30158 -10.29910
 Alpha  occ. eigenvalues --  -10.28372 -10.27814 -10.24581 -10.24184 -10.23821
 Alpha  occ. eigenvalues --  -10.22894 -10.18773 -10.18629 -10.18408 -10.17694
 Alpha  occ. eigenvalues --   -1.05085  -1.04755  -1.02777  -1.01835  -0.94125
 Alpha  occ. eigenvalues --   -0.93507  -0.91988  -0.91471  -0.79380  -0.77561
 Alpha  occ. eigenvalues --   -0.75771  -0.72057  -0.71771  -0.67420  -0.65960
 Alpha  occ. eigenvalues --   -0.63781  -0.60445  -0.58840  -0.57914  -0.57459
 Alpha  occ. eigenvalues --   -0.55120  -0.53556  -0.49921  -0.48578  -0.48100
 Alpha  occ. eigenvalues --   -0.47392  -0.46435  -0.45993  -0.45238  -0.44962
 Alpha  occ. eigenvalues --   -0.43600  -0.43473  -0.42722  -0.41667  -0.41480
 Alpha  occ. eigenvalues --   -0.40588  -0.40542  -0.40203  -0.39691  -0.38864
 Alpha  occ. eigenvalues --   -0.38749  -0.38324  -0.37651  -0.37169  -0.36947
 Alpha  occ. eigenvalues --   -0.36779  -0.36256  -0.34433  -0.33880  -0.28843
 Alpha  occ. eigenvalues --   -0.26923  -0.26760  -0.26698  -0.25016  -0.24530
 Alpha  occ. eigenvalues --   -0.23944  -0.23813
 Alpha virt. eigenvalues --    0.00888   0.01366   0.02849   0.03835   0.05593
 Alpha virt. eigenvalues --    0.06186   0.09807   0.11183   0.11856   0.12133
 Alpha virt. eigenvalues --    0.13181   0.13380   0.13780   0.14356   0.15101

 Mulliken atomic charges:
              1
     1  H    0.183518
     2  C   -0.533422
     3  H    0.148079
     4  H    0.181831
     5  C    0.599121
     6  O   -0.524001
     7  N   -0.605455
     8  H    0.346685
     9  C   -0.034619
    10  H    0.174366
    11  C   -0.445505
    12  H    0.158496
    13  H    0.132483
    14  H    0.194039
    15  C    0.607946
    16  O   -0.521390
    17  N   -0.640135
    18  H    0.338661
    19  C   -0.037308
    20  H    0.167494
    21  C   -0.457241
    22  H    0.194796
    23  H    0.179747
    24  H    0.141956
    25  C    0.628240
    26  O   -0.542393
    27  N   -0.613813
    28  H    0.359693
    29  C   -0.033207
    30  H    0.167603
    31  C   -0.443957
    32  H    0.165225
    33  H    0.134358
    34  H    0.191804
    35  C    0.605400
    36  O   -0.528399
    37  N   -0.592908
    38  H    0.331394
    39  C   -0.313728
    40  H    0.208623
    41  H    0.163127
    42  H    0.162798
 Sum of Mulliken atomic charges =   0.00000

 Dipole moment (field-independent basis, Debye):
    X=              3.5049    Y=             -0.7076    Z=             -0.3524  Tot=              3.5930
 Quadrupole moment (field-independent basis, Debye-Ang):
   XX=           -107.4695   YY=           -124.3049   ZZ=           -116.1828
   XY=            -24.5332   XZ=             -7.3163   YZ=            -11.6569

 Normal termination of Gaussian 09 at Fri Dec 30 08:58:38 2016.
