 Gaussian 09, Revision A.02,
 Gaussian 09:  EM64L-G09RevA.02 11-Jun-2009

 ----------------------------------------------------------------------
 # b3lyp/6-31G* Opt=(ModRedundant, maxcycles=1000, calcfc) geom=nocrowd
 ----------------------------------------------------------------------

 ------------------
 Phi Psi fixed scan
 ------------------
 Symbolic Z-matrix:
 Charge =  0 Multiplicity = 1

 SCF Done:  E(RB3LYP) =  -990.468697046     A.U. after   15 cycles

  Exact polarizability:   0.000   0.000   0.000   0.000   0.000   0.000
 Approx polarizability: 236.278  -3.570 195.153 -11.786   5.221 236.695

 SCF Done:  E(RB3LYP) =  -990.479251659     A.U. after   13 cycles
 SCF Done:  E(RB3LYP) =  -990.490104224     A.U. after   15 cycles
 SCF Done:  E(RB3LYP) =  -990.493204044     A.U. after   13 cycles
 SCF Done:  E(RB3LYP) =  -990.494777475     A.U. after   12 cycles
 SCF Done:  E(RB3LYP) =  -990.496616341     A.U. after   14 cycles
 SCF Done:  E(RB3LYP) =  -990.497079692     A.U. after   13 cycles
 SCF Done:  E(RB3LYP) =  -990.496985374     A.U. after   14 cycles
 SCF Done:  E(RB3LYP) =  -990.497399881     A.U. after   11 cycles
 SCF Done:  E(RB3LYP) =  -990.497449799     A.U. after   11 cycles
 SCF Done:  E(RB3LYP) =  -990.497479263     A.U. after    9 cycles
 SCF Done:  E(RB3LYP) =  -990.497480134     A.U. after    9 cycles
 SCF Done:  E(RB3LYP) =  -990.497480372     A.U. after    8 cycles
 SCF Done:  E(RB3LYP) =  -990.497480435     A.U. after    6 cycles
 SCF Done:  E(RB3LYP) =  -990.497480457     A.U. after    6 cycles
 SCF Done:  E(RB3LYP) =  -990.497480495     A.U. after    6 cycles
 SCF Done:  E(RB3LYP) =  -990.497480560     A.U. after    7 cycles
 SCF Done:  E(RB3LYP) =  -990.497480660     A.U. after    7 cycles
 SCF Done:  E(RB3LYP) =  -990.497480780     A.U. after    7 cycles
 SCF Done:  E(RB3LYP) =  -990.497480821     A.U. after    6 cycles
 Optimization completed.
    -- Stationary point found.

                         Standard orientation:
 ---------------------------------------------------------------------
 Center     Atomic      Atomic             Coordinates (Angstroms)
 Number     Number       Type             X           Y           Z
 ---------------------------------------------------------------------
      1          1           0        7.174074   -1.472095   -0.789175
      2          6           0        6.144836   -1.565330   -1.149133
      3          1           0        5.994674   -2.610066   -1.439319
      4          1           0        6.015229   -0.928598   -2.029561
      5          6           0        5.193396   -1.231873   -0.009225
      6          8           0        5.223020   -1.833652    1.061533
      7          7           0        4.314559   -0.221261   -0.255261
      8          1           0        4.229304    0.214453   -1.166732
      9          6           0        3.288142    0.152388    0.696349
     10          1           0        2.886362   -0.765951    1.144088
     11          6           0        3.845277    1.043340    1.824018
     12          1           0        4.245010    1.975244    1.410697
     13          1           0        3.070695    1.293184    2.557915
     14          1           0        4.647977    0.504952    2.333952
     15          6           0        2.183405    0.877056   -0.101577
     16          8           0        2.400987    1.307995   -1.227860
     17          7           0        1.018524    1.034713    0.594084
     18          1           0        0.956955    0.517278    1.461377
     19          6           0       -0.259799    1.563175    0.107664
     20          1           0       -0.755506    1.982007    0.993505
     21          6           0       -0.130923    2.676756   -0.937366
     22          1           0        0.270313    2.287778   -1.871625
     23          1           0       -1.123886    3.105027   -1.115370
     24          1           0        0.529552    3.469086   -0.574055
     25          6           0       -1.124147    0.407556   -0.447368
     26          8           0       -0.743906   -0.303262   -1.370648
     27          7           0       -2.320295    0.236447    0.177576
     28          1           0       -2.667739    0.884307    0.877527
     29          6           0       -3.302136   -0.724554   -0.290688
     30          1           0       -3.304354   -0.708030   -1.388338
     31          6           0       -2.971496   -2.155636    0.175319
     32          1           0       -2.973893   -2.213070    1.268732
     33          1           0       -3.696874   -2.880270   -0.211503
     34          1           0       -1.980477   -2.427526   -0.196151
     35          6           0       -4.667039   -0.253830    0.242060
     36          8           0       -4.748130    0.593554    1.129299
     37          7           0       -5.745022   -0.856817   -0.322344
     38          1           0       -5.588571   -1.521678   -1.066754
     39          6           0       -7.113387   -0.572422    0.078953
     40          1           0       -7.072679    0.159088    0.886518
     41          1           0       -7.689173   -0.154759   -0.754761
     42          1           0       -7.613890   -1.478766    0.438012
 ---------------------------------------------------------------------

 The electronic state is 1-A.
 Alpha  occ. eigenvalues --  -19.13441 -19.12032 -19.11471 -19.09309 -14.38337
 Alpha  occ. eigenvalues --  -14.37061 -14.36433 -14.34333 -10.30570 -10.29298
 Alpha  occ. eigenvalues --  -10.28776 -10.27301 -10.24787 -10.24666 -10.23372
 Alpha  occ. eigenvalues --  -10.23080 -10.19465 -10.18052 -10.17988 -10.17981
 Alpha  occ. eigenvalues --   -1.05450  -1.04155  -1.03275  -1.01281  -0.94120
 Alpha  occ. eigenvalues --   -0.93280  -0.92820  -0.90856  -0.79707  -0.77677
 Alpha  occ. eigenvalues --   -0.75480  -0.72299  -0.71557  -0.67659  -0.65972
 Alpha  occ. eigenvalues --   -0.63488  -0.60833  -0.58689  -0.58011  -0.56783
 Alpha  occ. eigenvalues --   -0.55370  -0.52574  -0.50539  -0.49264  -0.47735
 Alpha  occ. eigenvalues --   -0.47220  -0.46970  -0.46113  -0.44874  -0.44558
 Alpha  occ. eigenvalues --   -0.44302  -0.43440  -0.42788  -0.41521  -0.41110
 Alpha  occ. eigenvalues --   -0.40937  -0.40856  -0.40279  -0.39297  -0.38649
 Alpha  occ. eigenvalues --   -0.38320  -0.38228  -0.37697  -0.37500  -0.36907
 Alpha  occ. eigenvalues --   -0.36570  -0.36149  -0.35403  -0.33329  -0.28205
 Alpha  occ. eigenvalues --   -0.27534  -0.27252  -0.25765  -0.25704  -0.24401
 Alpha  occ. eigenvalues --   -0.23600  -0.23283
 Alpha virt. eigenvalues --    0.00447   0.01192   0.03320   0.04417   0.05607
 Alpha virt. eigenvalues --    0.06052   0.09400   0.10457   0.10867   0.12722
 Alpha virt. eigenvalues --    0.13142   0.13627   0.14052   0.14343   0.14582

 Mulliken atomic charges:
              1
     1  H    0.180154
     2  C   -0.532696
     3  H    0.181179
     4  H    0.148715
     5  C    0.596117
     6  O   -0.527109
     7  N   -0.603538
     8  H    0.348121
     9  C   -0.035876
    10  H    0.167236
    11  C   -0.441650
    12  H    0.156200
    13  H    0.133391
    14  H    0.189339
    15  C    0.623804
    16  O   -0.522512
    17  N   -0.604717
    18  H    0.330733
    19  C   -0.041575
    20  H    0.138171
    21  C   -0.447331
    22  H    0.211462
    23  H    0.142142
    24  H    0.159510
    25  C    0.612665
    26  O   -0.519865
    27  N   -0.618472
    28  H    0.351368
    29  C   -0.033508
    30  H    0.173169
    31  C   -0.444810
    32  H    0.158911
    33  H    0.137345
    34  H    0.193435
    35  C    0.605748
    36  O   -0.530668
    37  N   -0.591956
    38  H    0.333386
    39  C   -0.314279
    40  H    0.208283
    41  H    0.165484
    42  H    0.164494
 Sum of Mulliken atomic charges =   0.00000

 Dipole moment (field-independent basis, Debye):
    X=             -6.2884    Y=              0.0635    Z=             -0.1429  Tot=              6.2903
 Quadrupole moment (field-independent basis, Debye-Ang):
   XX=           -101.2618   YY=           -119.6745   ZZ=           -122.9377
   XY=             18.6477   XZ=              1.1523   YZ=              6.8319

 Normal termination of Gaussian 09 at Fri Dec 30 07:42:54 2016.
