 Gaussian 09, Revision A.02,
 Gaussian 09:  EM64L-G09RevA.02 11-Jun-2009

 ----------------------------------------------------------------------
 # b3lyp/6-31G* Opt=(ModRedundant, maxcycles=1000, calcfc) geom=nocrowd
 ----------------------------------------------------------------------

 ------------------
 Phi Psi fixed scan
 ------------------
 Symbolic Z-matrix:
 Charge =  0 Multiplicity = 1

 SCF Done:  E(RB3LYP) =  -990.466689948     A.U. after   15 cycles

  Exact polarizability:   0.000   0.000   0.000   0.000   0.000   0.000
 Approx polarizability: 218.587  -1.897 217.571   0.683  35.116 231.322

 SCF Done:  E(RB3LYP) =  -990.477794676     A.U. after   13 cycles
 SCF Done:  E(RB3LYP) =  -990.489447021     A.U. after   14 cycles
 SCF Done:  E(RB3LYP) =  -990.492474072     A.U. after   15 cycles
 SCF Done:  E(RB3LYP) =  -990.494449322     A.U. after   12 cycles
 SCF Done:  E(RB3LYP) =  -990.496005245     A.U. after   13 cycles
 SCF Done:  E(RB3LYP) =  -990.484833003     A.U. after   13 cycles
 SCF Done:  E(RB3LYP) =  -990.496450365     A.U. after   13 cycles
 SCF Done:  E(RB3LYP) =  -990.496923913     A.U. after   12 cycles
 SCF Done:  E(RB3LYP) =  -990.495076824     A.U. after   13 cycles
 SCF Done:  E(RB3LYP) =  -990.497308151     A.U. after    9 cycles
 SCF Done:  E(RB3LYP) =  -990.497315332     A.U. after   10 cycles
 SCF Done:  E(RB3LYP) =  -990.497320409     A.U. after    9 cycles
 SCF Done:  E(RB3LYP) =  -990.497321818     A.U. after    9 cycles
 SCF Done:  E(RB3LYP) =  -990.497321957     A.U. after    7 cycles
 SCF Done:  E(RB3LYP) =  -990.497322251     A.U. after    7 cycles
 SCF Done:  E(RB3LYP) =  -990.497322635     A.U. after    9 cycles
 SCF Done:  E(RB3LYP) =  -990.497322913     A.U. after    9 cycles
 SCF Done:  E(RB3LYP) =  -990.497322949     A.U. after    7 cycles
 SCF Done:  E(RB3LYP) =  -990.497322996     A.U. after    7 cycles
 Optimization completed.
    -- Stationary point found.

                         Standard orientation:
 ---------------------------------------------------------------------
 Center     Atomic      Atomic             Coordinates (Angstroms)
 Number     Number       Type             X           Y           Z
 ---------------------------------------------------------------------
      1          1           0       -6.366694   -2.192841    1.222265
      2          6           0       -5.319005   -2.076651    1.516058
      3          1           0       -4.982482   -3.041158    1.909421
      4          1           0       -5.251584   -1.325107    2.308520
      5          6           0       -4.497672   -1.736884    0.281105
      6          8           0       -4.484388   -2.458042   -0.713028
      7          7           0       -3.782660   -0.579269    0.351878
      8          1           0       -3.731133   -0.023207    1.197793
      9          6           0       -2.894060   -0.159887   -0.712309
     10          1           0       -2.372216   -1.046770   -1.094244
     11          6           0       -3.661187    0.494810   -1.878900
     12          1           0       -4.184201    1.393879   -1.536610
     13          1           0       -2.988112    0.774415   -2.697981
     14          1           0       -4.392771   -0.220364   -2.262719
     15          6           0       -1.881342    0.818904   -0.088118
     16          8           0       -2.089224    1.341347    1.001752
     17          7           0       -0.763039    1.033268   -0.840712
     18          1           0       -0.746840    0.580079   -1.744308
     19          6           0        0.222110    2.114213   -0.637789
     20          1           0        0.692048    2.243253   -1.621225
     21          6           0       -0.376082    3.452167   -0.207528
     22          1           0       -0.792104    3.390514    0.796494
     23          1           0        0.410620    4.211676   -0.212173
     24          1           0       -1.161610    3.753505   -0.908183
     25          6           0        1.352380    1.659952    0.324052
     26          8           0        1.624484    2.265648    1.353896
     27          7           0        2.059189    0.581948   -0.106805
     28          1           0        1.805103    0.061123   -0.938693
     29          6           0        3.147780    0.003426    0.656500
     30          1           0        3.797599    0.819152    0.996972
     31          6           0        2.651374   -0.780186    1.888247
     32          1           0        2.010288   -1.611387    1.577106
     33          1           0        3.490256   -1.185441    2.465535
     34          1           0        2.078453   -0.107525    2.530958
     35          6           0        3.912291   -0.917172   -0.309390
     36          8           0        3.381409   -1.350200   -1.330346
     37          7           0        5.178728   -1.229116    0.070702
     38          1           0        5.543896   -0.809164    0.913915
     39          6           0        6.030345   -2.137684   -0.679537
     40          1           0        5.467237   -2.466645   -1.553461
     41          1           0        6.945694   -1.634176   -1.010360
     42          1           0        6.303186   -3.011700   -0.077011
 ---------------------------------------------------------------------

 The electronic state is 1-A.
 Alpha  occ. eigenvalues --  -19.13053 -19.12746 -19.11342 -19.09781 -14.38048
 Alpha  occ. eigenvalues --  -14.37644 -14.35774 -14.34870 -10.30195 -10.29819
 Alpha  occ. eigenvalues --  -10.28583 -10.27776 -10.24622 -10.24416 -10.23682
 Alpha  occ. eigenvalues --  -10.23129 -10.18890 -10.18599 -10.18387 -10.17411
 Alpha  occ. eigenvalues --   -1.05074  -1.04716  -1.03130  -1.01780  -0.93879
 Alpha  occ. eigenvalues --   -0.93774  -0.92211  -0.91389  -0.79444  -0.77635
 Alpha  occ. eigenvalues --   -0.75644  -0.72028  -0.71992  -0.67578  -0.65929
 Alpha  occ. eigenvalues --   -0.63511  -0.60630  -0.58999  -0.57941  -0.57319
 Alpha  occ. eigenvalues --   -0.55166  -0.53098  -0.49874  -0.48771  -0.48126
 Alpha  occ. eigenvalues --   -0.47584  -0.46724  -0.46032  -0.45177  -0.45070
 Alpha  occ. eigenvalues --   -0.44010  -0.43546  -0.42877  -0.41596  -0.41416
 Alpha  occ. eigenvalues --   -0.40758  -0.40541  -0.40243  -0.39230  -0.38738
 Alpha  occ. eigenvalues --   -0.38502  -0.38156  -0.37711  -0.37174  -0.36969
 Alpha  occ. eigenvalues --   -0.36849  -0.36068  -0.35461  -0.33820  -0.28704
 Alpha  occ. eigenvalues --   -0.27164  -0.27031  -0.26355  -0.25142  -0.24543
 Alpha  occ. eigenvalues --   -0.23999  -0.23767
 Alpha virt. eigenvalues --    0.00832   0.01270   0.02103   0.03874   0.05438
 Alpha virt. eigenvalues --    0.06047   0.09966   0.10860   0.11267   0.11950
 Alpha virt. eigenvalues --    0.13146   0.13328   0.13372   0.14532   0.14938

 Mulliken atomic charges:
              1
     1  H    0.182050
     2  C   -0.533136
     3  H    0.181812
     4  H    0.149124
     5  C    0.596252
     6  O   -0.524778
     7  N   -0.604747
     8  H    0.347778
     9  C   -0.036832
    10  H    0.172140
    11  C   -0.445809
    12  H    0.158634
    13  H    0.131025
    14  H    0.193142
    15  C    0.620536
    16  O   -0.520002
    17  N   -0.620714
    18  H    0.332574
    19  C   -0.069759
    20  H    0.156025
    21  C   -0.441224
    22  H    0.209382
    23  H    0.156707
    24  H    0.136573
    25  C    0.651658
    26  O   -0.522807
    27  N   -0.615616
    28  H    0.340099
    29  C   -0.029892
    30  H    0.166280
    31  C   -0.446543
    32  H    0.160866
    33  H    0.136186
    34  H    0.196786
    35  C    0.607439
    36  O   -0.533212
    37  N   -0.592442
    38  H    0.332465
    39  C   -0.314096
    40  H    0.207926
    41  H    0.163912
    42  H    0.164235
 Sum of Mulliken atomic charges =   0.00000

 Dipole moment (field-independent basis, Debye):
    X=              4.7662    Y=              0.0127    Z=             -0.4973  Tot=              4.7921
 Quadrupole moment (field-independent basis, Debye-Ang):
   XX=            -94.9504   YY=           -130.3857   ZZ=           -119.1012
   XY=            -15.2800   XZ=             -1.0103   YZ=            -16.7519

 Normal termination of Gaussian 09 at Fri Dec 30 11:01:27 2016.
