 Gaussian 09, Revision A.02,
 Gaussian 09:  EM64L-G09RevA.02 11-Jun-2009

 -------------------
 #SP MP2/aug-cc-pVDZ
 -------------------

 -------------------------------
 Single Point calculation at MP2
 -------------------------------
 Symbolic Z-matrix:
 Charge =  0 Multiplicity = 1

                         Standard orientation:
 ---------------------------------------------------------------------
 Center     Atomic      Atomic             Coordinates (Angstroms)
 Number     Number       Type             X           Y           Z
 ---------------------------------------------------------------------
      1          1           0        4.234811   -0.603491   -0.493796
      2          6           0        3.326613   -1.116095   -0.162396
      3          1           0        3.588715   -1.701894    0.724604
      4          1           0        2.991315   -1.793796   -0.953096
      5          6           0        2.289509   -0.074398    0.227804
      6          8           0        2.517506    0.786402    1.071004
      7          7           0        1.101309   -0.142103   -0.453796
      8          1           0        0.848513   -1.015903   -0.905496
      9          6           0       -0.047193    0.621793    0.002104
     10          1           0        0.143306    0.911594    1.043804
     11          6           0       -0.233598    1.902693   -0.832096
     12          1           0       -0.429597    1.658792   -1.881396
     13          1           0       -1.058500    2.522390   -0.461796
     14          1           0        0.684100    2.494596   -0.775996
     15          6           0       -1.272190   -0.312911   -0.045896
     16          8           0       -1.184086   -1.467711   -0.457296
     17          7           0       -2.446592    0.246385    0.352604
     18          1           0       -2.427995    1.180185    0.736804
     19          6           0       -3.695489   -0.495819    0.401504
     20          1           0       -3.537586   -1.439819   -0.120896
     21          1           0       -3.998089   -0.708121    1.434304
     22          1           0       -4.495291    0.064378   -0.094496
 ---------------------------------------------------------------------

 SCF Done:  E(RHF) =  -492.927123082     A.U. after   14 cycles
 E2 =    -0.1600460521D+01 EUMP2 =    -0.49452758360360D+03

 The electronic state is 1-A.
 Alpha  occ. eigenvalues --  -20.54423 -20.52673 -15.60630 -15.58618 -11.37145
 Alpha  occ. eigenvalues --  -11.35814 -11.29248 -11.27658 -11.24164 -11.24112
 Alpha  occ. eigenvalues --   -1.39899  -1.37904  -1.24451  -1.23322  -1.05497
 Alpha  occ. eigenvalues --   -0.99044  -0.96198  -0.88445  -0.80443  -0.78119
 Alpha  occ. eigenvalues --   -0.73154  -0.67467  -0.65882  -0.64620  -0.63153
 Alpha  occ. eigenvalues --   -0.61692  -0.59804  -0.58850  -0.56910  -0.56454
 Alpha  occ. eigenvalues --   -0.55566  -0.54232  -0.53190  -0.52300  -0.49146
 Alpha  occ. eigenvalues --   -0.43683  -0.42126  -0.40762  -0.39226
 Alpha virt. eigenvalues --    0.02810   0.03997   0.04345   0.04440   0.05705
 Alpha virt. eigenvalues --    0.06108   0.06400   0.06926   0.07315   0.07932
 Alpha virt. eigenvalues --    0.09076   0.09773   0.10984   0.11925   0.12927

 Mulliken atomic charges:
              1
     1  H    0.036497
     2  C    0.408526
     3  H    0.051569
     4  H   -0.143815
     5  C    0.498498
     6  O   -0.855733
     7  N   -0.389893
     8  H   -0.031136
     9  C   -0.071184
    10  H   -0.032376
    11  C    0.775630
    12  H   -0.031816
    13  H   -0.101723
    14  H   -0.078619
    15  C    1.089997
    16  O   -0.860391
    17  N   -0.507169
    18  H   -0.108892
    19  C    0.697716
    20  H   -0.141947
    21  H   -0.084091
    22  H   -0.119649
 Sum of Mulliken atomic charges =   0.00000

 Dipole moment (field-independent basis, Debye):
    X=             -2.9169    Y=              0.6835    Z=             -0.7760  Tot=              3.0948
 Quadrupole moment (field-independent basis, Debye-Ang):
   XX=            -55.0027   YY=            -63.3523   ZZ=            -63.6515
   XY=            -11.5018   XZ=             -9.1431   YZ=             -2.3549

 Normal termination of Gaussian 09 at Mon Feb 13 05:35:20 2017.
