 Gaussian 09, Revision A.02,
 Gaussian 09:  EM64L-G09RevA.02 11-Jun-2009

 -------------------
 #SP MP2/aug-cc-pVDZ
 -------------------

 -------------------------------
 Single Point calculation at MP2
 -------------------------------
 Symbolic Z-matrix:
 Charge =  0 Multiplicity = 1

                         Standard orientation:
 ---------------------------------------------------------------------
 Center     Atomic      Atomic             Coordinates (Angstroms)
 Number     Number       Type             X           Y           Z
 ---------------------------------------------------------------------
      1          1           0       -4.259990   -0.717914    0.544400
      2          6           0       -3.251890   -1.136212    0.505000
      3          1           0       -3.270789   -1.994913   -0.176600
      4          1           0       -2.963189   -1.490212    1.499600
      5          6           0       -2.302491   -0.084511   -0.046800
      6          8           0       -2.639392    0.724888   -0.900900
      7          7           0       -1.035491   -0.096410    0.495800
      8          1           0       -0.751990   -0.970910    0.922900
      9          6           0        0.039908    0.612991   -0.200500
     10          1           0       -0.273592    0.723091   -1.247500
     11          6           0        0.233907    2.019191    0.380300
     12          1           0        0.558507    1.985592    1.426500
     13          1           0        0.954306    2.604292   -0.205600
     14          1           0       -0.722394    2.546590    0.336100
     15          6           0        1.268209   -0.319208   -0.212700
     16          8           0        1.132011   -1.515708   -0.453500
     17          7           0        2.466909    0.243094    0.103500
     18          1           0        2.506208    1.233694    0.288500
     19          6           0        3.711210   -0.507305    0.079900
     20          1           0        3.458411   -1.554505   -0.089400
     21          1           0        4.371709   -0.163304   -0.725300
     22          1           0        4.238809   -0.411404    1.035300
 ---------------------------------------------------------------------

 SCF Done:  E(RHF) =  -492.921819453     A.U. after   14 cycles
 E2 =    -0.1601760691D+01 EUMP2 =    -0.49452358014405D+03

 The electronic state is 1-A.
 Alpha  occ. eigenvalues --  -20.53754 -20.53186 -15.60662 -15.59122 -11.36947
 Alpha  occ. eigenvalues --  -11.36012 -11.29260 -11.27548 -11.24372 -11.24138
 Alpha  occ. eigenvalues --   -1.39463  -1.38295  -1.24336  -1.23397  -1.05584
 Alpha  occ. eigenvalues --   -0.99211  -0.96046  -0.88872  -0.79960  -0.78300
 Alpha  occ. eigenvalues --   -0.73156  -0.67318  -0.65811  -0.65411  -0.62629
 Alpha  occ. eigenvalues --   -0.61834  -0.59232  -0.58973  -0.56834  -0.56253
 Alpha  occ. eigenvalues --   -0.55388  -0.54496  -0.53795  -0.52593  -0.49137
 Alpha  occ. eigenvalues --   -0.43106  -0.42368  -0.40344  -0.39953
 Alpha virt. eigenvalues --    0.02759   0.03848   0.04364   0.04508   0.05859
 Alpha virt. eigenvalues --    0.05981   0.06170   0.06986   0.07278   0.07835
 Alpha virt. eigenvalues --    0.08958   0.09566   0.11287   0.12050   0.12428

 Mulliken atomic charges:
              1
     1  H   -0.011763
     2  C    0.348980
     3  H    0.075973
     4  H   -0.071404
     5  C    0.508731
     6  O   -0.826374
     7  N   -0.485289
     8  H   -0.016492
     9  C   -0.101933
    10  H    0.002765
    11  C    0.839516
    12  H    0.010881
    13  H    0.017548
    14  H   -0.175591
    15  C    1.074881
    16  O   -0.897430
    17  N   -0.538392
    18  H   -0.140904
    19  C    0.735086
    20  H   -0.147714
    21  H   -0.081232
    22  H   -0.119843
 Sum of Mulliken atomic charges =   0.00000

 Dipole moment (field-independent basis, Debye):
    X=              3.0765    Y=              0.9470    Z=              2.8256  Tot=              4.2832
 Quadrupole moment (field-independent basis, Debye-Ang):
   XX=            -55.6083   YY=            -63.2328   ZZ=            -63.3275
   XY=             11.3892   XZ=             -4.8725   YZ=             -1.0582

 Normal termination of Gaussian 09 at Mon Feb 13 07:12:57 2017.
