 Gaussian 09, Revision A.02,
 Gaussian 09:  EM64L-G09RevA.02 11-Jun-2009

 -------------------
 #SP MP2/aug-cc-pVDZ
 -------------------

 -------------------------------
 Single Point calculation at MP2
 -------------------------------
 Symbolic Z-matrix:
 Charge =  0 Multiplicity = 1

                         Standard orientation:
 ---------------------------------------------------------------------
 Center     Atomic      Atomic             Coordinates (Angstroms)
 Number     Number       Type             X           Y           Z
 ---------------------------------------------------------------------
      1          1           0        3.491093   -1.865906   -0.644505
      2          6           0        3.133097   -0.873105   -0.929005
      3          1           0        2.763697   -0.903503   -1.958905
      4          1           0        3.988999   -0.190608   -0.883205
      5          6           0        2.088999   -0.421401    0.080795
      6          8           0        2.253798   -0.548102    1.288195
      7          7           0        0.948400    0.121103   -0.456605
      8          1           0        0.918801    0.297803   -1.452405
      9          6           0       -0.053297    0.801907    0.365895
     10          1           0        0.156402    0.476206    1.388995
     11          6           0        0.053608    2.323706    0.270795
     12          1           0       -0.153591    2.664407   -0.748005
     13          1           0       -0.679090    2.800309    0.929595
     14          1           0        1.056109    2.646803    0.567295
     15          6           0       -1.453699    0.312312   -0.061105
     16          8           0       -2.205097    0.994614   -0.748305
     17          7           0       -1.758503   -0.943187    0.375895
     18          1           0       -1.050105   -1.452490    0.886295
     19          6           0       -2.984606   -1.628583    0.010195
     20          1           0       -3.621803   -0.905881   -0.501305
     21          1           0       -2.790809   -2.472584   -0.664005
     22          1           0       -3.503207   -2.001081    0.900595
 ---------------------------------------------------------------------

 SCF Done:  E(RHF) =  -492.925100883     A.U. after   14 cycles
 E2 =    -0.1600502543D+01 EUMP2 =    -0.49452560342665D+03

 The electronic state is 1-A.
 Alpha  occ. eigenvalues --  -20.53816 -20.53556 -15.60623 -15.59630 -11.37235
 Alpha  occ. eigenvalues --  -11.36164 -11.29179 -11.26948 -11.25486 -11.22987
 Alpha  occ. eigenvalues --   -1.39367  -1.38655  -1.24957  -1.23027  -1.05646
 Alpha  occ. eigenvalues --   -0.99626  -0.96310  -0.87517  -0.80382  -0.79005
 Alpha  occ. eigenvalues --   -0.73111  -0.67960  -0.65752  -0.65208  -0.62382
 Alpha  occ. eigenvalues --   -0.61875  -0.60327  -0.59107  -0.57872  -0.56127
 Alpha  occ. eigenvalues --   -0.54786  -0.53315  -0.52780  -0.51810  -0.50919
 Alpha  occ. eigenvalues --   -0.43838  -0.43276  -0.40106  -0.38966
 Alpha virt. eigenvalues --    0.02770   0.03743   0.04360   0.04755   0.05664
 Alpha virt. eigenvalues --    0.05860   0.06210   0.06771   0.07406   0.07979
 Alpha virt. eigenvalues --    0.08982   0.09251   0.11233   0.12039   0.12176

 Mulliken atomic charges:
              1
     1  H    0.030591
     2  C    0.362152
     3  H   -0.123292
     4  H    0.053599
     5  C    0.588118
     6  O   -0.856428
     7  N   -0.368501
     8  H   -0.122265
     9  C   -0.307591
    10  H   -0.188716
    11  C    0.791154
    12  H   -0.008752
    13  H   -0.026634
    14  H   -0.029398
    15  C    1.274235
    16  O   -0.833580
    17  N   -0.531198
    18  H   -0.092405
    19  C    0.733607
    20  H   -0.146933
    21  H   -0.089119
    22  H   -0.108645
 Sum of Mulliken atomic charges =   0.00000

 Dipole moment (field-independent basis, Debye):
    X=              1.0001    Y=             -1.8042    Z=             -1.7149  Tot=              2.6826
 Quadrupole moment (field-independent basis, Debye-Ang):
   XX=            -65.0727   YY=            -59.0700   ZZ=            -63.5356
   XY=              7.8414   XZ=            -13.1032   YZ=              3.1390

 Normal termination of Gaussian 09 at Mon Feb 13 07:11:54 2017.
