 Gaussian 09, Revision A.02,
 Gaussian 09:  EM64L-G09RevA.02 11-Jun-2009

 -------------------
 #SP MP2/aug-cc-pVDZ
 -------------------

 -------------------------------
 Single Point calculation at MP2
 -------------------------------
 Symbolic Z-matrix:
 Charge =  0 Multiplicity = 1

                         Standard orientation:
 ---------------------------------------------------------------------
 Center     Atomic      Atomic             Coordinates (Angstroms)
 Number     Number       Type             X           Y           Z
 ---------------------------------------------------------------------
      1          1           0        3.753079   -1.715107    0.302292
      2          6           0        3.178881   -1.168605   -0.449408
      3          1           0        2.720379   -1.879903   -1.143908
      4          1           0        3.881284   -0.538607   -1.007608
      5          6           0        2.167385   -0.280001    0.259392
      6          8           0        2.433787    0.318498    1.288892
      7          7           0        0.920285   -0.219596   -0.342908
      8          1           0        0.896584   -0.512396   -1.313908
      9          6           0       -0.037911    0.827508    0.022192
     10          1           0        0.301391    1.205007    0.990192
     11          6           0       -0.054406    1.983608   -0.988808
     12          1           0       -0.328208    1.628109   -1.990508
     13          1           0       -0.791403    2.728811   -0.679408
     14          1           0        0.931695    2.455804   -1.041708
     15          6           0       -1.470413    0.306813    0.236892
     16          8           0       -2.327410    1.046117    0.704792
     17          7           0       -1.732118   -0.948886   -0.236408
     18          1           0       -0.929720   -1.553689   -0.353208
     19          6           0       -3.031620   -1.569281   -0.031408
     20          1           0       -3.785617   -0.780878   -0.036708
     21          1           0       -3.235423   -2.275980   -0.841408
     22          1           0       -3.093722   -2.098980    0.928492
 ---------------------------------------------------------------------

 SCF Done:  E(RHF) =  -492.922935738     A.U. after   14 cycles
 E2 =    -0.1601251793D+01 EUMP2 =    -0.49452418753018D+03

 The electronic state is 1-A.
 Alpha  occ. eigenvalues --  -20.54472 -20.53104 -15.60899 -15.59744 -11.37588
 Alpha  occ. eigenvalues --  -11.35946 -11.29086 -11.26977 -11.25879 -11.23941
 Alpha  occ. eigenvalues --   -1.39879  -1.38483  -1.25476  -1.22755  -1.05833
 Alpha  occ. eigenvalues --   -1.00029  -0.96084  -0.88024  -0.80581  -0.78525
 Alpha  occ. eigenvalues --   -0.73193  -0.68402  -0.66441  -0.63412  -0.62991
 Alpha  occ. eigenvalues --   -0.62539  -0.59608  -0.59170  -0.58541  -0.56839
 Alpha  occ. eigenvalues --   -0.54902  -0.54574  -0.52867  -0.52151  -0.49848
 Alpha  occ. eigenvalues --   -0.44294  -0.43707  -0.39914  -0.39706
 Alpha virt. eigenvalues --    0.02132   0.03662   0.04074   0.04714   0.05576
 Alpha virt. eigenvalues --    0.05917   0.06362   0.06592   0.07471   0.08143
 Alpha virt. eigenvalues --    0.08243   0.09191   0.11571   0.12278   0.12439

 Mulliken atomic charges:
              1
     1  H    0.017565
     2  C    0.345464
     3  H   -0.121236
     4  H    0.049693
     5  C    0.632595
     6  O   -0.826866
     7  N   -0.276560
     8  H   -0.075980
     9  C   -0.358806
    10  H    0.001353
    11  C    0.795883
    12  H   -0.056386
    13  H   -0.033880
    14  H   -0.077274
    15  C    1.109198
    16  O   -0.881723
    17  N   -0.582665
    18  H   -0.073493
    19  C    0.753836
    20  H   -0.120949
    21  H   -0.157211
    22  H   -0.062558
 Sum of Mulliken atomic charges =   0.00000

 Dipole moment (field-independent basis, Debye):
    X=              1.3875    Y=             -3.8925    Z=             -4.6367  Tot=              6.2109
 Quadrupole moment (field-independent basis, Debye-Ang):
   XX=            -66.9096   YY=            -58.1190   ZZ=            -64.6060
   XY=              3.0711   XZ=             -4.9241   YZ=             -2.2444

 Normal termination of Gaussian 09 at Mon Feb 13 07:46:34 2017.
