 Gaussian 09, Revision A.02,
 Gaussian 09:  EM64L-G09RevA.02 11-Jun-2009

 ----------------------------------------------------------------------
 # b3lyp/6-31G* Opt=(ModRedundant, maxcycles=1000, calcfc) geom=nocrowd
 ----------------------------------------------------------------------

 ------------------
 Phi Psi fixed scan
 ------------------
 Symbolic Z-matrix:
 Charge =  0 Multiplicity = 1

 SCF Done:  E(RB3LYP) =  -494.997784281     A.U. after   24 cycles

  Exact polarizability:   0.000   0.000   0.000   0.000   0.000   0.000
 Approx polarizability: 545.101-118.767 192.499  -3.988  -6.475  86.284

 SCF Done:  E(RB3LYP) =  -495.176084845     A.U. after   20 cycles
 SCF Done:  E(RB3LYP) =  -495.374123944     A.U. after   19 cycles
 SCF Done:  E(RB3LYP) =  -495.477189435     A.U. after   20 cycles
 SCF Done:  E(RB3LYP) =  -495.529215051     A.U. after   17 cycles
 SCF Done:  E(RB3LYP) =  -495.613439769     A.U. after   17 cycles
 SCF Done:  E(RB3LYP) =  -495.705098917     A.U. after   17 cycles
 SCF Done:  E(RB3LYP) =  -495.727146980     A.U. after   15 cycles
 SCF Done:  E(RB3LYP) =  -495.701706987     A.U. after   17 cycles
 SCF Done:  E(RB3LYP) =  -495.739857991     A.U. after   15 cycles
 SCF Done:  E(RB3LYP) =  -495.840818163     A.U. after   10 cycles
 SCF Done:  E(RB3LYP) =  -495.840819935     A.U. after    9 cycles
 SCF Done:  E(RB3LYP) =  -495.840821685     A.U. after    8 cycles
 SCF Done:  E(RB3LYP) =  -495.840825890     A.U. after   10 cycles
 SCF Done:  E(RB3LYP) =  -495.840829012     A.U. after    8 cycles
 SCF Done:  E(RB3LYP) =  -495.840834517     A.U. after   10 cycles
 SCF Done:  E(RB3LYP) =  -495.840838106     A.U. after   10 cycles
 SCF Done:  E(RB3LYP) =  -495.840838860     A.U. after    9 cycles
 SCF Done:  E(RB3LYP) =  -495.840838865     A.U. after    7 cycles
 SCF Done:  E(RB3LYP) =  -495.840838838     A.U. after    7 cycles
 Optimization completed.
    -- Stationary point found.

                         Standard orientation:
 ---------------------------------------------------------------------
 Center     Atomic      Atomic             Coordinates (Angstroms)
 Number     Number       Type             X           Y           Z
 ---------------------------------------------------------------------
      1          1           0       -3.753113   -0.730617    1.005107
      2          6           0       -3.399694   -0.430024    0.014099
      3          1           0       -3.806464    0.557813   -0.222518
      4          1           0       -3.789933   -1.157007   -0.704324
      5          6           0       -1.877180   -0.510327    0.001937
      6          8           0       -1.335200   -1.590688    0.245351
      7          7           0       -1.253893    0.663230   -0.289910
      8          1           0       -1.898651    1.424503   -0.455156
      9          6           0        0.144394    1.163595   -0.386847
     10          1           0        0.277734    1.464917   -1.435661
     11          6           0        0.240103    2.427828    0.483116
     12          1           0        0.082686    2.179615    1.538161
     13          1           0        1.230419    2.869111    0.369022
     14          1           0       -0.515946    3.164708    0.184746
     15          6           0        1.400488    0.282122   -0.125772
     16          8           0        2.475060    0.880877   -0.071625
     17          7           0        1.298415   -1.056947   -0.087724
     18          1           0        0.368815   -1.474662    0.012392
     19          6           0        2.488924   -1.869166    0.101009
     20          1           0        3.256240   -1.587914   -0.625672
     21          1           0        2.915468   -1.741640    1.103945
     22          1           0        2.220006   -2.918482   -0.041670
 ---------------------------------------------------------------------

 The electronic state is 1-A.
 Alpha  occ. eigenvalues --  -19.12841 -19.09716 -14.38087 -14.33686 -10.30867
 Alpha  occ. eigenvalues --  -10.27713 -10.24815 -10.20451 -10.20421 -10.18548
 Alpha  occ. eigenvalues --   -1.04615  -1.01837  -0.93902  -0.90139  -0.78750
 Alpha  occ. eigenvalues --   -0.73591  -0.70032  -0.64497  -0.60499  -0.56255
 Alpha  occ. eigenvalues --   -0.52269  -0.50752  -0.48060  -0.45931  -0.44905
 Alpha  occ. eigenvalues --   -0.43418  -0.42257  -0.41778  -0.41158  -0.40226
 Alpha  occ. eigenvalues --   -0.38478  -0.37664  -0.37141  -0.36259  -0.34486
 Alpha  occ. eigenvalues --   -0.26935  -0.26724  -0.24070  -0.23652
 Alpha virt. eigenvalues --    0.01435   0.03324   0.05627   0.10934   0.12490
 Alpha virt. eigenvalues --    0.13060   0.13716   0.15044   0.15505   0.16195
 Alpha virt. eigenvalues --    0.16599   0.17199   0.18613   0.19339   0.20244

 Mulliken atomic charges:
              1
     1  H    0.192388
     2  C   -0.531712
     3  H    0.146250
     4  H    0.191775
     5  C    0.606473
     6  O   -0.528027
     7  N   -0.609234
     8  H    0.329325
     9  C   -0.041936
    10  H    0.180569
    11  C   -0.451504
    12  H    0.159678
    13  H    0.199264
    14  H    0.127712
    15  C    0.610355
    16  O   -0.540146
    17  N   -0.626678
    18  H    0.391801
    19  C   -0.295782
    20  H    0.175329
    21  H    0.162990
    22  H    0.151111
 Sum of Mulliken atomic charges =   0.00000

 Dipole moment (field-independent basis, Debye):
    X=             -4.0183    Y=              1.0779    Z=             -0.6297  Tot=              4.2077
 Quadrupole moment (field-independent basis, Debye-Ang):
   XX=            -59.9541   YY=            -59.2518   ZZ=            -59.3882
   XY=             -9.6052   XZ=              1.3346   YZ=             -0.3809

 Normal termination of Gaussian 09 at Fri Feb 10 18:57:34 2017.
