 Gaussian 09, Revision A.02,
 Gaussian 09:  EM64L-G09RevA.02 11-Jun-2009

 ----------------------------------------------------------------------
 # b3lyp/6-31G* Opt=(ModRedundant, maxcycles=1000, calcfc) geom=nocrowd
 ----------------------------------------------------------------------

 ------------------
 Phi Psi fixed scan
 ------------------
 Symbolic Z-matrix:
 Charge =  0 Multiplicity = 1

 SCF Done:  E(RB3LYP) =  -495.573108225     A.U. after   21 cycles

  Exact polarizability:   0.000   0.000   0.000   0.000   0.000   0.000
 Approx polarizability: 221.093  20.747 149.912  -0.499 -19.627  90.233

 SCF Done:  E(RB3LYP) =  -495.646387715     A.U. after   17 cycles
 SCF Done:  E(RB3LYP) =  -495.721408483     A.U. after   15 cycles
 SCF Done:  E(RB3LYP) =  -495.785152552     A.U. after   14 cycles
 SCF Done:  E(RB3LYP) =  -495.795699526     A.U. after   16 cycles
 SCF Done:  E(RB3LYP) =  -495.812480051     A.U. after   15 cycles
 SCF Done:  E(RB3LYP) =  -495.816367901     A.U. after   15 cycles
 SCF Done:  E(RB3LYP) =  -495.802486217     A.U. after   15 cycles
 SCF Done:  E(RB3LYP) =  -495.816731252     A.U. after   13 cycles
 SCF Done:  E(RB3LYP) =  -495.817299122     A.U. after   13 cycles
 SCF Done:  E(RB3LYP) =  -495.821760271     A.U. after   12 cycles
 SCF Done:  E(RB3LYP) =  -495.821991580     A.U. after   12 cycles
 SCF Done:  E(RB3LYP) =  -495.822031051     A.U. after   11 cycles
 SCF Done:  E(RB3LYP) =  -495.822064764     A.U. after   12 cycles
 SCF Done:  E(RB3LYP) =  -495.822079131     A.U. after   11 cycles
 SCF Done:  E(RB3LYP) =  -495.822082053     A.U. after    9 cycles
 SCF Done:  E(RB3LYP) =  -495.822084360     A.U. after   10 cycles
 SCF Done:  E(RB3LYP) =  -495.822084835     A.U. after    8 cycles
 SCF Done:  E(RB3LYP) =  -495.822084881     A.U. after    7 cycles
 SCF Done:  E(RB3LYP) =  -495.822084863     A.U. after    6 cycles
 Optimization completed.
    -- Stationary point found.

                         Standard orientation:
 ---------------------------------------------------------------------
 Center     Atomic      Atomic             Coordinates (Angstroms)
 Number     Number       Type             X           Y           Z
 ---------------------------------------------------------------------
      1          1           0       -3.937897   -1.140936    0.395106
      2          6           0       -3.331554   -0.237867    0.476930
      3          1           0       -3.169439   -0.017828    1.539350
      4          1           0       -3.878094    0.605546    0.037754
      5          6           0       -1.991580   -0.484651   -0.211028
      6          8           0       -1.611917   -1.597628   -0.512641
      7          7           0       -1.313555    0.692853   -0.540184
      8          1           0       -1.835713    1.509939   -0.245620
      9          6           0        0.125230    0.986757   -0.491773
     10          1           0        0.453975    1.272595   -1.503537
     11          6           0        0.350898    2.193468    0.441262
     12          1           0        0.092860    1.923338    1.470673
     13          1           0        1.394934    2.516500    0.419074
     14          1           0       -0.273283    3.040770    0.131089
     15          6           0        1.043036   -0.159185   -0.009177
     16          8           0        0.698323   -1.022722    0.777850
     17          7           0        2.369180    0.075243   -0.302464
     18          1           0        2.577075    0.644464   -1.112736
     19          6           0        3.393032   -0.870905    0.116426
     20          1           0        3.127743   -1.241864    1.107326
     21          1           0        3.473508   -1.731399   -0.560940
     22          1           0        4.359328   -0.360699    0.163487
 ---------------------------------------------------------------------

 The electronic state is 1-A.
 Alpha  occ. eigenvalues --  -19.11087 -19.09814 -14.36128 -14.34991 -10.28576
 Alpha  occ. eigenvalues --  -10.27718 -10.24561 -10.21698 -10.19976 -10.18342
 Alpha  occ. eigenvalues --   -1.03412  -1.01469  -0.91983  -0.91415  -0.78226
 Alpha  occ. eigenvalues --   -0.72291  -0.70685  -0.64615  -0.58994  -0.56808
 Alpha  occ. eigenvalues --   -0.50221  -0.49842  -0.47360  -0.45729  -0.44092
 Alpha  occ. eigenvalues --   -0.43466  -0.42663  -0.41497  -0.40175  -0.39241
 Alpha  occ. eigenvalues --   -0.38815  -0.38179  -0.37935  -0.36101  -0.33549
 Alpha  occ. eigenvalues --   -0.26451  -0.24917  -0.24280  -0.22564
 Alpha virt. eigenvalues --    0.02007   0.03275   0.06092   0.08150   0.12258
 Alpha virt. eigenvalues --    0.12488   0.13144   0.14708   0.15140   0.15976
 Alpha virt. eigenvalues --    0.16379   0.17024   0.17529   0.18506   0.19497

 Mulliken atomic charges:
              1
     1  H    0.185772
     2  C   -0.550733
     3  H    0.174737
     4  H    0.151875
     5  C    0.599498
     6  O   -0.465731
     7  N   -0.610909
     8  H    0.313213
     9  C   -0.006269
    10  H    0.137363
    11  C   -0.470506
    12  H    0.175036
    13  H    0.162845
    14  H    0.149499
    15  C    0.601264
    16  O   -0.485641
    17  N   -0.589444
    18  H    0.319660
    19  C   -0.303205
    20  H    0.197222
    21  H    0.164025
    22  H    0.150429
 Sum of Mulliken atomic charges =   0.00000

 Dipole moment (field-independent basis, Debye):
    X=              1.7425    Y=              5.0196    Z=             -0.6179  Tot=              5.3492
 Quadrupole moment (field-independent basis, Debye-Ang):
   XX=            -47.0384   YY=            -62.9221   ZZ=            -60.3913
   XY=             -4.4242   XZ=             -5.4940   YZ=             -0.7969

 Normal termination of Gaussian 09 at Fri Feb 10 18:30:46 2017.
