 Gaussian 09, Revision A.02,
 Gaussian 09:  EM64L-G09RevA.02 11-Jun-2009

 ----------------------------------------------------------------------
 # b3lyp/6-31G* Opt=(ModRedundant, maxcycles=1000, calcfc) geom=nocrowd
 ----------------------------------------------------------------------

 ------------------
 Phi Psi fixed scan
 ------------------
 Symbolic Z-matrix:
 Charge =  0 Multiplicity = 1

 SCF Done:  E(RB3LYP) =  -495.815265253     A.U. after   14 cycles

  Exact polarizability:   0.000   0.000   0.000   0.000   0.000   0.000
 Approx polarizability: 109.575  12.526 119.654   1.569  -2.026 111.357

 SCF Done:  E(RB3LYP) =  -495.822084693     A.U. after   12 cycles
 SCF Done:  E(RB3LYP) =  -495.831362534     A.U. after   12 cycles
 SCF Done:  E(RB3LYP) =  -495.835618577     A.U. after   13 cycles
 SCF Done:  E(RB3LYP) =  -495.836024131     A.U. after   12 cycles
 SCF Done:  E(RB3LYP) =  -495.811660357     A.U. after   14 cycles
 SCF Done:  E(RB3LYP) =  -495.836434365     A.U. after   13 cycles
 SCF Done:  E(RB3LYP) =  -495.836816855     A.U. after   11 cycles
 SCF Done:  E(RB3LYP) =  -495.836641344     A.U. after   12 cycles
 SCF Done:  E(RB3LYP) =  -495.837116378     A.U. after   11 cycles
 SCF Done:  E(RB3LYP) =  -495.837141877     A.U. after   10 cycles
 SCF Done:  E(RB3LYP) =  -495.837222783     A.U. after   11 cycles
 SCF Done:  E(RB3LYP) =  -495.837312235     A.U. after   11 cycles
 SCF Done:  E(RB3LYP) =  -495.837362610     A.U. after   11 cycles
 SCF Done:  E(RB3LYP) =  -495.837373348     A.U. after   10 cycles
 SCF Done:  E(RB3LYP) =  -495.837374199     A.U. after    8 cycles
 SCF Done:  E(RB3LYP) =  -495.837374331     A.U. after    7 cycles
 SCF Done:  E(RB3LYP) =  -495.837374365     A.U. after    7 cycles
 Optimization completed.
    -- Stationary point found.

                         Standard orientation:
 ---------------------------------------------------------------------
 Center     Atomic      Atomic             Coordinates (Angstroms)
 Number     Number       Type             X           Y           Z
 ---------------------------------------------------------------------
      1          1           0        3.451286   -1.516850   -0.865935
      2          6           0        3.220952   -0.771164   -0.101488
      3          1           0        3.800642    0.137054   -0.296026
      4          1           0        3.531639   -1.181719    0.865917
      5          6           0        1.714027   -0.546902   -0.078288
      6          8           0        0.925819   -1.476260   -0.197121
      7          7           0        1.331907    0.760472    0.072382
      8          1           0        2.072265    1.435141    0.212523
      9          6           0       -0.016293    1.270830    0.368722
     10          1           0        0.013088    1.708013    1.373172
     11          6           0       -0.398488    2.367063   -0.635996
     12          1           0       -0.413793    1.988240   -1.663114
     13          1           0       -1.386124    2.776588   -0.402066
     14          1           0        0.327540    3.188368   -0.598246
     15          6           0       -1.082086    0.154206    0.515817
     16          8           0       -1.402242   -0.233677    1.629031
     17          7           0       -1.740838   -0.217977   -0.626430
     18          1           0       -1.212375   -0.112052   -1.483066
     19          6           0       -2.606622   -1.389871   -0.576026
     20          1           0       -3.282286   -1.290183    0.274621
     21          1           0       -3.190789   -1.442593   -1.498730
     22          1           0       -2.026134   -2.312955   -0.452443
 ---------------------------------------------------------------------

 The electronic state is 1-A.
 Alpha  occ. eigenvalues --  -19.11189 -19.10296 -14.36805 -14.34694 -10.29256
 Alpha  occ. eigenvalues --  -10.27821 -10.23956 -10.20290 -10.19573 -10.19427
 Alpha  occ. eigenvalues --   -1.03458  -1.02023  -0.92734  -0.90687  -0.78381
 Alpha  occ. eigenvalues --   -0.73184  -0.69411  -0.64820  -0.59671  -0.56294
 Alpha  occ. eigenvalues --   -0.52050  -0.49724  -0.47290  -0.45278  -0.43926
 Alpha  occ. eigenvalues --   -0.43631  -0.42261  -0.41459  -0.40262  -0.39957
 Alpha  occ. eigenvalues --   -0.38743  -0.37564  -0.37343  -0.35877  -0.34930
 Alpha  occ. eigenvalues --   -0.26010  -0.25316  -0.24671  -0.23321
 Alpha virt. eigenvalues --    0.02114   0.03041   0.06257   0.08900   0.11509
 Alpha virt. eigenvalues --    0.13094   0.13744   0.14938   0.15615   0.15997
 Alpha virt. eigenvalues --    0.16909   0.17824   0.18129   0.19080   0.19819

 Mulliken atomic charges:
              1
     1  H    0.187102
     2  C   -0.539420
     3  H    0.144494
     4  H    0.189730
     5  C    0.599555
     6  O   -0.507700
     7  N   -0.605253
     8  H    0.321428
     9  C   -0.033059
    10  H    0.172592
    11  C   -0.445348
    12  H    0.148265
    13  H    0.169663
    14  H    0.141699
    15  C    0.608760
    16  O   -0.509392
    17  N   -0.567880
    18  H    0.325351
    19  C   -0.307392
    20  H    0.186003
    21  H    0.143447
    22  H    0.177357
 Sum of Mulliken atomic charges =   0.00000

 Dipole moment (field-independent basis, Debye):
    X=              2.5005    Y=              3.0227    Z=             -2.6235  Tot=              4.7193
 Quadrupole moment (field-independent basis, Debye-Ang):
   XX=            -51.9174   YY=            -58.8669   ZZ=            -62.7971
   XY=              3.6241   XZ=              5.7069   YZ=              2.1410

 Normal termination of Gaussian 09 at Fri Feb 10 18:10:46 2017.
