 Gaussian 09, Revision A.02,
 Gaussian 09:  EM64L-G09RevA.02 11-Jun-2009

 ----------------------------------------------------------------------
 # b3lyp/6-31G* Opt=(ModRedundant, maxcycles=1000, calcfc) geom=nocrowd
 ----------------------------------------------------------------------

 ------------------
 Phi Psi fixed scan
 ------------------
 Symbolic Z-matrix:
 Charge =  0 Multiplicity = 1

 SCF Done:  E(RB3LYP) =  -495.741618513     A.U. after   17 cycles

  Exact polarizability:   0.000   0.000   0.000   0.000   0.000   0.000
 Approx polarizability: 130.096  -0.576 131.848   8.694  -1.660  90.236

 SCF Done:  E(RB3LYP) =  -495.771067189     A.U. after   17 cycles
 SCF Done:  E(RB3LYP) =  -495.800169544     A.U. after   15 cycles
 SCF Done:  E(RB3LYP) =  -495.809053913     A.U. after   15 cycles
 SCF Done:  E(RB3LYP) =  -495.811189451     A.U. after   14 cycles
 SCF Done:  E(RB3LYP) =  -495.810497335     A.U. after   15 cycles
 SCF Done:  E(RB3LYP) =  -495.811899114     A.U. after   14 cycles
 SCF Done:  E(RB3LYP) =  -495.812712772     A.U. after   13 cycles
 SCF Done:  E(RB3LYP) =  -495.757204813     A.U. after   16 cycles
 SCF Done:  E(RB3LYP) =  -495.812766833     A.U. after   15 cycles
 SCF Done:  E(RB3LYP) =  -495.828937167     A.U. after   12 cycles
 SCF Done:  E(RB3LYP) =  -495.829201048     A.U. after   12 cycles
 SCF Done:  E(RB3LYP) =  -495.829284648     A.U. after   12 cycles
 SCF Done:  E(RB3LYP) =  -495.829310736     A.U. after   11 cycles
 SCF Done:  E(RB3LYP) =  -495.829325949     A.U. after   11 cycles
 SCF Done:  E(RB3LYP) =  -495.829342630     A.U. after   11 cycles
 SCF Done:  E(RB3LYP) =  -495.829346629     A.U. after    9 cycles
 SCF Done:  E(RB3LYP) =  -495.829347625     A.U. after   10 cycles
 SCF Done:  E(RB3LYP) =  -495.829348182     A.U. after    8 cycles
 SCF Done:  E(RB3LYP) =  -495.829348227     A.U. after    7 cycles
 Optimization completed.
    -- Stationary point found.

                         Standard orientation:
 ---------------------------------------------------------------------
 Center     Atomic      Atomic             Coordinates (Angstroms)
 Number     Number       Type             X           Y           Z
 ---------------------------------------------------------------------
      1          1           0        3.734170   -1.391171   -0.540317
      2          6           0        3.304858   -0.624524    0.106429
      3          1           0        3.907908    0.288341    0.038772
      4          1           0        3.343594   -0.981407    1.142975
      5          6           0        1.854346   -0.396478   -0.296488
      6          8           0        1.220196   -1.204208   -0.951424
      7          7           0        1.344303    0.839996    0.078741
      8          1           0        1.990130    1.378795    0.644164
      9          6           0       -0.053293    1.120300    0.454166
     10          1           0       -0.057510    1.360974    1.525795
     11          6           0       -0.552771    2.350023   -0.318362
     12          1           0       -0.582818    2.151117   -1.395906
     13          1           0       -1.544581    2.664244    0.024465
     14          1           0        0.132877    3.190407   -0.165901
     15          6           0       -0.959999   -0.136073    0.395650
     16          8           0       -0.686002   -1.118186    1.069285
     17          7           0       -2.180097    0.025098   -0.202253
     18          1           0       -2.270225    0.738328   -0.911544
     19          6           0       -3.102516   -1.099329   -0.274257
     20          1           0       -4.105508   -0.725819   -0.497907
     21          1           0       -2.807193   -1.829431   -1.038574
     22          1           0       -3.107592   -1.604400    0.692837
 ---------------------------------------------------------------------

 The electronic state is 1-A.
 Alpha  occ. eigenvalues --  -19.10437 -19.10062 -14.35743 -14.35450 -10.28138
 Alpha  occ. eigenvalues --  -10.28054 -10.24193 -10.21203 -10.19349 -10.18682
 Alpha  occ. eigenvalues --   -1.03018  -1.01663  -0.91779  -0.91314  -0.78047
 Alpha  occ. eigenvalues --   -0.72569  -0.69975  -0.64835  -0.58705  -0.56859
 Alpha  occ. eigenvalues --   -0.51745  -0.49703  -0.46395  -0.44854  -0.44162
 Alpha  occ. eigenvalues --   -0.43643  -0.42384  -0.41449  -0.40055  -0.39172
 Alpha  occ. eigenvalues --   -0.38702  -0.38161  -0.37448  -0.36065  -0.33642
 Alpha  occ. eigenvalues --   -0.25594  -0.24990  -0.23977  -0.23521
 Alpha virt. eigenvalues --    0.02071   0.03005   0.07250   0.08689   0.11685
 Alpha virt. eigenvalues --    0.13120   0.14165   0.14928   0.15158   0.16179
 Alpha virt. eigenvalues --    0.16381   0.16916   0.18427   0.18995   0.19388

 Mulliken atomic charges:
              1
     1  H    0.186529
     2  C   -0.549747
     3  H    0.151813
     4  H    0.182512
     5  C    0.603191
     6  O   -0.482005
     7  N   -0.594077
     8  H    0.314628
     9  C   -0.030921
    10  H    0.169984
    11  C   -0.465015
    12  H    0.162828
    13  H    0.152613
    14  H    0.151866
    15  C    0.624714
    16  O   -0.516177
    17  N   -0.600409
    18  H    0.328894
    19  C   -0.302899
    20  H    0.146884
    21  H    0.171830
    22  H    0.192967
 Sum of Mulliken atomic charges =   0.00000

 Dipole moment (field-independent basis, Debye):
    X=             -0.3310    Y=              4.2726    Z=              0.1741  Tot=              4.2889
 Quadrupole moment (field-independent basis, Debye-Ang):
   XX=            -46.7332   YY=            -61.2476   ZZ=            -61.6856
   XY=              1.9982   XZ=              6.5846   YZ=              1.2588

 Normal termination of Gaussian 09 at Fri Feb 10 18:25:37 2017.
