 Gaussian 09, Revision A.02,
 Gaussian 09:  EM64L-G09RevA.02 11-Jun-2009

 ----------------------------------------------------------------------
 # b3lyp/6-31G* Opt=(ModRedundant, maxcycles=1000, calcfc) geom=nocrowd
 ----------------------------------------------------------------------

 ------------------
 Phi Psi fixed scan
 ------------------
 Symbolic Z-matrix:
 Charge =  0 Multiplicity = 1

 SCF Done:  E(RB3LYP) =  -495.817090415     A.U. after   14 cycles

  Exact polarizability:   0.000   0.000   0.000   0.000   0.000   0.000
 Approx polarizability: 111.825  -8.714 118.071  11.060  -0.069 110.270

 SCF Done:  E(RB3LYP) =  -495.825090859     A.U. after   13 cycles
 SCF Done:  E(RB3LYP) =  -495.833602824     A.U. after   13 cycles
 SCF Done:  E(RB3LYP) =  -495.837104294     A.U. after   13 cycles
 SCF Done:  E(RB3LYP) =  -495.785733031     A.U. after   16 cycles
 SCF Done:  E(RB3LYP) =  -495.809907508     A.U. after   13 cycles
 SCF Done:  E(RB3LYP) =  -495.823715601     A.U. after   16 cycles
 SCF Done:  E(RB3LYP) =  -495.837107233     A.U. after   15 cycles
 SCF Done:  E(RB3LYP) =  -495.837998086     A.U. after   12 cycles
 SCF Done:  E(RB3LYP) =  -495.836012423     A.U. after   16 cycles
 SCF Done:  E(RB3LYP) =  -495.838997426     A.U. after   11 cycles
 SCF Done:  E(RB3LYP) =  -495.838997945     A.U. after   10 cycles
 SCF Done:  E(RB3LYP) =  -495.838955163     A.U. after   11 cycles
 SCF Done:  E(RB3LYP) =  -495.839022730     A.U. after   11 cycles
 SCF Done:  E(RB3LYP) =  -495.839076849     A.U. after   12 cycles
 SCF Done:  E(RB3LYP) =  -495.839083434     A.U. after   11 cycles
 SCF Done:  E(RB3LYP) =  -495.839082605     A.U. after   10 cycles
 SCF Done:  E(RB3LYP) =  -495.839087955     A.U. after   11 cycles
 SCF Done:  E(RB3LYP) =  -495.839088084     A.U. after    8 cycles
 SCF Done:  E(RB3LYP) =  -495.839088223     A.U. after    7 cycles
 Optimization completed.
    -- Stationary point found.

                         Standard orientation:
 ---------------------------------------------------------------------
 Center     Atomic      Atomic             Coordinates (Angstroms)
 Number     Number       Type             X           Y           Z
 ---------------------------------------------------------------------
      1          1           0       -3.501932   -0.868590    1.153664
      2          6           0       -3.155227   -0.892650    0.115076
      3          1           0       -3.743710   -0.176452   -0.467310
      4          1           0       -3.337502   -1.900731   -0.266554
      5          6           0       -1.652559   -0.631558    0.098368
      6          8           0       -0.862837   -1.453187    0.548115
      7          7           0       -1.292147    0.574676   -0.438091
      8          1           0       -2.045437    1.163606   -0.766274
      9          6           0        0.038314    1.198953   -0.546258
     10          1           0        0.251955    1.313033   -1.619682
     11          6           0        0.018159    2.582951    0.104925
     12          1           0       -0.109562    2.489917    1.185722
     13          1           0        0.961411    3.104096   -0.080446
     14          1           0       -0.797250    3.190350   -0.306612
     15          6           0        1.202341    0.354114    0.039319
     16          8           0        1.799917    0.713181    1.042352
     17          7           0        1.587054   -0.713037   -0.726401
     18          1           0        0.859715   -1.099158   -1.314577
     19          6           0        2.497999   -1.696379   -0.154329
     20          1           0        3.329730   -1.170698    0.316487
     21          1           0        1.996508   -2.311628    0.603472
     22          1           0        2.880923   -2.337765   -0.952787
 ---------------------------------------------------------------------

 The electronic state is 1-A.
 Alpha  occ. eigenvalues --  -19.11272 -19.10779 -14.37103 -14.34632 -10.29504
 Alpha  occ. eigenvalues --  -10.28044 -10.24224 -10.20242 -10.19752 -10.18272
 Alpha  occ. eigenvalues --   -1.03564  -1.02401  -0.92989  -0.90753  -0.78225
 Alpha  occ. eigenvalues --   -0.73045  -0.70021  -0.63864  -0.59902  -0.56195
 Alpha  occ. eigenvalues --   -0.51806  -0.49886  -0.47544  -0.45917  -0.44586
 Alpha  occ. eigenvalues --   -0.43422  -0.41828  -0.41461  -0.40089  -0.39634
 Alpha  occ. eigenvalues --   -0.37969  -0.37625  -0.37045  -0.35756  -0.35278
 Alpha  occ. eigenvalues --   -0.26199  -0.25858  -0.24780  -0.23408
 Alpha virt. eigenvalues --    0.02151   0.02584   0.06400   0.09950   0.11320
 Alpha virt. eigenvalues --    0.13163   0.13524   0.15057   0.15475   0.16248
 Alpha virt. eigenvalues --    0.17186   0.17512   0.18215   0.19058   0.20282

 Mulliken atomic charges:
              1
     1  H    0.190710
     2  C   -0.535767
     3  H    0.142316
     4  H    0.185973
     5  C    0.593531
     6  O   -0.513376
     7  N   -0.606116
     8  H    0.322704
     9  C   -0.038352
    10  H    0.154643
    11  C   -0.437443
    12  H    0.182588
    13  H    0.166108
    14  H    0.124936
    15  C    0.613410
    16  O   -0.507740
    17  N   -0.563406
    18  H    0.326544
    19  C   -0.309418
    20  H    0.186109
    21  H    0.177231
    22  H    0.144813
 Sum of Mulliken atomic charges =   0.00000

 Dipole moment (field-independent basis, Debye):
    X=             -3.2009    Y=              0.8409    Z=             -3.4776  Tot=              4.8007
 Quadrupole moment (field-independent basis, Debye-Ang):
   XX=            -54.5773   YY=            -58.4009   ZZ=            -61.3481
   XY=             -5.5928   XZ=             -1.9108   YZ=              0.0346

 Normal termination of Gaussian 09 at Fri Feb 10 18:34:01 2017.
