 Gaussian 09, Revision A.02,
 Gaussian 09:  EM64L-G09RevA.02 11-Jun-2009

 ----------------------------------------------------------------------
 # b3lyp/6-31G* Opt=(ModRedundant, maxcycles=1000, calcfc) geom=nocrowd
 ----------------------------------------------------------------------

 ------------------
 Phi Psi fixed scan
 ------------------
 Symbolic Z-matrix:
 Charge =  0 Multiplicity = 1

 SCF Done:  E(RB3LYP) =  -495.536507957     A.U. after   20 cycles

  Exact polarizability:   0.000   0.000   0.000   0.000   0.000   0.000
 Approx polarizability: 196.401   0.785 147.881   4.939   5.424  88.967

 SCF Done:  E(RB3LYP) =  -495.605938054     A.U. after   16 cycles
 SCF Done:  E(RB3LYP) =  -495.706285168     A.U. after   15 cycles
 SCF Done:  E(RB3LYP) =  -495.764265613     A.U. after   14 cycles
 SCF Done:  E(RB3LYP) =  -495.808983908     A.U. after   13 cycles
 SCF Done:  E(RB3LYP) =  -495.821280792     A.U. after   16 cycles
 SCF Done:  E(RB3LYP) =  -495.796223496     A.U. after   16 cycles
 SCF Done:  E(RB3LYP) =  -495.822402462     A.U. after   14 cycles
 SCF Done:  E(RB3LYP) =  -495.825721688     A.U. after   16 cycles
 SCF Done:  E(RB3LYP) =  -495.821636168     A.U. after   13 cycles
 SCF Done:  E(RB3LYP) =  -495.840103768     A.U. after    8 cycles
 SCF Done:  E(RB3LYP) =  -495.840107916     A.U. after    9 cycles
 SCF Done:  E(RB3LYP) =  -495.840117126     A.U. after   10 cycles
 SCF Done:  E(RB3LYP) =  -495.840141387     A.U. after   11 cycles
 SCF Done:  E(RB3LYP) =  -495.840155993     A.U. after   10 cycles
 SCF Done:  E(RB3LYP) =  -495.840165262     A.U. after   11 cycles
 SCF Done:  E(RB3LYP) =  -495.840166050     A.U. after    8 cycles
 SCF Done:  E(RB3LYP) =  -495.840166236     A.U. after    7 cycles
 SCF Done:  E(RB3LYP) =  -495.840166249     A.U. after    7 cycles
 SCF Done:  E(RB3LYP) =  -495.840166268     A.U. after    7 cycles
 Optimization completed.
    -- Stationary point found.

                         Standard orientation:
 ---------------------------------------------------------------------
 Center     Atomic      Atomic             Coordinates (Angstroms)
 Number     Number       Type             X           Y           Z
 ---------------------------------------------------------------------
      1          1           0       -3.774011   -1.250981   -0.584324
      2          6           0       -3.375091   -0.481047    0.082588
      3          1           0       -3.692067   -0.735297    1.098726
      4          1           0       -3.807035    0.486537   -0.190495
      5          6           0       -1.852455   -0.535527    0.027602
      6          8           0       -1.279663   -1.593674    0.293976
      7          7           0       -1.259020    0.634534   -0.335022
      8          1           0       -1.918794    1.377874   -0.520562
      9          6           0        0.130825    1.153909   -0.431075
     10          1           0        0.292330    1.379553   -1.495958
     11          6           0        0.181967    2.475923    0.347793
     12          1           0        0.001730    2.300473    1.413383
     13          1           0        1.166748    2.928692    0.233745
     14          1           0       -0.578148    3.174576   -0.023550
     15          6           0        1.377782    0.293058   -0.067256
     16          8           0        2.412381    0.900560    0.203010
     17          7           0        1.329570   -1.044463   -0.238634
     18          1           0        0.410625   -1.488365   -0.164482
     19          6           0        2.515592   -1.841279    0.035897
     20          1           0        3.368541   -1.438326   -0.515770
     21          1           0        2.775723   -1.842383    1.102410
     22          1           0        2.327049   -2.868154   -0.286717
 ---------------------------------------------------------------------

 The electronic state is 1-A.
 Alpha  occ. eigenvalues --  -19.12707 -19.10088 -14.38024 -14.33620 -10.30768
 Alpha  occ. eigenvalues --  -10.27835 -10.24829 -10.20399 -10.20338 -10.18472
 Alpha  occ. eigenvalues --   -1.04525  -1.02070  -0.93852  -0.90142  -0.78716
 Alpha  occ. eigenvalues --   -0.73543  -0.69997  -0.64388  -0.60471  -0.55970
 Alpha  occ. eigenvalues --   -0.52160  -0.50694  -0.48188  -0.45928  -0.44871
 Alpha  occ. eigenvalues --   -0.43438  -0.42169  -0.41700  -0.41240  -0.40027
 Alpha  occ. eigenvalues --   -0.38290  -0.37768  -0.37063  -0.36158  -0.34790
 Alpha  occ. eigenvalues --   -0.27040  -0.26661  -0.24328  -0.23602
 Alpha virt. eigenvalues --    0.01479   0.02827   0.05730   0.10802   0.12471
 Alpha virt. eigenvalues --    0.13323   0.13701   0.14900   0.15467   0.16337
 Alpha virt. eigenvalues --    0.16642   0.17196   0.18572   0.19221   0.20427

 Mulliken atomic charges:
              1
     1  H    0.191146
     2  C   -0.532081
     3  H    0.192584
     4  H    0.146051
     5  C    0.606122
     6  O   -0.527661
     7  N   -0.607930
     8  H    0.328964
     9  C   -0.043532
    10  H    0.180095
    11  C   -0.448659
    12  H    0.161356
    13  H    0.196693
    14  H    0.125906
    15  C    0.602690
    16  O   -0.530845
    17  N   -0.615493
    18  H    0.383912
    19  C   -0.297506
    20  H    0.176373
    21  H    0.161539
    22  H    0.150277
 Sum of Mulliken atomic charges =   0.00000

 Dipole moment (field-independent basis, Debye):
    X=             -3.9133    Y=              1.0723    Z=             -1.1321  Tot=              4.2125
 Quadrupole moment (field-independent basis, Debye-Ang):
   XX=            -59.0271   YY=            -59.4666   ZZ=            -59.6518
   XY=             -9.1023   XZ=             -0.0311   YZ=             -0.8022

 Normal termination of Gaussian 09 at Fri Feb 10 18:17:26 2017.
