 Gaussian 09, Revision A.02,
 Gaussian 09:  EM64L-G09RevA.02 11-Jun-2009

 ----------------------------------------------------------------------
 # b3lyp/6-31G* Opt=(ModRedundant, maxcycles=1000, calcfc) geom=nocrowd
 ----------------------------------------------------------------------

 ------------------
 Phi Psi fixed scan
 ------------------
 Symbolic Z-matrix:
 Charge =  0 Multiplicity = 1

 SCF Done:  E(RB3LYP) =  -494.995970680     A.U. after   24 cycles

  Exact polarizability:   0.000   0.000   0.000   0.000   0.000   0.000
 Approx polarizability: 559.835-111.076 184.967  -1.877 -14.230  89.511

 SCF Done:  E(RB3LYP) =  -495.174337434     A.U. after   19 cycles
 SCF Done:  E(RB3LYP) =  -495.369418048     A.U. after   18 cycles
 SCF Done:  E(RB3LYP) =  -495.469484733     A.U. after   20 cycles
 SCF Done:  E(RB3LYP) =  -495.518500089     A.U. after   17 cycles
 SCF Done:  E(RB3LYP) =  -495.657164691     A.U. after   17 cycles
 SCF Done:  E(RB3LYP) =  -495.744625501     A.U. after   15 cycles
 SCF Done:  E(RB3LYP) =  -495.795749489     A.U. after   13 cycles
 SCF Done:  E(RB3LYP) =  -495.797611910     A.U. after   14 cycles
 SCF Done:  E(RB3LYP) =  -495.807871126     A.U. after   15 cycles
 SCF Done:  E(RB3LYP) =  -495.841347188     A.U. after    9 cycles
 SCF Done:  E(RB3LYP) =  -495.841348958     A.U. after    9 cycles
 SCF Done:  E(RB3LYP) =  -495.841351056     A.U. after    9 cycles
 SCF Done:  E(RB3LYP) =  -495.841352195     A.U. after    8 cycles
 SCF Done:  E(RB3LYP) =  -495.841352300     A.U. after    9 cycles
 SCF Done:  E(RB3LYP) =  -495.841352296     A.U. after    6 cycles
 SCF Done:  E(RB3LYP) =  -495.841352298     A.U. after    6 cycles
 SCF Done:  E(RB3LYP) =  -495.841352329     A.U. after    7 cycles
 SCF Done:  E(RB3LYP) =  -495.841352407     A.U. after    7 cycles
 SCF Done:  E(RB3LYP) =  -495.841352481     A.U. after    7 cycles
 Optimization completed.
    -- Stationary point found.

                         Standard orientation:
 ---------------------------------------------------------------------
 Center     Atomic      Atomic             Coordinates (Angstroms)
 Number     Number       Type             X           Y           Z
 ---------------------------------------------------------------------
      1          1           0       -3.795437   -0.800011    0.877775
      2          6           0       -3.415914   -0.401357   -0.067836
      3          1           0       -3.816491    0.606065   -0.215727
      4          1           0       -3.786437   -1.051071   -0.866422
      5          6           0       -1.893698   -0.483022   -0.050034
      6          8           0       -1.355948   -1.581157    0.108321
      7          7           0       -1.262595    0.711388   -0.209264
      8          1           0       -1.899391    1.491249   -0.306296
      9          6           0        0.141071    1.189799   -0.315224
     10          1           0        0.225013    1.640784   -1.311065
     11          6           0        0.342088    2.305227    0.728555
     12          1           0        0.271470    1.897733    1.742631
     13          1           0        1.327821    2.753011    0.590136
     14          1           0       -0.418447    3.088060    0.617298
     15          6           0        1.386615    0.265275   -0.255528
     16          8           0        2.448720    0.799252   -0.576222
     17          7           0        1.292278   -0.998334    0.191802
     18          1           0        0.361044   -1.415611    0.273887
     19          6           0        2.477572   -1.838369    0.241087
     20          1           0        3.273458   -1.335666    0.797762
     21          1           0        2.219986   -2.774565    0.741840
     22          1           0        2.861048   -2.061437   -0.762501
 ---------------------------------------------------------------------

 The electronic state is 1-A.
 Alpha  occ. eigenvalues --  -19.12807 -19.09622 -14.38069 -14.33752 -10.30848
 Alpha  occ. eigenvalues --  -10.27640 -10.24671 -10.20450 -10.20442 -10.18921
 Alpha  occ. eigenvalues --   -1.04585  -1.01766  -0.93872  -0.90172  -0.78814
 Alpha  occ. eigenvalues --   -0.73677  -0.69926  -0.64716  -0.60503  -0.56276
 Alpha  occ. eigenvalues --   -0.52392  -0.50728  -0.47747  -0.45937  -0.45104
 Alpha  occ. eigenvalues --   -0.43087  -0.42474  -0.41763  -0.41206  -0.40591
 Alpha  occ. eigenvalues --   -0.38720  -0.37424  -0.37212  -0.36447  -0.34298
 Alpha  occ. eigenvalues --   -0.26941  -0.26720  -0.24050  -0.23595
 Alpha virt. eigenvalues --    0.01445   0.03511   0.05318   0.11069   0.12423
 Alpha virt. eigenvalues --    0.12583   0.13810   0.15157   0.15925   0.16314
 Alpha virt. eigenvalues --    0.16620   0.17361   0.18461   0.18994   0.19927

 Mulliken atomic charges:
              1
     1  H    0.191517
     2  C   -0.531682
     3  H    0.145998
     4  H    0.192528
     5  C    0.606692
     6  O   -0.528143
     7  N   -0.608539
     8  H    0.328820
     9  C   -0.032283
    10  H    0.178072
    11  C   -0.451151
    12  H    0.161406
    13  H    0.193604
    14  H    0.133061
    15  C    0.598752
    16  O   -0.541305
    17  N   -0.621940
    18  H    0.390963
    19  C   -0.296308
    20  H    0.175017
    21  H    0.151126
    22  H    0.163794
 Sum of Mulliken atomic charges =   0.00000

 Dipole moment (field-independent basis, Debye):
    X=             -4.0146    Y=              1.2735    Z=              0.4588  Tot=              4.2367
 Quadrupole moment (field-independent basis, Debye-Ang):
   XX=            -59.7967   YY=            -58.7097   ZZ=            -60.0736
   XY=             -9.4487   XZ=              3.8220   YZ=              0.2706

 Normal termination of Gaussian 09 at Fri Feb 10 18:50:20 2017.
