 Gaussian 09, Revision A.02,
 Gaussian 09:  EM64L-G09RevA.02 11-Jun-2009

 ----------------------------------------------------------------------
 # b3lyp/6-31G* Opt=(ModRedundant, maxcycles=1000, calcfc) geom=nocrowd
 ----------------------------------------------------------------------

 ------------------
 Phi Psi fixed scan
 ------------------
 Symbolic Z-matrix:
 Charge =  0 Multiplicity = 1

 SCF Done:  E(RB3LYP) =  -495.794885613     A.U. after   15 cycles

  Exact polarizability:   0.000   0.000   0.000   0.000   0.000   0.000
 Approx polarizability: 117.665 -10.500 113.014  -5.560 -15.219 111.711

 SCF Done:  E(RB3LYP) =  -495.797263855     A.U. after   14 cycles
 SCF Done:  E(RB3LYP) =  -495.812922432     A.U. after   14 cycles
 SCF Done:  E(RB3LYP) =  -495.818980956     A.U. after   13 cycles
 SCF Done:  E(RB3LYP) =  -495.823794441     A.U. after   13 cycles
 SCF Done:  E(RB3LYP) =  -495.826157233     A.U. after   14 cycles
 SCF Done:  E(RB3LYP) =  -495.778281105     A.U. after   15 cycles
 SCF Done:  E(RB3LYP) =  -495.827996123     A.U. after   15 cycles
 SCF Done:  E(RB3LYP) =  -495.830686342     A.U. after   13 cycles
 SCF Done:  E(RB3LYP) =  -495.829368656     A.U. after   13 cycles
 SCF Done:  E(RB3LYP) =  -495.836403880     A.U. after   10 cycles
 SCF Done:  E(RB3LYP) =  -495.836457339     A.U. after   11 cycles
 SCF Done:  E(RB3LYP) =  -495.836507189     A.U. after   11 cycles
 SCF Done:  E(RB3LYP) =  -495.836547555     A.U. after   11 cycles
 SCF Done:  E(RB3LYP) =  -495.836555090     A.U. after    9 cycles
 SCF Done:  E(RB3LYP) =  -495.836568439     A.U. after    9 cycles
 SCF Done:  E(RB3LYP) =  -495.836608371     A.U. after   11 cycles
 SCF Done:  E(RB3LYP) =  -495.836611463     A.U. after   10 cycles
 SCF Done:  E(RB3LYP) =  -495.836611646     A.U. after    7 cycles
 SCF Done:  E(RB3LYP) =  -495.836611650     A.U. after    7 cycles
 Optimization completed.
    -- Stationary point found.

                         Standard orientation:
 ---------------------------------------------------------------------
 Center     Atomic      Atomic             Coordinates (Angstroms)
 Number     Number       Type             X           Y           Z
 ---------------------------------------------------------------------
      1          1           0       -3.499441   -1.845802    0.088344
      2          6           0       -3.192012   -0.805419    0.206611
      3          1           0       -3.330872   -0.523779    1.257489
      4          1           0       -3.834403   -0.163643   -0.406525
      5          6           0       -1.718302   -0.684972   -0.156065
      6          8           0       -0.948408   -1.630160   -0.090043
      7          7           0       -1.338970    0.561080   -0.616631
      8          1           0       -2.060886    1.268944   -0.549291
      9          6           0        0.015860    1.124054   -0.516113
     10          1           0        0.375152    1.335190   -1.533869
     11          6           0       -0.018163    2.436691    0.274891
     12          1           0       -0.285373    2.230629    1.314745
     13          1           0        0.965556    2.917040    0.258309
     14          1           0       -0.741725    3.137243   -0.160185
     15          6           0        1.018936    0.168968    0.174298
     16          8           0        0.961213   -0.049636    1.375134
     17          7           0        2.087897   -0.188633   -0.601113
     18          1           0        1.949439   -0.179731   -1.603020
     19          6           0        3.079034   -1.121183   -0.082888
     20          1           0        3.306858   -0.843167    0.947264
     21          1           0        2.711375   -2.155224   -0.086073
     22          1           0        3.987279   -1.055293   -0.688108
 ---------------------------------------------------------------------

 The electronic state is 1-A.
 Alpha  occ. eigenvalues --  -19.10730 -19.10194 -14.35825 -14.35609 -10.28461
 Alpha  occ. eigenvalues --  -10.27919 -10.23928 -10.21012 -10.18973 -10.18961
 Alpha  occ. eigenvalues --   -1.03170  -1.01832  -0.92082  -0.91245  -0.77919
 Alpha  occ. eigenvalues --   -0.72654  -0.70486  -0.63904  -0.59020  -0.56826
 Alpha  occ. eigenvalues --   -0.50643  -0.49849  -0.47598  -0.45854  -0.43934
 Alpha  occ. eigenvalues --   -0.43565  -0.41922  -0.41379  -0.39842  -0.39037
 Alpha  occ. eigenvalues --   -0.38576  -0.37737  -0.37671  -0.35671  -0.34113
 Alpha  occ. eigenvalues --   -0.25919  -0.24981  -0.24367  -0.23612
 Alpha virt. eigenvalues --    0.02441   0.03364   0.06721   0.08442   0.12141
 Alpha virt. eigenvalues --    0.12863   0.13670   0.15163   0.15624   0.15968
 Alpha virt. eigenvalues --    0.16753   0.17971   0.18356   0.18705   0.19846

 Mulliken atomic charges:
              1
     1  H    0.187091
     2  C   -0.547388
     3  H    0.184251
     4  H    0.151488
     5  C    0.600200
     6  O   -0.490599
     7  N   -0.601329
     8  H    0.316527
     9  C   -0.008084
    10  H    0.132242
    11  C   -0.469434
    12  H    0.187175
    13  H    0.163450
    14  H    0.137904
    15  C    0.637284
    16  O   -0.523117
    17  N   -0.591332
    18  H    0.325184
    19  C   -0.304919
    20  H    0.192139
    21  H    0.173875
    22  H    0.147393
 Sum of Mulliken atomic charges =   0.00000

 Dipole moment (field-independent basis, Debye):
    X=             -0.7085    Y=              2.7940    Z=             -2.8069  Tot=              4.0234
 Quadrupole moment (field-independent basis, Debye-Ang):
   XX=            -47.6026   YY=            -60.4880   ZZ=            -61.6278
   XY=             -4.5044   XZ=             -4.5780   YZ=              0.1084

 Normal termination of Gaussian 09 at Fri Feb 10 18:22:47 2017.
