 Gaussian 09, Revision A.02,
 Gaussian 09:  EM64L-G09RevA.02 11-Jun-2009

 ----------------------------------------------------------------------
 # b3lyp/6-31G* Opt=(ModRedundant, maxcycles=1000, calcfc) geom=nocrowd
 ----------------------------------------------------------------------

 ------------------
 Phi Psi fixed scan
 ------------------
 Symbolic Z-matrix:
 Charge =  0 Multiplicity = 1

 SCF Done:  E(RB3LYP) =  -495.789163308     A.U. after   16 cycles

  Exact polarizability:   0.000   0.000   0.000   0.000   0.000   0.000
 Approx polarizability: 113.681  10.871 122.680 -11.199   7.375 107.901

 SCF Done:  E(RB3LYP) =  -495.808146453     A.U. after   14 cycles
 SCF Done:  E(RB3LYP) =  -495.821791019     A.U. after   15 cycles
 SCF Done:  E(RB3LYP) =  -495.830536789     A.U. after   13 cycles
 SCF Done:  E(RB3LYP) =  -495.832495068     A.U. after   12 cycles
 SCF Done:  E(RB3LYP) =  -495.834792567     A.U. after   13 cycles
 SCF Done:  E(RB3LYP) =  -495.837086782     A.U. after   13 cycles
 SCF Done:  E(RB3LYP) =  -495.837807456     A.U. after   15 cycles
 SCF Done:  E(RB3LYP) =  -495.637200022     A.U. after   18 cycles
 SCF Done:  E(RB3LYP) =  -495.837810195     A.U. after   16 cycles
 SCF Done:  E(RB3LYP) =  -495.838655319     A.U. after   10 cycles
 SCF Done:  E(RB3LYP) =  -495.838658398     A.U. after   10 cycles
 SCF Done:  E(RB3LYP) =  -495.838660451     A.U. after   10 cycles
 SCF Done:  E(RB3LYP) =  -495.838661962     A.U. after    8 cycles
 SCF Done:  E(RB3LYP) =  -495.838663214     A.U. after    8 cycles
 SCF Done:  E(RB3LYP) =  -495.838664635     A.U. after    8 cycles
 SCF Done:  E(RB3LYP) =  -495.838666598     A.U. after    9 cycles
 SCF Done:  E(RB3LYP) =  -495.838669993     A.U. after   11 cycles
 SCF Done:  E(RB3LYP) =  -495.838670791     A.U. after    8 cycles
 SCF Done:  E(RB3LYP) =  -495.838670844     A.U. after    7 cycles
 Optimization completed.
    -- Stationary point found.

                         Standard orientation:
 ---------------------------------------------------------------------
 Center     Atomic      Atomic             Coordinates (Angstroms)
 Number     Number       Type             X           Y           Z
 ---------------------------------------------------------------------
      1          1           0        3.639005   -1.072303    1.037058
      2          6           0        3.346809   -0.586279    0.100237
      3          1           0        3.691317   -1.223509   -0.718733
      4          1           0        3.849824    0.383716    0.036889
      5          6           0        1.825577   -0.510457    0.050093
      6          8           0        1.152230   -1.535489   -0.032135
      7          7           0        1.314162    0.753293    0.086436
      8          1           0        1.997707    1.496603    0.143020
      9          6           0       -0.067332    1.246930    0.253046
     10          1           0       -0.089234    1.801047    1.196797
     11          6           0       -0.410058    2.212245   -0.895590
     12          1           0       -0.417924    1.685937   -1.854174
     13          1           0       -1.397728    2.653801   -0.729378
     14          1           0        0.321867    3.027768   -0.948672
     15          6           0       -1.230055    0.236400    0.426693
     16          8           0       -2.019004    0.428900    1.344082
     17          7           0       -1.449452   -0.661385   -0.580030
     18          1           0       -0.591431   -1.063846   -0.947685
     19          6           0       -2.559852   -1.596472   -0.439129
     20          1           0       -3.469511   -1.040015   -0.206602
     21          1           0       -2.692708   -2.128221   -1.384918
     22          1           0       -2.390502   -2.325825    0.363880
 ---------------------------------------------------------------------

 The electronic state is 1-A.
 Alpha  occ. eigenvalues --  -19.11894 -19.10816 -14.37529 -14.34040 -10.30118
 Alpha  occ. eigenvalues --  -10.28005 -10.24285 -10.20318 -10.20078 -10.19243
 Alpha  occ. eigenvalues --   -1.03963  -1.02483  -0.93370  -0.90434  -0.78689
 Alpha  occ. eigenvalues --   -0.73540  -0.69498  -0.64785  -0.60254  -0.55691
 Alpha  occ. eigenvalues --   -0.52336  -0.50092  -0.47421  -0.45813  -0.44766
 Alpha  occ. eigenvalues --   -0.43474  -0.42244  -0.41471  -0.40857  -0.40645
 Alpha  occ. eigenvalues --   -0.38797  -0.37700  -0.36959  -0.35858  -0.35249
 Alpha  occ. eigenvalues --   -0.26927  -0.26303  -0.24639  -0.23528
 Alpha virt. eigenvalues --    0.01446   0.02459   0.05683   0.10967   0.11949
 Alpha virt. eigenvalues --    0.12690   0.14102   0.14804   0.15860   0.16519
 Alpha virt. eigenvalues --    0.16754   0.17583   0.17902   0.18736   0.18964

 Mulliken atomic charges:
              1
     1  H    0.191739
     2  C   -0.534466
     3  H    0.188598
     4  H    0.144502
     5  C    0.601031
     6  O   -0.526697
     7  N   -0.604352
     8  H    0.325188
     9  C   -0.032930
    10  H    0.175406
    11  C   -0.446967
    12  H    0.167598
    13  H    0.173273
    14  H    0.138688
    15  C    0.588196
    16  O   -0.512010
    17  N   -0.578078
    18  H    0.352864
    19  C   -0.304637
    20  H    0.180239
    21  H    0.148002
    22  H    0.164816
 Sum of Mulliken atomic charges =   0.00000

 Dipole moment (field-independent basis, Debye):
    X=              3.3977    Y=              1.9302    Z=             -1.9494  Tot=              4.3669
 Quadrupole moment (field-independent basis, Debye-Ang):
   XX=            -55.3252   YY=            -58.1204   ZZ=            -62.9996
   XY=              6.3775   XZ=              5.7244   YZ=              0.2896

 Normal termination of Gaussian 09 at Fri Feb 10 18:15:07 2017.
