 Gaussian 09, Revision A.02,
 Gaussian 09:  EM64L-G09RevA.02 11-Jun-2009

 ----------------------------------------------------------------------
 # b3lyp/6-31G* Opt=(ModRedundant, maxcycles=1000, calcfc) geom=nocrowd
 ----------------------------------------------------------------------

 ------------------
 Phi Psi fixed scan
 ------------------
 Symbolic Z-matrix:
 Charge =  0 Multiplicity = 1

 SCF Done:  E(RB3LYP) =  -495.812461463     A.U. after   15 cycles

  Exact polarizability:   0.000   0.000   0.000   0.000   0.000   0.000
 Approx polarizability: 109.587  12.939 119.354  -5.538   2.802 112.010

 SCF Done:  E(RB3LYP) =  -495.821403833     A.U. after   13 cycles
 SCF Done:  E(RB3LYP) =  -495.831021898     A.U. after   13 cycles
 SCF Done:  E(RB3LYP) =  -495.835417647     A.U. after   13 cycles
 SCF Done:  E(RB3LYP) =  -495.825109620     A.U. after   16 cycles
 SCF Done:  E(RB3LYP) =  -495.830629569     A.U. after   12 cycles
 SCF Done:  E(RB3LYP) =  -495.835458428     A.U. after   15 cycles
 SCF Done:  E(RB3LYP) =  -495.836671071     A.U. after   12 cycles
 SCF Done:  E(RB3LYP) =  -495.834425555     A.U. after   14 cycles
 SCF Done:  E(RB3LYP) =  -495.837314719     A.U. after   13 cycles
 SCF Done:  E(RB3LYP) =  -495.837950692     A.U. after   12 cycles
 SCF Done:  E(RB3LYP) =  -495.837917589     A.U. after   12 cycles
 SCF Done:  E(RB3LYP) =  -495.837941314     A.U. after   10 cycles
 SCF Done:  E(RB3LYP) =  -495.837983545     A.U. after   11 cycles
 SCF Done:  E(RB3LYP) =  -495.837994407     A.U. after   10 cycles
 SCF Done:  E(RB3LYP) =  -495.838000064     A.U. after   11 cycles
 SCF Done:  E(RB3LYP) =  -495.838005065     A.U. after   10 cycles
 SCF Done:  E(RB3LYP) =  -495.838005489     A.U. after    7 cycles
 SCF Done:  E(RB3LYP) =  -495.838005098     A.U. after   10 cycles
 SCF Done:  E(RB3LYP) =  -495.838005962     A.U. after    9 cycles
 Optimization completed.
    -- Stationary point found.

                         Standard orientation:
 ---------------------------------------------------------------------
 Center     Atomic      Atomic             Coordinates (Angstroms)
 Number     Number       Type             X           Y           Z
 ---------------------------------------------------------------------
      1          1           0        3.608485   -1.153696    0.876312
      2          6           0        3.246704   -0.714265   -0.059419
      3          1           0        3.466274   -1.425152   -0.860329
      4          1           0        3.793907    0.215638   -0.244249
      5          6           0        1.734894   -0.542481    0.036835
      6          8           0        0.985826   -1.512568    0.047383
      7          7           0        1.312443    0.756023    0.114225
      8          1           0        2.031413    1.466944    0.102738
      9          6           0       -0.046730    1.284201    0.314865
     10          1           0       -0.062884    1.787037    1.287869
     11          6           0       -0.374482    2.311886   -0.779936
     12          1           0       -0.378227    1.851345   -1.772476
     13          1           0       -1.359125    2.755390   -0.601181
     14          1           0        0.365321    3.122181   -0.781710
     15          6           0       -1.166434    0.223483    0.460336
     16          8           0       -1.751371    0.110148    1.527440
     17          7           0       -1.562898   -0.412695   -0.686405
     18          1           0       -0.826950   -0.543389   -1.368981
     19          6           0       -2.488671   -1.533367   -0.572750
     20          1           0       -3.325875   -1.234632    0.059380
     21          1           0       -2.860165   -1.792003   -1.568015
     22          1           0       -2.006322   -2.410331   -0.122268
 ---------------------------------------------------------------------

 The electronic state is 1-A.
 Alpha  occ. eigenvalues --  -19.11330 -19.10666 -14.37126 -14.34567 -10.29558
 Alpha  occ. eigenvalues --  -10.27970 -10.24066 -10.20283 -10.19786 -10.19503
 Alpha  occ. eigenvalues --   -1.03584  -1.02322  -0.93016  -0.90681  -0.78555
 Alpha  occ. eigenvalues --   -0.73331  -0.69492  -0.64865  -0.59976  -0.56205
 Alpha  occ. eigenvalues --   -0.52066  -0.49822  -0.47565  -0.45330  -0.44324
 Alpha  occ. eigenvalues --   -0.43631  -0.42310  -0.41558  -0.40451  -0.40168
 Alpha  occ. eigenvalues --   -0.38815  -0.37682  -0.37428  -0.35603  -0.35421
 Alpha  occ. eigenvalues --   -0.26295  -0.25763  -0.24646  -0.23410
 Alpha virt. eigenvalues --    0.01994   0.02799   0.05976   0.09614   0.11445
 Alpha virt. eigenvalues --    0.12823   0.13822   0.14632   0.15579   0.16163
 Alpha virt. eigenvalues --    0.16921   0.17684   0.17877   0.18891   0.19215

 Mulliken atomic charges:
              1
     1  H    0.191037
     2  C   -0.535895
     3  H    0.186288
     4  H    0.142685
     5  C    0.595153
     6  O   -0.515958
     7  N   -0.606289
     8  H    0.321848
     9  C   -0.033675
    10  H    0.175179
    11  C   -0.448590
    12  H    0.155679
    13  H    0.171965
    14  H    0.140076
    15  C    0.604184
    16  O   -0.508470
    17  N   -0.560892
    18  H    0.329011
    19  C   -0.308189
    20  H    0.185391
    21  H    0.144813
    22  H    0.174648
 Sum of Mulliken atomic charges =   0.00000

 Dipole moment (field-independent basis, Debye):
    X=              3.0784    Y=              2.4605    Z=             -2.8568  Tot=              4.8674
 Quadrupole moment (field-independent basis, Debye-Ang):
   XX=            -54.1397   YY=            -58.2363   ZZ=            -62.9521
   XY=              4.6917   XZ=              5.2000   YZ=              1.6961

 Normal termination of Gaussian 09 at Fri Feb 10 18:14:29 2017.
