 Gaussian 09, Revision A.02,
 Gaussian 09:  EM64L-G09RevA.02 11-Jun-2009

 ----------------------------------------------------------------------
 # b3lyp/6-31G* Opt=(ModRedundant, maxcycles=1000, calcfc) geom=nocrowd
 ----------------------------------------------------------------------

 ------------------
 Phi Psi fixed scan
 ------------------
 Symbolic Z-matrix:
 Charge =  0 Multiplicity = 1

 SCF Done:  E(RB3LYP) =  -495.791036404     A.U. after   15 cycles

  Exact polarizability:   0.000   0.000   0.000   0.000   0.000   0.000
 Approx polarizability: 115.700   5.024 124.341  14.280  -0.490 103.100

 SCF Done:  E(RB3LYP) =  -495.809165243     A.U. after   14 cycles
 SCF Done:  E(RB3LYP) =  -495.819849529     A.U. after   15 cycles
 SCF Done:  E(RB3LYP) =  -495.831204114     A.U. after   15 cycles
 SCF Done:  E(RB3LYP) =  -495.832653821     A.U. after   12 cycles
 SCF Done:  E(RB3LYP) =  -495.834838695     A.U. after   12 cycles
 SCF Done:  E(RB3LYP) =  -495.836262540     A.U. after   12 cycles
 SCF Done:  E(RB3LYP) =  -495.837018000     A.U. after   12 cycles
 SCF Done:  E(RB3LYP) =  -495.837414362     A.U. after   14 cycles
 SCF Done:  E(RB3LYP) =  -495.827936371     A.U. after   14 cycles
 SCF Done:  E(RB3LYP) =  -495.838333831     A.U. after   11 cycles
 SCF Done:  E(RB3LYP) =  -495.838340138     A.U. after    9 cycles
 SCF Done:  E(RB3LYP) =  -495.838342115     A.U. after   10 cycles
 SCF Done:  E(RB3LYP) =  -495.838342472     A.U. after    7 cycles
 SCF Done:  E(RB3LYP) =  -495.838342556     A.U. after    7 cycles
 SCF Done:  E(RB3LYP) =  -495.838342596     A.U. after    7 cycles
 SCF Done:  E(RB3LYP) =  -495.838342619     A.U. after    7 cycles
 SCF Done:  E(RB3LYP) =  -495.838342633     A.U. after    6 cycles
 SCF Done:  E(RB3LYP) =  -495.838342656     A.U. after    7 cycles
 SCF Done:  E(RB3LYP) =  -495.838342691     A.U. after    7 cycles
 Optimization completed.
    -- Stationary point found.

                         Standard orientation:
 ---------------------------------------------------------------------
 Center     Atomic      Atomic             Coordinates (Angstroms)
 Number     Number       Type             X           Y           Z
 ---------------------------------------------------------------------
      1          1           0       -3.526569   -0.761758    1.255467
      2          6           0       -3.269758   -0.705259    0.192332
      3          1           0       -3.812389    0.133642   -0.254565
      4          1           0       -3.601883   -1.636962   -0.273326
      5          6           0       -1.753133   -0.613602    0.066872
      6          8           0       -1.043474   -1.564552    0.386538
      7          7           0       -1.294509    0.572880   -0.426790
      8          1           0       -2.012325    1.248254   -0.652245
      9          6           0        0.062122    1.154500   -0.523141
     10          1           0        0.273964    1.276281   -1.596069
     11          6           0        0.047715    2.538872    0.131081
     12          1           0       -0.109018    2.453350    1.209634
     13          1           0        1.001548    3.043823   -0.031394
     14          1           0       -0.751069    3.156404   -0.298741
     15          6           0        1.268071    0.328333    0.016886
     16          8           0        2.066609    0.861326    0.777058
     17          7           0        1.485027   -0.889643   -0.561735
     18          1           0        0.630034   -1.409217   -0.738430
     19          6           0        2.598371   -1.695901   -0.073904
     20          1           0        3.507330   -1.091853   -0.076523
     21          1           0        2.430914   -2.059589    0.948396
     22          1           0        2.730428   -2.550891   -0.742056
 ---------------------------------------------------------------------

 The electronic state is 1-A.
 Alpha  occ. eigenvalues --  -19.11880 -19.11025 -14.37542 -14.33969 -10.30107
 Alpha  occ. eigenvalues --  -10.28152 -10.24538 -10.20259 -10.20059 -10.18467
 Alpha  occ. eigenvalues --   -1.03968  -1.02662  -0.93397  -0.90443  -0.78476
 Alpha  occ. eigenvalues --   -0.73303  -0.69958  -0.64110  -0.60205  -0.55625
 Alpha  occ. eigenvalues --   -0.51804  -0.50330  -0.48056  -0.45956  -0.44799
 Alpha  occ. eigenvalues --   -0.43435  -0.42093  -0.41538  -0.40725  -0.39701
 Alpha  occ. eigenvalues --   -0.38024  -0.37841  -0.36946  -0.35992  -0.35316
 Alpha  occ. eigenvalues --   -0.26919  -0.26448  -0.24839  -0.23460
 Alpha virt. eigenvalues --    0.01478   0.02174   0.06159   0.10722   0.12153
 Alpha virt. eigenvalues --    0.13200   0.13773   0.14932   0.15446   0.16142
 Alpha virt. eigenvalues --    0.17083   0.17214   0.18344   0.18666   0.20969

 Mulliken atomic charges:
              1
     1  H    0.191353
     2  C   -0.534421
     3  H    0.144808
     4  H    0.188549
     5  C    0.598909
     6  O   -0.526208
     7  N   -0.604431
     8  H    0.325649
     9  C   -0.036627
    10  H    0.170141
    11  C   -0.439209
    12  H    0.172316
    13  H    0.178240
    14  H    0.124226
    15  C    0.595249
    16  O   -0.509606
    17  N   -0.578799
    18  H    0.350833
    19  C   -0.304233
    20  H    0.180083
    21  H    0.164994
    22  H    0.148184
 Sum of Mulliken atomic charges =   0.00000

 Dipole moment (field-independent basis, Debye):
    X=             -3.4581    Y=              1.0213    Z=             -2.2459  Tot=              4.2480
 Quadrupole moment (field-independent basis, Debye-Ang):
   XX=            -55.5869   YY=            -59.2377   ZZ=            -61.1949
   XY=             -7.0619   XZ=             -1.8730   YZ=             -0.9614

 Normal termination of Gaussian 09 at Fri Feb 10 18:31:54 2017.
