 Gaussian 09, Revision A.02,
 Gaussian 09:  EM64L-G09RevA.02 11-Jun-2009

 ----------------------------------------------------------------------
 # b3lyp/6-31G* Opt=(ModRedundant, maxcycles=1000, calcfc) geom=nocrowd
 ----------------------------------------------------------------------

 ------------------
 Phi Psi fixed scan
 ------------------
 Symbolic Z-matrix:
 Charge =  0 Multiplicity = 1

 SCF Done:  E(RB3LYP) =  -495.823191944     A.U. after   15 cycles

  Exact polarizability:   0.000   0.000   0.000   0.000   0.000   0.000
 Approx polarizability: 111.306 -11.443 113.366   5.731  -3.543 115.166

 SCF Done:  E(RB3LYP) =  -495.828325552     A.U. after   12 cycles
 SCF Done:  E(RB3LYP) =  -495.835122954     A.U. after   12 cycles
 SCF Done:  E(RB3LYP) =  -495.837826262     A.U. after   12 cycles
 SCF Done:  E(RB3LYP) =  -495.838684941     A.U. after   12 cycles
 SCF Done:  E(RB3LYP) =  -495.812827332     A.U. after   14 cycles
 SCF Done:  E(RB3LYP) =  -495.839094465     A.U. after   13 cycles
 SCF Done:  E(RB3LYP) =  -495.839390206     A.U. after   12 cycles
 SCF Done:  E(RB3LYP) =  -495.531386404     A.U. after   17 cycles
 SCF Done:  E(RB3LYP) =  -495.650390502     A.U. after   17 cycles
 SCF Done:  E(RB3LYP) =  -495.839392512     A.U. after   12 cycles
 SCF Done:  E(RB3LYP) =  -495.839628868     A.U. after   12 cycles
 SCF Done:  E(RB3LYP) =  -495.839769311     A.U. after   12 cycles
 SCF Done:  E(RB3LYP) =  -495.839784282     A.U. after   10 cycles
 SCF Done:  E(RB3LYP) =  -495.839787394     A.U. after    9 cycles
 SCF Done:  E(RB3LYP) =  -495.839787804     A.U. after    8 cycles
 SCF Done:  E(RB3LYP) =  -495.839787993     A.U. after    7 cycles
 SCF Done:  E(RB3LYP) =  -495.839788463     A.U. after    8 cycles
 SCF Done:  E(RB3LYP) =  -495.839789049     A.U. after    9 cycles
 SCF Done:  E(RB3LYP) =  -495.839789109     A.U. after    7 cycles
 Optimization completed.
    -- Stationary point found.

                         Standard orientation:
 ---------------------------------------------------------------------
 Center     Atomic      Atomic             Coordinates (Angstroms)
 Number     Number       Type             X           Y           Z
 ---------------------------------------------------------------------
      1          1           0       -3.291435   -2.031657   -0.137015
      2          6           0       -3.111177   -0.993131    0.150317
      3          1           0       -3.403189   -0.885164    1.200978
      4          1           0       -3.743306   -0.335896   -0.455664
      5          6           0       -1.619974   -0.704796    0.023538
      6          8           0       -0.778217   -1.520431    0.377377
      7          7           0       -1.318079    0.516566   -0.519677
      8          1           0       -2.099544    1.125275   -0.723771
      9          6           0       -0.007414    1.185832   -0.556805
     10          1           0        0.268353    1.315369   -1.613750
     11          6           0       -0.099256    2.561323    0.105869
     12          1           0       -0.264550    2.446673    1.179503
     13          1           0        0.833988    3.114547   -0.037232
     14          1           0       -0.914054    3.151121   -0.331839
     15          6           0        1.120000    0.356673    0.115085
     16          8           0        1.464491    0.567679    1.267432
     17          7           0        1.782482   -0.494358   -0.728285
     18          1           0        1.251088   -0.804216   -1.532328
     19          6           0        2.690963   -1.481864   -0.159920
     20          1           0        3.341972   -0.981941    0.558592
     21          1           0        2.142507   -2.277108    0.360755
     22          1           0        3.298310   -1.914671   -0.959480
 ---------------------------------------------------------------------

 The electronic state is 1-A.
 Alpha  occ. eigenvalues --  -19.11122 -19.10485 -14.36748 -14.34827 -10.29196
 Alpha  occ. eigenvalues --  -10.27901 -10.24032 -10.20325 -10.19532 -10.18439
 Alpha  occ. eigenvalues --   -1.03443  -1.02134  -0.92707  -0.90819  -0.78093
 Alpha  occ. eigenvalues --   -0.72934  -0.70067  -0.63798  -0.59659  -0.56315
 Alpha  occ. eigenvalues --   -0.51400  -0.49870  -0.47587  -0.45742  -0.44415
 Alpha  occ. eigenvalues --   -0.43384  -0.41763  -0.41406  -0.39962  -0.39454
 Alpha  occ. eigenvalues --   -0.38020  -0.37656  -0.37255  -0.35373  -0.35185
 Alpha  occ. eigenvalues --   -0.26061  -0.25416  -0.24716  -0.23439
 Alpha virt. eigenvalues --    0.02374   0.02948   0.06598   0.09229   0.11606
 Alpha virt. eigenvalues --    0.13174   0.13540   0.15017   0.15509   0.16333
 Alpha virt. eigenvalues --    0.17222   0.17784   0.18436   0.19054   0.20197

 Mulliken atomic charges:
              1
     1  H    0.186823
     2  C   -0.539121
     3  H    0.189265
     4  H    0.144386
     5  C    0.598983
     6  O   -0.507529
     7  N   -0.606814
     8  H    0.321026
     9  C   -0.026642
    10  H    0.145966
    11  C   -0.450988
    12  H    0.187388
    13  H    0.163663
    14  H    0.128078
    15  C    0.621496
    16  O   -0.510657
    17  N   -0.571158
    18  H    0.324672
    19  C   -0.309249
    20  H    0.187479
    21  H    0.178410
    22  H    0.144522
 Sum of Mulliken atomic charges =   0.00000

 Dipole moment (field-independent basis, Debye):
    X=             -2.6052    Y=              1.1966    Z=             -3.5576  Tot=              4.5690
 Quadrupole moment (field-independent basis, Debye-Ang):
   XX=            -52.0433   YY=            -58.9665   ZZ=            -61.5752
   XY=             -5.0245   XZ=             -2.9517   YZ=              0.0506

 Normal termination of Gaussian 09 at Fri Feb 10 18:32:21 2017.
