 Gaussian 09, Revision A.02,
 Gaussian 09:  EM64L-G09RevA.02 11-Jun-2009

 ----------------------------------------------------------------------
 # b3lyp/6-31G* Opt=(ModRedundant, maxcycles=1000, calcfc) geom=nocrowd
 ----------------------------------------------------------------------

 ------------------
 Phi Psi fixed scan
 ------------------
 Symbolic Z-matrix:
 Charge =  0 Multiplicity = 1

 SCF Done:  E(RB3LYP) =  -495.751406280     A.U. after   17 cycles

  Exact polarizability:   0.000   0.000   0.000   0.000   0.000   0.000
 Approx polarizability: 127.741  -4.475 119.411  -8.026 -19.303 104.041

 SCF Done:  E(RB3LYP) =  -495.781185903     A.U. after   14 cycles
 SCF Done:  E(RB3LYP) =  -495.806272741     A.U. after   15 cycles
 SCF Done:  E(RB3LYP) =  -495.813574617     A.U. after   15 cycles
 SCF Done:  E(RB3LYP) =  -495.814606388     A.U. after   14 cycles
 SCF Done:  E(RB3LYP) =  -495.812941027     A.U. after   15 cycles
 SCF Done:  E(RB3LYP) =  -495.815460068     A.U. after   14 cycles
 SCF Done:  E(RB3LYP) =  -495.761620811     A.U. after   14 cycles
 SCF Done:  E(RB3LYP) =  -495.816262470     A.U. after   14 cycles
 SCF Done:  E(RB3LYP) =  -495.816669593     A.U. after   12 cycles
 SCF Done:  E(RB3LYP) =  -495.832881163     A.U. after   11 cycles
 SCF Done:  E(RB3LYP) =  -495.832922194     A.U. after   11 cycles
 SCF Done:  E(RB3LYP) =  -495.832937639     A.U. after   10 cycles
 SCF Done:  E(RB3LYP) =  -495.832942227     A.U. after    9 cycles
 SCF Done:  E(RB3LYP) =  -495.832944758     A.U. after    9 cycles
 SCF Done:  E(RB3LYP) =  -495.832945416     A.U. after    7 cycles
 SCF Done:  E(RB3LYP) =  -495.832945725     A.U. after    7 cycles
 SCF Done:  E(RB3LYP) =  -495.832945913     A.U. after    7 cycles
 SCF Done:  E(RB3LYP) =  -495.832946074     A.U. after    7 cycles
 SCF Done:  E(RB3LYP) =  -495.832946126     A.U. after    7 cycles
 Optimization completed.
    -- Stationary point found.

                         Standard orientation:
 ---------------------------------------------------------------------
 Center     Atomic      Atomic             Coordinates (Angstroms)
 Number     Number       Type             X           Y           Z
 ---------------------------------------------------------------------
      1          1           0       -3.883822    0.103461   -0.295808
      2          6           0       -3.262032   -0.603042    0.266042
      3          1           0       -3.673576   -1.608340    0.164308
      4          1           0       -3.296949   -0.318913    1.324940
      5          6           0       -1.815148   -0.614768   -0.209150
      6          8           0       -1.159838   -1.638673   -0.291240
      7          7           0       -1.334372    0.624771   -0.607547
      8          1           0       -1.988039    1.380206   -0.435113
      9          6           0        0.057822    1.079635   -0.490484
     10          1           0        0.423918    1.330596   -1.497080
     11          6           0        0.121135    2.344237    0.378857
     12          1           0       -0.174304    2.100889    1.403489
     13          1           0        1.139427    2.745787    0.394957
     14          1           0       -0.542336    3.122935   -0.017342
     15          6           0        1.009302    0.037673    0.137957
     16          8           0        0.819572   -0.408473    1.259081
     17          7           0        2.201031   -0.096077   -0.524830
     18          1           0        2.209369    0.110161   -1.514720
     19          6           0        3.221253   -1.007994   -0.028551
     20          1           0        3.029996   -2.046971   -0.326439
     21          1           0        4.199851   -0.698646   -0.406545
     22          1           0        3.217990   -0.959309    1.061233
 ---------------------------------------------------------------------

 The electronic state is 1-A.
 Alpha  occ. eigenvalues --  -19.10403 -19.10382 -14.35961 -14.35433 -10.28118
 Alpha  occ. eigenvalues --  -10.28109 -10.24080 -10.21335 -10.19324 -10.18679
 Alpha  occ. eigenvalues --   -1.03106  -1.01755  -0.91898  -0.91455  -0.77976
 Alpha  occ. eigenvalues --   -0.72498  -0.70678  -0.64079  -0.58948  -0.56916
 Alpha  occ. eigenvalues --   -0.50465  -0.49801  -0.47590  -0.45885  -0.43821
 Alpha  occ. eigenvalues --   -0.43588  -0.42219  -0.41394  -0.39833  -0.38961
 Alpha  occ. eigenvalues --   -0.38729  -0.37926  -0.37798  -0.35883  -0.33773
 Alpha  occ. eigenvalues --   -0.25967  -0.25000  -0.24197  -0.23470
 Alpha virt. eigenvalues --    0.02392   0.03307   0.06565   0.08275   0.12269
 Alpha virt. eigenvalues --    0.12640   0.13657   0.15278   0.15504   0.16018
 Alpha virt. eigenvalues --    0.16364   0.17811   0.18198   0.18361   0.19779

 Mulliken atomic charges:
              1
     1  H    0.152401
     2  C   -0.549396
     3  H    0.186548
     4  H    0.181313
     5  C    0.599867
     6  O   -0.482892
     7  N   -0.601609
     8  H    0.314455
     9  C   -0.004223
    10  H    0.129588
    11  C   -0.470971
    12  H    0.183697
    13  H    0.163675
    14  H    0.143296
    15  C    0.633054
    16  O   -0.518059
    17  N   -0.594690
    18  H    0.323971
    19  C   -0.305230
    20  H    0.169702
    21  H    0.149445
    22  H    0.196059
 Sum of Mulliken atomic charges =   0.00000

 Dipole moment (field-independent basis, Debye):
    X=              0.2793    Y=              3.6981    Z=             -2.1081  Tot=              4.2659
 Quadrupole moment (field-independent basis, Debye-Ang):
   XX=            -46.6016   YY=            -61.3476   ZZ=            -61.3173
   XY=             -4.4913   XZ=             -5.0685   YZ=              0.0402

 Normal termination of Gaussian 09 at Fri Feb 10 18:38:08 2017.
