 Gaussian 09, Revision A.02,
 Gaussian 09:  EM64L-G09RevA.02 11-Jun-2009

 ----------------------------------------------------------------------
 # b3lyp/6-31G* Opt=(ModRedundant, maxcycles=1000, calcfc) geom=nocrowd
 ----------------------------------------------------------------------

 ------------------
 Phi Psi fixed scan
 ------------------
 Symbolic Z-matrix:
 Charge =  0 Multiplicity = 1

 SCF Done:  E(RB3LYP) =  -495.485995426     A.U. after   25 cycles

  Exact polarizability:   0.000   0.000   0.000   0.000   0.000   0.000
 Approx polarizability: 333.717  33.328 191.441   0.545 -22.307  88.999

 SCF Done:  E(RB3LYP) =  -495.576421278     A.U. after   21 cycles
 SCF Done:  E(RB3LYP) =  -495.682557236     A.U. after   15 cycles
 SCF Done:  E(RB3LYP) =  -495.739246979     A.U. after   16 cycles
 SCF Done:  E(RB3LYP) =  -495.767007629     A.U. after   15 cycles
 SCF Done:  E(RB3LYP) =  -495.801934522     A.U. after   14 cycles
 SCF Done:  E(RB3LYP) =  -495.352104079     A.U. after   15 cycles
 SCF Done:  E(RB3LYP) =  -495.438456946     A.U. after   12 cycles
 SCF Done:  E(RB3LYP) =  -495.511219975     A.U. after   12 cycles
 SCF Done:  E(RB3LYP) =  -495.572300077     A.U. after   12 cycles
 SCF Done:  E(RB3LYP) =  -495.815358901     A.U. after   15 cycles
 SCF Done:  E(RB3LYP) =  -495.815415231     A.U. after   13 cycles
 SCF Done:  E(RB3LYP) =  -495.815397278     A.U. after   12 cycles
 SCF Done:  E(RB3LYP) =  -495.815449594     A.U. after   11 cycles
 SCF Done:  E(RB3LYP) =  -495.815480443     A.U. after   12 cycles
 SCF Done:  E(RB3LYP) =  -495.815498924     A.U. after   11 cycles
 SCF Done:  E(RB3LYP) =  -495.815502040     A.U. after   10 cycles
 SCF Done:  E(RB3LYP) =  -495.815503881     A.U. after    9 cycles
 SCF Done:  E(RB3LYP) =  -495.815504294     A.U. after   10 cycles
 SCF Done:  E(RB3LYP) =  -495.815504520     A.U. after    9 cycles
 Optimization completed.
    -- Stationary point found.

                         Standard orientation:
 ---------------------------------------------------------------------
 Center     Atomic      Atomic             Coordinates (Angstroms)
 Number     Number       Type             X           Y           Z
 ---------------------------------------------------------------------
      1          1           0       -4.090873   -1.065102   -0.090173
      2          6           0       -3.428115   -0.350984   -0.580446
      3          1           0       -3.902383    0.638179   -0.579996
      4          1           0       -3.289792   -0.656425   -1.625059
      5          6           0       -2.084869   -0.351956    0.152297
      6          8           0       -1.802559   -1.199510    0.971448
      7          7           0       -1.306533    0.766819   -0.162420
      8          1           0       -1.794378    1.373518   -0.810360
      9          6           0        0.142780    0.987973   -0.316176
     10          1           0        0.306821    1.269062   -1.366511
     11          6           0        0.532828    2.192505    0.570966
     12          1           0        0.481534    1.914482    1.628018
     13          1           0        1.535570    2.580339    0.356767
     14          1           0       -0.171118    3.014313    0.404754
     15          6           0        1.078937   -0.228454   -0.099952
     16          8           0        0.711801   -1.381011    0.029328
     17          7           0        2.407088    0.093784   -0.268607
     18          1           0        2.688963    1.061882   -0.241234
     19          6           0        3.447155   -0.911721   -0.123855
     20          1           0        4.274979   -0.687063   -0.803560
     21          1           0        3.834322   -0.967458    0.902421
     22          1           0        3.016229   -1.879955   -0.381085
 ---------------------------------------------------------------------

 The electronic state is 1-A.
 Alpha  occ. eigenvalues --  -19.10814 -19.09705 -14.35880 -14.35103 -10.28636
 Alpha  occ. eigenvalues --  -10.27748 -10.24884 -10.21578 -10.19693 -10.18341
 Alpha  occ. eigenvalues --   -1.03239  -1.01399  -0.91880  -0.91311  -0.78290
 Alpha  occ. eigenvalues --   -0.72229  -0.70337  -0.64961  -0.59019  -0.56788
 Alpha  occ. eigenvalues --   -0.51524  -0.49257  -0.45979  -0.45130  -0.44273
 Alpha  occ. eigenvalues --   -0.44071  -0.42830  -0.41572  -0.40392  -0.39059
 Alpha  occ. eigenvalues --   -0.38827  -0.38100  -0.37374  -0.35916  -0.33896
 Alpha  occ. eigenvalues --   -0.25902  -0.24770  -0.24425  -0.22075
 Alpha virt. eigenvalues --    0.02203   0.03360   0.06099   0.07885   0.11884
 Alpha virt. eigenvalues --    0.12738   0.13363   0.14590   0.15134   0.16108
 Alpha virt. eigenvalues --    0.16712   0.16779   0.17771   0.19201   0.19325

 Mulliken atomic charges:
              1
     1  H    0.186425
     2  C   -0.551723
     3  H    0.152078
     4  H    0.170246
     5  C    0.594886
     6  O   -0.453300
     7  N   -0.605891
     8  H    0.313793
     9  C   -0.046666
    10  H    0.160266
    11  C   -0.443069
    12  H    0.181300
    13  H    0.130000
    14  H    0.153028
    15  C    0.603521
    16  O   -0.478169
    17  N   -0.595985
    18  H    0.321549
    19  C   -0.304127
    20  H    0.150301
    21  H    0.159402
    22  H    0.202136
 Sum of Mulliken atomic charges =   0.00000

 Dipole moment (field-independent basis, Debye):
    X=              1.8951    Y=              5.0041    Z=             -2.7557  Tot=              6.0188
 Quadrupole moment (field-independent basis, Debye-Ang):
   XX=            -47.6303   YY=            -61.9517   ZZ=            -60.7338
   XY=             -1.9223   XZ=              4.8049   YZ=              1.2114

 Normal termination of Gaussian 09 at Fri Feb 10 19:09:48 2017.
