 Gaussian 09, Revision A.02,
 Gaussian 09:  EM64L-G09RevA.02 11-Jun-2009

 ----------------------------------------------------------------------
 # b3lyp/6-31G* Opt=(ModRedundant, maxcycles=1000, calcfc) geom=nocrowd
 ----------------------------------------------------------------------

 ------------------
 Phi Psi fixed scan
 ------------------
 Symbolic Z-matrix:
 Charge =  0 Multiplicity = 1

 SCF Done:  E(RB3LYP) =  -495.718773705     A.U. after   16 cycles

  Exact polarizability:   0.000   0.000   0.000   0.000   0.000   0.000
 Approx polarizability: 127.366  -5.645 130.791 -14.641 -11.374 101.749

 SCF Done:  E(RB3LYP) =  -495.755079513     A.U. after   14 cycles
 SCF Done:  E(RB3LYP) =  -495.808489924     A.U. after   14 cycles
 SCF Done:  E(RB3LYP) =  -495.793067996     A.U. after   16 cycles
 SCF Done:  E(RB3LYP) =  -495.818992544     A.U. after   14 cycles
 SCF Done:  E(RB3LYP) =  -495.826678745     A.U. after   13 cycles
 SCF Done:  E(RB3LYP) =  -495.830749861     A.U. after   13 cycles
 SCF Done:  E(RB3LYP) =  -495.833127723     A.U. after   13 cycles
 SCF Done:  E(RB3LYP) =  -495.834394499     A.U. after   14 cycles
 SCF Done:  E(RB3LYP) =  -495.809357476     A.U. after   15 cycles
 SCF Done:  E(RB3LYP) =  -495.840031959     A.U. after   12 cycles
 SCF Done:  E(RB3LYP) =  -495.840055046     A.U. after   10 cycles
 SCF Done:  E(RB3LYP) =  -495.840072174     A.U. after   10 cycles
 SCF Done:  E(RB3LYP) =  -495.840094237     A.U. after   10 cycles
 SCF Done:  E(RB3LYP) =  -495.840113896     A.U. after   10 cycles
 SCF Done:  E(RB3LYP) =  -495.840128872     A.U. after   10 cycles
 SCF Done:  E(RB3LYP) =  -495.840152786     A.U. after   11 cycles
 SCF Done:  E(RB3LYP) =  -495.840157018     A.U. after    8 cycles
 SCF Done:  E(RB3LYP) =  -495.840157371     A.U. after    9 cycles
 SCF Done:  E(RB3LYP) =  -495.840157363     A.U. after    7 cycles
 Optimization completed.
    -- Stationary point found.

                         Standard orientation:
 ---------------------------------------------------------------------
 Center     Atomic      Atomic             Coordinates (Angstroms)
 Number     Number       Type             X           Y           Z
 ---------------------------------------------------------------------
      1          1           0       -3.699332   -1.017058   -1.032067
      2          6           0       -3.390288   -0.482628   -0.127965
      3          1           0       -3.775917   -1.042494    0.728692
      4          1           0       -3.841194    0.514397   -0.137353
      5          6           0       -1.867595   -0.486480   -0.064202
      6          8           0       -1.262471   -1.553642    0.039946
      7          7           0       -1.292510    0.746908   -0.113889
      8          1           0       -1.949812    1.513243   -0.175627
      9          6           0        0.101760    1.225095   -0.252624
     10          1           0        0.140535    1.780496   -1.195075
     11          6           0        0.414990    2.197958    0.900155
     12          1           0        0.410053    1.670635    1.858796
     13          1           0        1.400913    2.645264    0.745089
     14          1           0       -0.325896    3.005969    0.941334
     15          6           0        1.298416    0.248641   -0.381783
     16          8           0        2.227763    0.616782   -1.094753
     17          7           0        1.363498   -0.823916    0.448682
     18          1           0        0.462261   -1.261499    0.643699
     19          6           0        2.522941   -1.702276    0.368349
     20          1           0        3.435042   -1.106060    0.439294
     21          1           0        2.485408   -2.408210    1.201868
     22          1           0        2.557342   -2.262608   -0.575321
 ---------------------------------------------------------------------

 The electronic state is 1-A.
 Alpha  occ. eigenvalues --  -19.12368 -19.10366 -14.37826 -14.33802 -10.30510
 Alpha  occ. eigenvalues --  -10.27844 -10.24452 -10.20334 -10.20275 -10.19203
 Alpha  occ. eigenvalues --   -1.04278  -1.02207  -0.93647  -0.90273  -0.78805
 Alpha  occ. eigenvalues --   -0.73668  -0.69624  -0.64815  -0.60408  -0.55744
 Alpha  occ. eigenvalues --   -0.52440  -0.50425  -0.47458  -0.45970  -0.44971
 Alpha  occ. eigenvalues --   -0.43195  -0.42352  -0.41572  -0.41216  -0.40741
 Alpha  occ. eigenvalues --   -0.38813  -0.37617  -0.36900  -0.36222  -0.34806
 Alpha  occ. eigenvalues --   -0.27078  -0.26511  -0.24438  -0.23570
 Alpha virt. eigenvalues --    0.01507   0.02621   0.05366   0.11021   0.12289
 Alpha virt. eigenvalues --    0.12569   0.14026   0.15136   0.16149   0.16505
 Alpha virt. eigenvalues --    0.16672   0.17589   0.17942   0.18730   0.19414

 Mulliken atomic charges:
              1
     1  H    0.192359
     2  C   -0.532982
     3  H    0.190069
     4  H    0.145202
     5  C    0.605244
     6  O   -0.527744
     7  N   -0.605480
     8  H    0.327104
     9  C   -0.030562
    10  H    0.175689
    11  C   -0.448322
    12  H    0.167747
    13  H    0.179864
    14  H    0.138215
    15  C    0.582734
    16  O   -0.521888
    17  N   -0.596163
    18  H    0.370625
    19  C   -0.301811
    20  H    0.178618
    21  H    0.149445
    22  H    0.162035
 Sum of Mulliken atomic charges =   0.00000

 Dipole moment (field-independent basis, Debye):
    X=             -3.6926    Y=              1.6621    Z=              1.4376  Tot=              4.2971
 Quadrupole moment (field-independent basis, Debye-Ang):
   XX=            -57.1963   YY=            -58.2317   ZZ=            -62.0297
   XY=             -7.7752   XZ=              5.5453   YZ=              0.4019

 Normal termination of Gaussian 09 at Fri Feb 10 18:22:37 2017.
