 Gaussian 09, Revision A.02,
 Gaussian 09:  EM64L-G09RevA.02 11-Jun-2009

 ----------------------------------------------------------------------
 # b3lyp/6-31G* Opt=(ModRedundant, maxcycles=1000, calcfc) geom=nocrowd
 ----------------------------------------------------------------------

 ------------------
 Phi Psi fixed scan
 ------------------
 Symbolic Z-matrix:
 Charge =  0 Multiplicity = 1

 SCF Done:  E(RB3LYP) =  -495.535581332     A.U. after   20 cycles

  Exact polarizability:   0.000   0.000   0.000   0.000   0.000   0.000
 Approx polarizability: 194.940  -3.451 145.898 -12.807 -14.463  94.636

 SCF Done:  E(RB3LYP) =  -495.604886383     A.U. after   16 cycles
 SCF Done:  E(RB3LYP) =  -495.705517014     A.U. after   15 cycles
 SCF Done:  E(RB3LYP) =  -495.765679916     A.U. after   14 cycles
 SCF Done:  E(RB3LYP) =  -495.810994285     A.U. after   13 cycles
 SCF Done:  E(RB3LYP) =  -495.823832345     A.U. after   14 cycles
 SCF Done:  E(RB3LYP) =  -495.811531540     A.U. after   15 cycles
 SCF Done:  E(RB3LYP) =  -495.827045798     A.U. after   13 cycles
 SCF Done:  E(RB3LYP) =  -495.831215923     A.U. after   13 cycles
 SCF Done:  E(RB3LYP) =  -495.827480494     A.U. after   14 cycles
 SCF Done:  E(RB3LYP) =  -495.841056448     A.U. after   12 cycles
 SCF Done:  E(RB3LYP) =  -495.841066109     A.U. after   11 cycles
 SCF Done:  E(RB3LYP) =  -495.841069391     A.U. after   10 cycles
 SCF Done:  E(RB3LYP) =  -495.841070938     A.U. after   10 cycles
 SCF Done:  E(RB3LYP) =  -495.841071524     A.U. after    7 cycles
 SCF Done:  E(RB3LYP) =  -495.841071907     A.U. after    9 cycles
 SCF Done:  E(RB3LYP) =  -495.841072113     A.U. after    9 cycles
 SCF Done:  E(RB3LYP) =  -495.841072153     A.U. after    7 cycles
 SCF Done:  E(RB3LYP) =  -495.841072147     A.U. after    7 cycles
 SCF Done:  E(RB3LYP) =  -495.841072112     A.U. after    7 cycles
 Optimization completed.
    -- Stationary point found.

                         Standard orientation:
 ---------------------------------------------------------------------
 Center     Atomic      Atomic             Coordinates (Angstroms)
 Number     Number       Type             X           Y           Z
 ---------------------------------------------------------------------
      1          1           0       -3.755121   -1.023458   -0.950840
      2          6           0       -3.409952   -0.424187   -0.102671
      3          1           0       -3.797125   -0.894136    0.806165
      4          1           0       -3.826865    0.583761   -0.189166
      5          6           0       -1.887117   -0.478947   -0.064701
      6          8           0       -1.325878   -1.569060    0.059135
      7          7           0       -1.274212    0.731934   -0.162655
      8          1           0       -1.916756    1.509917   -0.233817
      9          6           0        0.126924    1.206511   -0.280950
     10          1           0        0.187833    1.720908   -1.245954
     11          6           0        0.386057    2.241006    0.831758
     12          1           0        0.354731    1.760878    1.815112
     13          1           0        1.370029    2.692437    0.684709
     14          1           0       -0.368566    3.036924    0.809696
     15          6           0        1.352884    0.257744   -0.321636
     16          8           0        2.368117    0.728491   -0.831732
     17          7           0        1.314638   -0.928746    0.320979
     18          1           0        0.392668   -1.357074    0.432984
     19          6           0        2.489765   -1.786541    0.306956
     20          1           0        3.367901   -1.211783    0.610447
     21          1           0        2.331705   -2.607619    1.010552
     22          1           0        2.687315   -2.202040   -0.689914
 ---------------------------------------------------------------------

 The electronic state is 1-A.
 Alpha  occ. eigenvalues --  -19.12647 -19.09917 -14.37991 -14.33752 -10.30731
 Alpha  occ. eigenvalues --  -10.27722 -10.24573 -10.20388 -10.20384 -10.19104
 Alpha  occ. eigenvalues --   -1.04472  -1.01938  -0.93798  -0.90208  -0.78835
 Alpha  occ. eigenvalues --   -0.73698  -0.69786  -0.64793  -0.60477  -0.56019
 Alpha  occ. eigenvalues --   -0.52437  -0.50623  -0.47591  -0.45970  -0.45086
 Alpha  occ. eigenvalues --   -0.43015  -0.42492  -0.41677  -0.41299  -0.40696
 Alpha  occ. eigenvalues --   -0.38784  -0.37513  -0.37018  -0.36424  -0.34485
 Alpha  occ. eigenvalues --   -0.27044  -0.26622  -0.24227  -0.23574
 Alpha virt. eigenvalues --    0.01485   0.03130   0.05240   0.11046   0.12410
 Alpha virt. eigenvalues --    0.12524   0.13901   0.15177   0.16200   0.16458
 Alpha virt. eigenvalues --    0.16649   0.17441   0.18180   0.18827   0.19709

 Mulliken atomic charges:
              1
     1  H    0.192631
     2  C   -0.532049
     3  H    0.190897
     4  H    0.145610
     5  C    0.606606
     6  O   -0.527981
     7  N   -0.607103
     8  H    0.328159
     9  C   -0.029957
    10  H    0.176708
    11  C   -0.449622
    12  H    0.164440
    13  H    0.187229
    14  H    0.136052
    15  C    0.587921
    16  O   -0.533037
    17  N   -0.610084
    18  H    0.382679
    19  C   -0.299424
    20  H    0.178069
    21  H    0.150503
    22  H    0.161754
 Sum of Mulliken atomic charges =   0.00000

 Dipole moment (field-independent basis, Debye):
    X=             -3.8957    Y=              1.4541    Z=              0.9705  Tot=              4.2699
 Quadrupole moment (field-independent basis, Debye-Ang):
   XX=            -58.7635   YY=            -58.4650   ZZ=            -60.9399
   XY=             -8.8025   XZ=              4.8109   YZ=              0.4695

 Normal termination of Gaussian 09 at Fri Feb 10 18:29:04 2017.
