 Gaussian 09, Revision A.02,
 Gaussian 09:  EM64L-G09RevA.02 11-Jun-2009

 ----------------------------------------------------------------------
 # b3lyp/6-31G* Opt=(ModRedundant, maxcycles=1000, calcfc) geom=nocrowd
 ----------------------------------------------------------------------

 ------------------
 Phi Psi fixed scan
 ------------------
 Symbolic Z-matrix:
 Charge =  0 Multiplicity = 1

 SCF Done:  E(RB3LYP) =  -495.806388975     A.U. after   16 cycles

  Exact polarizability:   0.000   0.000   0.000   0.000   0.000   0.000
 Approx polarizability: 112.818   9.378 122.732   7.592  -4.847 105.659

 SCF Done:  E(RB3LYP) =  -495.816649964     A.U. after   13 cycles
 SCF Done:  E(RB3LYP) =  -495.827723135     A.U. after   13 cycles
 SCF Done:  E(RB3LYP) =  -495.832508708     A.U. after   13 cycles
 SCF Done:  E(RB3LYP) =  -495.825769834     A.U. after   15 cycles
 SCF Done:  E(RB3LYP) =  -495.828805143     A.U. after   12 cycles
 SCF Done:  E(RB3LYP) =  -495.832631323     A.U. after   15 cycles
 SCF Done:  E(RB3LYP) =  -495.833854429     A.U. after   12 cycles
 SCF Done:  E(RB3LYP) =  -495.827387179     A.U. after   13 cycles
 SCF Done:  E(RB3LYP) =  -495.834714899     A.U. after   13 cycles
 SCF Done:  E(RB3LYP) =  -495.835663045     A.U. after   12 cycles
 SCF Done:  E(RB3LYP) =  -495.835688130     A.U. after   11 cycles
 SCF Done:  E(RB3LYP) =  -495.835697840     A.U. after   10 cycles
 SCF Done:  E(RB3LYP) =  -495.835702824     A.U. after   10 cycles
 SCF Done:  E(RB3LYP) =  -495.835705607     A.U. after   10 cycles
 SCF Done:  E(RB3LYP) =  -495.835706543     A.U. after    8 cycles
 SCF Done:  E(RB3LYP) =  -495.835706604     A.U. after    6 cycles
 SCF Done:  E(RB3LYP) =  -495.835706685     A.U. after    7 cycles
 SCF Done:  E(RB3LYP) =  -495.835706732     A.U. after    6 cycles
 SCF Done:  E(RB3LYP) =  -495.835706759     A.U. after    7 cycles
 Optimization completed.
    -- Stationary point found.

                         Standard orientation:
 ---------------------------------------------------------------------
 Center     Atomic      Atomic             Coordinates (Angstroms)
 Number     Number       Type             X           Y           Z
 ---------------------------------------------------------------------
      1          1           0        3.498702   -1.561071   -0.788124
      2          6           0        3.226703   -0.763035   -0.094794
      3          1           0        3.829070    0.126361   -0.308906
      4          1           0        3.462666   -1.101616    0.921200
      5          6           0        1.728740   -0.511372   -0.201561
      6          8           0        0.941572   -1.394153   -0.511129
      7          7           0        1.346000    0.788121    0.041276
      8          1           0        2.080585    1.405273    0.364240
      9          6           0       -0.006009    1.232420    0.422302
     10          1           0        0.049403    1.592797    1.456116
     11          6           0       -0.451935    2.391197   -0.479765
     12          1           0       -0.461932    2.098568   -1.535704
     13          1           0       -1.449831    2.743452   -0.200204
     14          1           0        0.244898    3.232446   -0.386974
     15          6           0       -1.007041    0.052389    0.530890
     16          8           0       -1.064982   -0.593207    1.566835
     17          7           0       -1.912950   -0.084366   -0.485097
     18          1           0       -1.631795    0.273248   -1.388292
     19          6           0       -2.770894   -1.262191   -0.504786
     20          1           0       -3.228886   -1.377865    0.478698
     21          1           0       -3.552982   -1.122430   -1.255842
     22          1           0       -2.201359   -2.173020   -0.728832
 ---------------------------------------------------------------------

 The electronic state is 1-A.
 Alpha  occ. eigenvalues --  -19.11078 -19.09950 -14.36356 -14.34968 -10.28915
 Alpha  occ. eigenvalues --  -10.27747 -10.23911 -10.20514 -10.19318 -10.19306
 Alpha  occ. eigenvalues --   -1.03335  -1.01778  -0.92379  -0.90820  -0.78198
 Alpha  occ. eigenvalues --   -0.73002  -0.69506  -0.64748  -0.59230  -0.56497
 Alpha  occ. eigenvalues --   -0.51990  -0.49683  -0.46939  -0.45219  -0.43835
 Alpha  occ. eigenvalues --   -0.43538  -0.42240  -0.41399  -0.40121  -0.39763
 Alpha  occ. eigenvalues --   -0.38715  -0.37645  -0.37219  -0.36072  -0.34395
 Alpha  occ. eigenvalues --   -0.25864  -0.24841  -0.24719  -0.23320
 Alpha virt. eigenvalues --    0.02089   0.03168   0.06613   0.08775   0.11584
 Alpha virt. eigenvalues --    0.13323   0.13792   0.15108   0.15312   0.16075
 Alpha virt. eigenvalues --    0.16717   0.17560   0.18403   0.19124   0.20015

 Mulliken atomic charges:
              1
     1  H    0.187706
     2  C   -0.544981
     3  H    0.149346
     4  H    0.187062
     5  C    0.601260
     6  O   -0.498306
     7  N   -0.599797
     8  H    0.320037
     9  C   -0.030443
    10  H    0.170305
    11  C   -0.451036
    12  H    0.149139
    13  H    0.166201
    14  H    0.145161
    15  C    0.617618
    16  O   -0.516950
    17  N   -0.581009
    18  H    0.325358
    19  C   -0.305277
    20  H    0.187556
    21  H    0.143740
    22  H    0.177308
 Sum of Mulliken atomic charges =   0.00000

 Dipole moment (field-independent basis, Debye):
    X=              1.6174    Y=              3.5549    Z=             -1.8812  Tot=              4.3350
 Quadrupole moment (field-independent basis, Debye-Ang):
   XX=            -49.5849   YY=            -59.7054   ZZ=            -62.5131
   XY=              2.7949   XZ=              6.1961   YZ=              2.1908

 Normal termination of Gaussian 09 at Fri Feb 10 18:13:34 2017.
