 Gaussian 09, Revision A.02,
 Gaussian 09:  EM64L-G09RevA.02 11-Jun-2009

 ----------------------------------------------------------------------
 # b3lyp/6-31G* Opt=(ModRedundant, maxcycles=1000, calcfc) geom=nocrowd
 ----------------------------------------------------------------------

 ------------------
 Phi Psi fixed scan
 ------------------
 Symbolic Z-matrix:
 Charge =  0 Multiplicity = 1

 SCF Done:  E(RB3LYP) =  -495.784645691     A.U. after   16 cycles

  Exact polarizability:   0.000   0.000   0.000   0.000   0.000   0.000
 Approx polarizability: 118.520   4.929 126.872  10.474  -4.558  97.693

 SCF Done:  E(RB3LYP) =  -495.800855167     A.U. after   13 cycles
 SCF Done:  E(RB3LYP) =  -495.820453456     A.U. after   13 cycles
 SCF Done:  E(RB3LYP) =  -495.816708466     A.U. after   15 cycles
 SCF Done:  E(RB3LYP) =  -495.827984138     A.U. after   13 cycles
 SCF Done:  E(RB3LYP) =  -495.829164784     A.U. after   11 cycles
 SCF Done:  E(RB3LYP) =  -495.830845055     A.U. after   12 cycles
 SCF Done:  E(RB3LYP) =  -495.831434716     A.U. after   12 cycles
 SCF Done:  E(RB3LYP) =  -495.831759538     A.U. after   12 cycles
 SCF Done:  E(RB3LYP) =  -495.831740326     A.U. after   12 cycles
 SCF Done:  E(RB3LYP) =  -495.832887592     A.U. after   10 cycles
 SCF Done:  E(RB3LYP) =  -495.832967021     A.U. after   11 cycles
 SCF Done:  E(RB3LYP) =  -495.832983003     A.U. after   10 cycles
 SCF Done:  E(RB3LYP) =  -495.832996927     A.U. after   10 cycles
 SCF Done:  E(RB3LYP) =  -495.833004128     A.U. after   10 cycles
 SCF Done:  E(RB3LYP) =  -495.833010325     A.U. after   10 cycles
 SCF Done:  E(RB3LYP) =  -495.833013560     A.U. after   10 cycles
 SCF Done:  E(RB3LYP) =  -495.833014788     A.U. after    8 cycles
 SCF Done:  E(RB3LYP) =  -495.833014902     A.U. after    7 cycles
 SCF Done:  E(RB3LYP) =  -495.833014987     A.U. after    6 cycles
 Optimization completed.
    -- Stationary point found.

                         Standard orientation:
 ---------------------------------------------------------------------
 Center     Atomic      Atomic             Coordinates (Angstroms)
 Number     Number       Type             X           Y           Z
 ---------------------------------------------------------------------
      1          1           0        3.602162   -1.501131   -0.687739
      2          6           0        3.265205   -0.698561   -0.029740
      3          1           0        3.874619    0.195407   -0.203519
      4          1           0        3.415943   -1.017407    1.008877
      5          6           0        1.782475   -0.454114   -0.272804
      6          8           0        1.050341   -1.298414   -0.763178
      7          7           0        1.349953    0.818774    0.050794
      8          1           0        2.049002    1.390495    0.509949
      9          6           0       -0.021850    1.175795    0.455187
     10          1           0        0.017033    1.467576    1.512058
     11          6           0       -0.507075    2.378388   -0.365778
     12          1           0       -0.519291    2.148233   -1.437502
     13          1           0       -1.506974    2.695674   -0.052095
     14          1           0        0.174286    3.225760   -0.229945
     15          6           0       -0.966914   -0.053954    0.484389
     16          8           0       -0.829272   -0.897269    1.358479
     17          7           0       -2.056949   -0.012540   -0.339377
     18          1           0       -1.989686    0.556012   -1.171921
     19          6           0       -2.950365   -1.161216   -0.400290
     20          1           0       -3.164075   -1.488841    0.618258
     21          1           0       -3.881148   -0.865593   -0.891857
     22          1           0       -2.500302   -2.002379   -0.942666
 ---------------------------------------------------------------------

 The electronic state is 1-A.
 Alpha  occ. eigenvalues --  -19.10799 -19.09848 -14.35872 -14.35389 -10.28507
 Alpha  occ. eigenvalues --  -10.27841 -10.23991 -10.20879 -10.19299 -10.18986
 Alpha  occ. eigenvalues --   -1.03133  -1.01681  -0.92028  -0.91078  -0.78083
 Alpha  occ. eigenvalues --   -0.72784  -0.69754  -0.64754  -0.58878  -0.56750
 Alpha  occ. eigenvalues --   -0.51864  -0.49706  -0.46639  -0.45034  -0.43969
 Alpha  occ. eigenvalues --   -0.43549  -0.42282  -0.41420  -0.40057  -0.39476
 Alpha  occ. eigenvalues --   -0.38691  -0.37894  -0.37295  -0.36096  -0.33949
 Alpha  occ. eigenvalues --   -0.25657  -0.24957  -0.24191  -0.23496
 Alpha virt. eigenvalues --    0.02113   0.03136   0.06990   0.08767   0.11672
 Alpha virt. eigenvalues --    0.13229   0.14050   0.15049   0.15336   0.16018
 Alpha virt. eigenvalues --    0.16446   0.17201   0.18533   0.19018   0.19677

 Mulliken atomic charges:
              1
     1  H    0.187350
     2  C   -0.548247
     3  H    0.152053
     4  H    0.184351
     5  C    0.602063
     6  O   -0.489083
     7  N   -0.595608
     8  H    0.317350
     9  C   -0.028763
    10  H    0.169507
    11  C   -0.459996
    12  H    0.155681
    13  H    0.160207
    14  H    0.148666
    15  C    0.624773
    16  O   -0.521099
    17  N   -0.593533
    18  H    0.327025
    19  C   -0.303532
    20  H    0.190742
    21  H    0.145333
    22  H    0.174759
 Sum of Mulliken atomic charges =   0.00000

 Dipole moment (field-independent basis, Debye):
    X=              0.6055    Y=              4.0054    Z=             -0.9102  Tot=              4.1519
 Quadrupole moment (field-independent basis, Debye-Ang):
   XX=            -47.6997   YY=            -60.5837   ZZ=            -62.1027
   XY=              2.2780   XZ=              6.4209   YZ=              1.8971

 Normal termination of Gaussian 09 at Fri Feb 10 18:14:13 2017.
