 Gaussian 09, Revision A.02,
 Gaussian 09:  EM64L-G09RevA.02 11-Jun-2009

 ----------------------------------------------------------------------
 # b3lyp/6-31G* Opt=(ModRedundant, maxcycles=1000, calcfc) geom=nocrowd
 ----------------------------------------------------------------------

 ------------------
 Phi Psi fixed scan
 ------------------
 Symbolic Z-matrix:
 Charge =  0 Multiplicity = 1

 SCF Done:  E(RB3LYP) =  -495.675270796     A.U. after   19 cycles

  Exact polarizability:   0.000   0.000   0.000   0.000   0.000   0.000
 Approx polarizability: 155.862   7.959 131.627  -6.240 -20.362  95.776

 SCF Done:  E(RB3LYP) =  -495.707410534     A.U. after   15 cycles
 SCF Done:  E(RB3LYP) =  -495.755041583     A.U. after   15 cycles
 SCF Done:  E(RB3LYP) =  -495.790159492     A.U. after   14 cycles
 SCF Done:  E(RB3LYP) =  -495.806163012     A.U. after   13 cycles
 SCF Done:  E(RB3LYP) =  -495.818411959     A.U. after   15 cycles
 SCF Done:  E(RB3LYP) =  -495.816541303     A.U. after   16 cycles
 SCF Done:  E(RB3LYP) =  -495.820853991     A.U. after   14 cycles
 SCF Done:  E(RB3LYP) =  -495.822183976     A.U. after   13 cycles
 SCF Done:  E(RB3LYP) =  -495.338117360     A.U. after   14 cycles
 SCF Done:  E(RB3LYP) =  -495.823578332     A.U. after   14 cycles
 SCF Done:  E(RB3LYP) =  -495.827998658     A.U. after   13 cycles
 SCF Done:  E(RB3LYP) =  -495.828021997     A.U. after   11 cycles
 SCF Done:  E(RB3LYP) =  -495.828026872     A.U. after   10 cycles
 SCF Done:  E(RB3LYP) =  -495.828031646     A.U. after   10 cycles
 SCF Done:  E(RB3LYP) =  -495.828033987     A.U. after   12 cycles
 SCF Done:  E(RB3LYP) =  -495.828035301     A.U. after   10 cycles
 SCF Done:  E(RB3LYP) =  -495.828035591     A.U. after    8 cycles
 SCF Done:  E(RB3LYP) =  -495.828035662     A.U. after    7 cycles
 SCF Done:  E(RB3LYP) =  -495.828035640     A.U. after    6 cycles
 Optimization completed.
    -- Stationary point found.

                         Standard orientation:
 ---------------------------------------------------------------------
 Center     Atomic      Atomic             Coordinates (Angstroms)
 Number     Number       Type             X           Y           Z
 ---------------------------------------------------------------------
      1          1           0       -3.226383   -0.165682    1.434332
      2          6           0       -3.303545   -0.409698    0.367651
      3          1           0       -3.893491    0.376869   -0.117639
      4          1           0       -3.821298   -1.364487    0.265578
      5          6           0       -1.907228   -0.542435   -0.228788
      6          8           0       -1.388772   -1.620532   -0.447246
      7          7           0       -1.324943    0.674722   -0.578272
      8          1           0       -1.909052    1.463439   -0.324417
      9          6           0        0.095365    1.034906   -0.482079
     10          1           0        0.450022    1.315856   -1.485450
     11          6           0        0.252040    2.254762    0.443188
     12          1           0       -0.040762    1.985924    1.462924
     13          1           0        1.291368    2.596325    0.456324
     14          1           0       -0.373855    3.086619    0.096998
     15          6           0        1.017105   -0.073971    0.068601
     16          8           0        0.731067   -0.736503    1.052499
     17          7           0        2.295385   -0.008705   -0.430723
     18          1           0        2.417890    0.378941   -1.356789
     19          6           0        3.318660   -0.929625    0.042057
     20          1           0        3.171883   -1.079699    1.112558
     21          1           0        3.261123   -1.908200   -0.452146
     22          1           0        4.306720   -0.495376   -0.135104
 ---------------------------------------------------------------------

 The electronic state is 1-A.
 Alpha  occ. eigenvalues --  -19.10768 -19.10051 -14.36123 -14.35142 -10.28346
 Alpha  occ. eigenvalues --  -10.27852 -10.24302 -10.21567 -10.19668 -10.18456
 Alpha  occ. eigenvalues --   -1.03233  -1.01613  -0.91903  -0.91475  -0.78088
 Alpha  occ. eigenvalues --   -0.72371  -0.70733  -0.64314  -0.58974  -0.56863
 Alpha  occ. eigenvalues --   -0.50333  -0.49800  -0.47520  -0.45843  -0.43900
 Alpha  occ. eigenvalues --   -0.43476  -0.42503  -0.41430  -0.39958  -0.39101
 Alpha  occ. eigenvalues --   -0.38735  -0.38069  -0.37930  -0.36022  -0.33565
 Alpha  occ. eigenvalues --   -0.26187  -0.24941  -0.24294  -0.23033
 Alpha virt. eigenvalues --    0.02172   0.03265   0.06346   0.08189   0.12311
 Alpha virt. eigenvalues --    0.12464   0.13466   0.15212   0.15361   0.16005
 Alpha virt. eigenvalues --    0.16241   0.17457   0.17850   0.18391   0.19704

 Mulliken atomic charges:
              1
     1  H    0.178499
     2  C   -0.550248
     3  H    0.151979
     4  H    0.185929
     5  C    0.600552
     6  O   -0.475429
     7  N   -0.605234
     8  H    0.313237
     9  C   -0.003135
    10  H    0.130955
    11  C   -0.470752
    12  H    0.179113
    13  H    0.164047
    14  H    0.147575
    15  C    0.618135
    16  O   -0.503674
    17  N   -0.593245
    18  H    0.322066
    19  C   -0.304184
    20  H    0.196539
    21  H    0.167138
    22  H    0.150136
 Sum of Mulliken atomic charges =   0.00000

 Dipole moment (field-independent basis, Debye):
    X=              1.1156    Y=              4.4250    Z=             -1.3182  Tot=              4.7500
 Quadrupole moment (field-independent basis, Debye-Ang):
   XX=            -46.5375   YY=            -62.1755   ZZ=            -60.8589
   XY=             -4.5090   XZ=             -5.4449   YZ=             -0.2735

 Normal termination of Gaussian 09 at Fri Feb 10 18:40:49 2017.
