 Gaussian 09, Revision A.02,
 Gaussian 09:  EM64L-G09RevA.02 11-Jun-2009

 ----------------------------------------------------------------------
 # b3lyp/6-31G* Opt=(ModRedundant, maxcycles=1000, calcfc) geom=nocrowd
 ----------------------------------------------------------------------

 ------------------
 Phi Psi fixed scan
 ------------------
 Symbolic Z-matrix:
 Charge =  0 Multiplicity = 1

 SCF Done:  E(RB3LYP) =  -495.571177397     A.U. after   21 cycles

  Exact polarizability:   0.000   0.000   0.000   0.000   0.000   0.000
 Approx polarizability: 226.198  20.345 153.047 -12.930  -9.764  86.107

 SCF Done:  E(RB3LYP) =  -495.643588572     A.U. after   16 cycles
 SCF Done:  E(RB3LYP) =  -495.718618116     A.U. after   15 cycles
 SCF Done:  E(RB3LYP) =  -495.783665258     A.U. after   14 cycles
 SCF Done:  E(RB3LYP) =  -495.793004244     A.U. after   16 cycles
 SCF Done:  E(RB3LYP) =  -495.809467174     A.U. after   14 cycles
 SCF Done:  E(RB3LYP) =  -495.814335271     A.U. after   16 cycles
 SCF Done:  E(RB3LYP) =  -495.793696354     A.U. after   16 cycles
 SCF Done:  E(RB3LYP) =  -495.814694812     A.U. after   16 cycles
 SCF Done:  E(RB3LYP) =  -495.815510732     A.U. after   16 cycles
 SCF Done:  E(RB3LYP) =  -495.819489451     A.U. after   12 cycles
 SCF Done:  E(RB3LYP) =  -495.819480539     A.U. after   12 cycles
 SCF Done:  E(RB3LYP) =  -495.819501595     A.U. after   12 cycles
 SCF Done:  E(RB3LYP) =  -495.819520158     A.U. after   10 cycles
 SCF Done:  E(RB3LYP) =  -495.819549143     A.U. after   10 cycles
 SCF Done:  E(RB3LYP) =  -495.819617377     A.U. after   11 cycles
 SCF Done:  E(RB3LYP) =  -495.819697131     A.U. after   12 cycles
 SCF Done:  E(RB3LYP) =  -495.819713417     A.U. after   11 cycles
 SCF Done:  E(RB3LYP) =  -495.819713650     A.U. after   10 cycles
 SCF Done:  E(RB3LYP) =  -495.819713829     A.U. after    8 cycles
 Optimization completed.
    -- Stationary point found.

                         Standard orientation:
 ---------------------------------------------------------------------
 Center     Atomic      Atomic             Coordinates (Angstroms)
 Number     Number       Type             X           Y           Z
 ---------------------------------------------------------------------
      1          1           0       -3.944220   -1.223761    0.099097
      2          6           0       -3.345058   -0.505501   -0.462119
      3          1           0       -3.896512    0.439067   -0.544836
      4          1           0       -3.187487   -0.893157   -1.476254
      5          6           0       -2.001316   -0.332875    0.239572
      6          8           0       -1.619327   -1.089908    1.108053
      7          7           0       -1.319547    0.827984   -0.141541
      8          1           0       -1.847634    1.351254   -0.830447
      9          6           0        0.120024    1.036475   -0.379811
     10          1           0        0.236792    1.247293   -1.452919
     11          6           0        0.574442    2.284785    0.401133
     12          1           0        0.594320    2.082813    1.477027
     13          1           0        1.558862    2.644736    0.079189
     14          1           0       -0.133967    3.101767    0.231434
     15          6           0        1.014864   -0.211938   -0.179868
     16          8           0        0.614287   -1.346267   -0.378837
     17          7           0        2.358660    0.066392   -0.085982
     18          1           0        2.641088    0.953740    0.303698
     19          6           0        3.314736   -1.027880    0.013047
     20          1           0        3.047422   -1.791737   -0.718851
     21          1           0        4.315534   -0.645926   -0.206076
     22          1           0        3.316178   -1.495716    1.006147
 ---------------------------------------------------------------------

 The electronic state is 1-A.
 Alpha  occ. eigenvalues --  -19.10796 -19.09870 -14.35935 -14.34956 -10.28483
 Alpha  occ. eigenvalues --  -10.27734 -10.24661 -10.21554 -10.19578 -10.18344
 Alpha  occ. eigenvalues --   -1.03272  -1.01460  -0.91749  -0.91290  -0.78124
 Alpha  occ. eigenvalues --   -0.72281  -0.70197  -0.64997  -0.58732  -0.56737
 Alpha  occ. eigenvalues --   -0.51532  -0.49480  -0.46081  -0.45035  -0.44106
 Alpha  occ. eigenvalues --   -0.43853  -0.42754  -0.41501  -0.40230  -0.39114
 Alpha  occ. eigenvalues --   -0.38820  -0.38177  -0.37546  -0.35931  -0.33517
 Alpha  occ. eigenvalues --   -0.25997  -0.24579  -0.24554  -0.22664
 Alpha virt. eigenvalues --    0.01789   0.03063   0.06732   0.08246   0.11686
 Alpha virt. eigenvalues --    0.12898   0.13517   0.14693   0.15033   0.16296
 Alpha virt. eigenvalues --    0.16675   0.17196   0.18061   0.19160   0.19529

 Mulliken atomic charges:
              1
     1  H    0.185889
     2  C   -0.551066
     3  H    0.151556
     4  H    0.175455
     5  C    0.603381
     6  O   -0.465474
     7  N   -0.600266
     8  H    0.311921
     9  C   -0.039262
    10  H    0.169180
    11  C   -0.458259
    12  H    0.175108
    13  H    0.136981
    14  H    0.156087
    15  C    0.602554
    16  O   -0.490504
    17  N   -0.596915
    18  H    0.326992
    19  C   -0.300396
    20  H    0.192920
    21  H    0.147799
    22  H    0.166319
 Sum of Mulliken atomic charges =   0.00000

 Dipole moment (field-independent basis, Debye):
    X=              1.6525    Y=              4.5223    Z=             -2.0464  Tot=              5.2316
 Quadrupole moment (field-independent basis, Debye-Ang):
   XX=            -47.0651   YY=            -61.6956   ZZ=            -61.1696
   XY=             -1.6820   XZ=              6.5593   YZ=              0.5352

 Normal termination of Gaussian 09 at Fri Feb 10 18:39:55 2017.
