 Gaussian 09, Revision A.02,
 Gaussian 09:  EM64L-G09RevA.02 11-Jun-2009

 ----------------------------------------------------------------------
 # b3lyp/6-31G* Opt=(ModRedundant, maxcycles=1000, calcfc) geom=nocrowd
 ----------------------------------------------------------------------

 ------------------
 Phi Psi fixed scan
 ------------------
 Symbolic Z-matrix:
 Charge =  0 Multiplicity = 1

 SCF Done:  E(RB3LYP) =  -495.719420182     A.U. after   16 cycles

  Exact polarizability:   0.000   0.000   0.000   0.000   0.000   0.000
 Approx polarizability: 129.177  -0.777 133.530  13.872   1.587  95.403

 SCF Done:  E(RB3LYP) =  -495.755962608     A.U. after   13 cycles
 SCF Done:  E(RB3LYP) =  -495.809163147     A.U. after   14 cycles
 SCF Done:  E(RB3LYP) =  -495.797490149     A.U. after   15 cycles
 SCF Done:  E(RB3LYP) =  -495.820189155     A.U. after   14 cycles
 SCF Done:  E(RB3LYP) =  -495.827475474     A.U. after   14 cycles
 SCF Done:  E(RB3LYP) =  -495.830901875     A.U. after   13 cycles
 SCF Done:  E(RB3LYP) =  -495.832998190     A.U. after   13 cycles
 SCF Done:  E(RB3LYP) =  -495.834067730     A.U. after   13 cycles
 SCF Done:  E(RB3LYP) =  -495.828512425     A.U. after   15 cycles
 SCF Done:  E(RB3LYP) =  -495.839220794     A.U. after   10 cycles
 SCF Done:  E(RB3LYP) =  -495.839222321     A.U. after    8 cycles
 SCF Done:  E(RB3LYP) =  -495.839224173     A.U. after    8 cycles
 SCF Done:  E(RB3LYP) =  -495.839226776     A.U. after   10 cycles
 SCF Done:  E(RB3LYP) =  -495.839230183     A.U. after   10 cycles
 SCF Done:  E(RB3LYP) =  -495.839232814     A.U. after   10 cycles
 SCF Done:  E(RB3LYP) =  -495.839233441     A.U. after    9 cycles
 SCF Done:  E(RB3LYP) =  -495.839233657     A.U. after    7 cycles
 SCF Done:  E(RB3LYP) =  -495.839233699     A.U. after    7 cycles
 SCF Done:  E(RB3LYP) =  -495.839233742     A.U. after    7 cycles
 Optimization completed.
    -- Stationary point found.

                         Standard orientation:
 ---------------------------------------------------------------------
 Center     Atomic      Atomic             Coordinates (Angstroms)
 Number     Number       Type             X           Y           Z
 ---------------------------------------------------------------------
      1          1           0       -3.727113   -1.397724   -0.437672
      2          6           0       -3.333937   -0.568207    0.156958
      3          1           0       -3.604848   -0.758703    1.200282
      4          1           0       -3.811069    0.362057   -0.166285
      5          6           0       -1.813336   -0.571538    0.048581
      6          8           0       -1.185337   -1.592830    0.328674
      7          7           0       -1.273723    0.601851   -0.384792
      8          1           0       -1.957625    1.320053   -0.581404
      9          6           0        0.102869    1.147632   -0.479412
     10          1           0        0.294265    1.307549   -1.551554
     11          6           0        0.115721    2.511904    0.219716
     12          1           0       -0.062150    2.396161    1.293184
     13          1           0        1.086656    2.989257    0.086117
     14          1           0       -0.660824    3.165322   -0.197548
     15          6           0        1.332000    0.308038   -0.015837
     16          8           0        2.277486    0.903520    0.492387
     17          7           0        1.390549   -0.994594   -0.393639
     18          1           0        0.492780   -1.480783   -0.392597
     19          6           0        2.561993   -1.777658   -0.023605
     20          1           0        3.465756   -1.253507   -0.341548
     21          1           0        2.629488   -1.941704    1.059984
     22          1           0        2.507863   -2.745318   -0.528821
 ---------------------------------------------------------------------

 The electronic state is 1-A.
 Alpha  occ. eigenvalues --  -19.12419 -19.10578 -14.37865 -14.33645 -10.30544
 Alpha  occ. eigenvalues --  -10.27989 -10.24747 -10.20285 -10.20264 -10.18483
 Alpha  occ. eigenvalues --   -1.04325  -1.02379  -0.93706  -0.90211  -0.78641
 Alpha  occ. eigenvalues --   -0.73468  -0.69957  -0.64272  -0.60392  -0.55658
 Alpha  occ. eigenvalues --   -0.51985  -0.50582  -0.48239  -0.45918  -0.44882
 Alpha  occ. eigenvalues --   -0.43425  -0.42123  -0.41606  -0.41162  -0.39853
 Alpha  occ. eigenvalues --   -0.38157  -0.37805  -0.36972  -0.36061  -0.35129
 Alpha  occ. eigenvalues --   -0.27085  -0.26604  -0.24622  -0.23528
 Alpha virt. eigenvalues --    0.01547   0.02242   0.05887   0.10715   0.12377
 Alpha virt. eigenvalues --    0.13305   0.13846   0.14863   0.15507   0.16403
 Alpha virt. eigenvalues --    0.16773   0.17229   0.18433   0.18958   0.20696

 Mulliken atomic charges:
              1
     1  H    0.190200
     2  C   -0.532811
     3  H    0.192393
     4  H    0.145580
     5  C    0.604284
     6  O   -0.527293
     7  N   -0.606163
     8  H    0.327843
     9  C   -0.040550
    10  H    0.177129
    11  C   -0.443918
    12  H    0.165338
    13  H    0.189348
    14  H    0.124696
    15  C    0.594040
    16  O   -0.519420
    17  N   -0.599581
    18  H    0.370830
    19  C   -0.300262
    20  H    0.177609
    21  H    0.161308
    22  H    0.149399
 Sum of Mulliken atomic charges =   0.00000

 Dipole moment (field-independent basis, Debye):
    X=             -3.7236    Y=              1.0767    Z=             -1.6199  Tot=              4.2011
 Quadrupole moment (field-independent basis, Debye-Ang):
   XX=            -57.4377   YY=            -59.5357   ZZ=            -60.3282
   XY=             -8.2452   XZ=             -1.2473   YZ=             -1.1207

 Normal termination of Gaussian 09 at Fri Feb 10 18:34:33 2017.
