 Gaussian 09, Revision A.02,
 Gaussian 09:  EM64L-G09RevA.02 11-Jun-2009

 ----------------------------------------------------------------------
 # b3lyp/6-31G* Opt=(ModRedundant, maxcycles=1000, calcfc) geom=nocrowd
 ----------------------------------------------------------------------

 ------------------
 Phi Psi fixed scan
 ------------------
 Symbolic Z-matrix:
 Charge =  0 Multiplicity = 1

 SCF Done:  E(RB3LYP) =  -495.667855499     A.U. after   18 cycles

  Exact polarizability:   0.000   0.000   0.000   0.000   0.000   0.000
 Approx polarizability: 159.975   9.454 139.163  -0.216  -3.653  85.978

 SCF Done:  E(RB3LYP) =  -495.704506699     A.U. after   15 cycles
 SCF Done:  E(RB3LYP) =  -495.756649156     A.U. after   15 cycles
 SCF Done:  E(RB3LYP) =  -495.791390236     A.U. after   14 cycles
 SCF Done:  E(RB3LYP) =  -495.805084038     A.U. after   13 cycles
 SCF Done:  E(RB3LYP) =  -495.813599002     A.U. after   15 cycles
 SCF Done:  E(RB3LYP) =  -495.772251880     A.U. after   16 cycles
 SCF Done:  E(RB3LYP) =  -495.815591078     A.U. after   14 cycles
 SCF Done:  E(RB3LYP) =  -495.817852445     A.U. after   12 cycles
 SCF Done:  E(RB3LYP) =  -495.796210976     A.U. after   15 cycles
 SCF Done:  E(RB3LYP) =  -495.824649902     A.U. after   10 cycles
 SCF Done:  E(RB3LYP) =  -495.824686575     A.U. after   10 cycles
 SCF Done:  E(RB3LYP) =  -495.824719695     A.U. after   11 cycles
 SCF Done:  E(RB3LYP) =  -495.824733259     A.U. after   10 cycles
 SCF Done:  E(RB3LYP) =  -495.824744951     A.U. after   10 cycles
 SCF Done:  E(RB3LYP) =  -495.824754473     A.U. after   10 cycles
 SCF Done:  E(RB3LYP) =  -495.824758890     A.U. after   10 cycles
 SCF Done:  E(RB3LYP) =  -495.824759539     A.U. after    8 cycles
 SCF Done:  E(RB3LYP) =  -495.824759698     A.U. after    7 cycles
 SCF Done:  E(RB3LYP) =  -495.824759694     A.U. after    6 cycles
 Optimization completed.
    -- Stationary point found.

                         Standard orientation:
 ---------------------------------------------------------------------
 Center     Atomic      Atomic             Coordinates (Angstroms)
 Number     Number       Type             X           Y           Z
 ---------------------------------------------------------------------
      1          1           0       -3.844593   -1.305555    0.331486
      2          6           0       -3.326435   -0.566644   -0.281364
      3          1           0       -3.912714    0.359665   -0.306567
      4          1           0       -3.254331   -0.949444   -1.306906
      5          6           0       -1.927250   -0.353621    0.282950
      6          8           0       -1.414546   -1.124978    1.070529
      7          7           0       -1.333482    0.845495   -0.111422
      8          1           0       -1.919902    1.363941   -0.755446
      9          6           0        0.087898    1.075458   -0.426020
     10          1           0        0.147896    1.286104   -1.503408
     11          6           0        0.577351    2.320938    0.331388
     12          1           0        0.615362    2.131711    1.409886
     13          1           0        1.561722    2.651199   -0.019304
     14          1           0       -0.119750    3.149698    0.170628
     15          6           0        0.976582   -0.186164   -0.287695
     16          8           0        0.615754   -1.261548   -0.739702
     17          7           0        2.281354    0.048532    0.064709
     18          1           0        2.484021    0.855212    0.637256
     19          6           0        3.216419   -1.065535    0.142458
     20          1           0        3.054058   -1.685560    1.033442
     21          1           0        3.079171   -1.696212   -0.737310
     22          1           0        4.236896   -0.673331    0.156312
 ---------------------------------------------------------------------

 The electronic state is 1-A.
 Alpha  occ. eigenvalues --  -19.10449 -19.10104 -14.35917 -14.35123 -10.28282
 Alpha  occ. eigenvalues --  -10.27871 -10.24432 -10.21425 -10.19434 -10.18454
 Alpha  occ. eigenvalues --   -1.03112  -1.01574  -0.91704  -0.91354  -0.78058
 Alpha  occ. eigenvalues --   -0.72393  -0.70101  -0.64926  -0.58664  -0.56814
 Alpha  occ. eigenvalues --   -0.51631  -0.49620  -0.46211  -0.44851  -0.44214
 Alpha  occ. eigenvalues --   -0.43732  -0.42547  -0.41461  -0.40102  -0.38940
 Alpha  occ. eigenvalues --   -0.38897  -0.38219  -0.37555  -0.36008  -0.33475
 Alpha  occ. eigenvalues --   -0.25788  -0.24794  -0.24294  -0.23100
 Alpha virt. eigenvalues --    0.01911   0.02955   0.07194   0.08525   0.11664
 Alpha virt. eigenvalues --    0.13016   0.13941   0.14661   0.15135   0.16263
 Alpha virt. eigenvalues --    0.16621   0.16964   0.18161   0.19106   0.19396

 Mulliken atomic charges:
              1
     1  H    0.185971
     2  C   -0.550762
     3  H    0.151506
     4  H    0.179570
     5  C    0.604524
     6  O   -0.474834
     7  N   -0.595692
     8  H    0.312600
     9  C   -0.034558
    10  H    0.170606
    11  C   -0.464852
    12  H    0.169071
    13  H    0.145009
    14  H    0.154585
    15  C    0.615155
    16  O   -0.504211
    17  N   -0.600833
    18  H    0.329166
    19  C   -0.301707
    20  H    0.169474
    21  H    0.192717
    22  H    0.147494
 Sum of Mulliken atomic charges =   0.00000

 Dipole moment (field-independent basis, Debye):
    X=              1.0878    Y=              4.3875    Z=             -1.1781  Tot=              4.6714
 Quadrupole moment (field-independent basis, Debye-Ang):
   XX=            -46.6546   YY=            -61.5979   ZZ=            -61.3555
   XY=             -1.8326   XZ=              6.7365   YZ=             -0.4047

 Normal termination of Gaussian 09 at Fri Feb 10 18:19:36 2017.
