 Gaussian 09, Revision A.02,
 Gaussian 09:  EM64L-G09RevA.02 11-Jun-2009

 ----------------------------------------------------------------------
 # b3lyp/6-31G* Opt=(ModRedundant, maxcycles=1000, calcfc) geom=nocrowd
 ----------------------------------------------------------------------

 ------------------
 Phi Psi fixed scan
 ------------------
 Symbolic Z-matrix:
 Charge =  0 Multiplicity = 1

 SCF Done:  E(RB3LYP) =  -495.816216826     A.U. after   15 cycles

  Exact polarizability:   0.000   0.000   0.000   0.000   0.000   0.000
 Approx polarizability: 113.332 -12.336 111.244  -0.421  -9.261 115.898

 SCF Done:  E(RB3LYP) =  -495.824157343     A.U. after   13 cycles
 SCF Done:  E(RB3LYP) =  -495.832131574     A.U. after   13 cycles
 SCF Done:  E(RB3LYP) =  -495.835019118     A.U. after   13 cycles
 SCF Done:  E(RB3LYP) =  -495.824458908     A.U. after   15 cycles
 SCF Done:  E(RB3LYP) =  -495.830180613     A.U. after   12 cycles
 SCF Done:  E(RB3LYP) =  -495.833840781     A.U. after   12 cycles
 SCF Done:  E(RB3LYP) =  -495.835336227     A.U. after   13 cycles
 SCF Done:  E(RB3LYP) =  -495.836507512     A.U. after   12 cycles
 SCF Done:  E(RB3LYP) =  -495.837726804     A.U. after   12 cycles
 SCF Done:  E(RB3LYP) =  -495.838936881     A.U. after   10 cycles
 SCF Done:  E(RB3LYP) =  -495.838938988     A.U. after    8 cycles
 SCF Done:  E(RB3LYP) =  -495.838940527     A.U. after    8 cycles
 SCF Done:  E(RB3LYP) =  -495.838941572     A.U. after    8 cycles
 SCF Done:  E(RB3LYP) =  -495.838943446     A.U. after    9 cycles
 SCF Done:  E(RB3LYP) =  -495.838951116     A.U. after   10 cycles
 SCF Done:  E(RB3LYP) =  -495.838954587     A.U. after   10 cycles
 SCF Done:  E(RB3LYP) =  -495.838954726     A.U. after    7 cycles
 SCF Done:  E(RB3LYP) =  -495.838954787     A.U. after    7 cycles
 SCF Done:  E(RB3LYP) =  -495.838954767     A.U. after    6 cycles
 Optimization completed.
    -- Stationary point found.

                         Standard orientation:
 ---------------------------------------------------------------------
 Center     Atomic      Atomic             Coordinates (Angstroms)
 Number     Number       Type             X           Y           Z
 ---------------------------------------------------------------------
      1          1           0       -3.348376   -2.013792    0.000433
      2          6           0       -3.124235   -0.960288    0.178838
      3          1           0       -3.346339   -0.741610    1.230071
      4          1           0       -3.774417   -0.339305   -0.446608
      5          6           0       -1.641022   -0.725945   -0.075193
      6          8           0       -0.802129   -1.590436    0.135842
      7          7           0       -1.334009    0.512223   -0.589349
      8          1           0       -2.105170    1.165934   -0.643981
      9          6           0       -0.014048    1.161666   -0.543478
     10          1           0        0.316342    1.330516   -1.578716
     11          6           0       -0.114659    2.511664    0.170865
     12          1           0       -0.333009    2.352421    1.229653
     13          1           0        0.833239    3.053796    0.093789
     14          1           0       -0.896858    3.135600   -0.279015
     15          6           0        1.053646    0.290807    0.167664
     16          8           0        1.168344    0.295789    1.383858
     17          7           0        1.953286   -0.308073   -0.671384
     18          1           0        1.630884   -0.481307   -1.614906
     19          6           0        2.896285   -1.276347   -0.127349
     20          1           0        3.352029   -0.851808    0.768494
     21          1           0        2.397857   -2.213957    0.149794
     22          1           0        3.673353   -1.477705   -0.869562
 ---------------------------------------------------------------------

 The electronic state is 1-A.
 Alpha  occ. eigenvalues --  -19.10994 -19.10244 -14.36293 -14.35167 -10.28851
 Alpha  occ. eigenvalues --  -10.27837 -10.23915 -10.20625 -10.19274 -10.18675
 Alpha  occ. eigenvalues --   -1.03329  -1.01932  -0.92382  -0.90992  -0.77972
 Alpha  occ. eigenvalues --   -0.72810  -0.70239  -0.63811  -0.59289  -0.56561
 Alpha  occ. eigenvalues --   -0.50955  -0.49886  -0.47608  -0.45752  -0.44189
 Alpha  occ. eigenvalues --   -0.43434  -0.41770  -0.41385  -0.39916  -0.39225
 Alpha  occ. eigenvalues --   -0.38286  -0.37674  -0.37488  -0.35487  -0.34603
 Alpha  occ. eigenvalues --   -0.26007  -0.24986  -0.24734  -0.23506
 Alpha virt. eigenvalues --    0.02410   0.03261   0.06737   0.08756   0.11900
 Alpha virt. eigenvalues --    0.13099   0.13562   0.15014   0.15535   0.16231
 Alpha virt. eigenvalues --    0.17058   0.17942   0.18466   0.18942   0.20034

 Mulliken atomic charges:
              1
     1  H    0.187329
     2  C   -0.544034
     3  H    0.186997
     4  H    0.148608
     5  C    0.601051
     6  O   -0.499861
     7  N   -0.604044
     8  H    0.318949
     9  C   -0.015625
    10  H    0.138175
    11  C   -0.463291
    12  H    0.188643
    13  H    0.163402
    14  H    0.132743
    15  C    0.632069
    16  O   -0.518535
    17  N   -0.582548
    18  H    0.325213
    19  C   -0.306945
    20  H    0.188862
    21  H    0.177305
    22  H    0.145537
 Sum of Mulliken atomic charges =   0.00000

 Dipole moment (field-independent basis, Debye):
    X=             -1.7284    Y=              1.8945    Z=             -3.2868  Tot=              4.1689
 Quadrupole moment (field-independent basis, Debye-Ang):
   XX=            -49.5541   YY=            -59.6820   ZZ=            -61.7173
   XY=             -4.6434   XZ=             -3.9006   YZ=              0.0448

 Normal termination of Gaussian 09 at Fri Feb 10 18:25:13 2017.
