 Gaussian 09, Revision A.02,
 Gaussian 09:  EM64L-G09RevA.02 11-Jun-2009

 -------------------
 #SP MP2/aug-cc-pVDZ
 -------------------

 -------------------------------
 Single Point calculation at MP2
 -------------------------------
 Symbolic Z-matrix:
 Charge =  0 Multiplicity = 1

                         Standard orientation:
 ---------------------------------------------------------------------
 Center     Atomic      Atomic             Coordinates (Angstroms)
 Number     Number       Type             X           Y           Z
 ---------------------------------------------------------------------
      1          1           0        3.584576   -1.515577   -0.472404
      2          6           0        3.124089   -0.917467    0.316696
      3          1           0        3.779306   -0.075981    0.564096
      4          1           0        3.026676   -1.552365    1.205096
      5          6           0        1.736998   -0.489639   -0.140204
      6          8           0        1.033182   -1.223524   -0.828604
      7          7           0        1.359624    0.767769    0.247096
      8          1           0        1.992233    1.233056    0.883896
      9          6           0       -0.020565    1.297898    0.272596
     10          1           0       -0.075152    1.926699    1.164196
     11          6           0       -0.291848    2.157503   -0.971504
     12          1           0       -0.190960    1.569401   -1.888504
     13          1           0       -1.303139    2.576024   -0.940804
     14          1           0        0.426470    2.983089   -1.021904
     15          6           0       -1.123187    0.233321    0.534396
     16          8           0       -1.545991    0.083129    1.675296
     17          7           0       -1.663400   -0.388868   -0.553804
     18          1           0       -0.995404   -0.556582   -1.298304
     19          6           0       -2.643622   -1.445748   -0.339704
     20          1           0       -3.406015   -1.087732    0.354096
     21          1           0       -3.111027   -1.694138   -1.296104
     22          1           0       -2.189841   -2.350257    0.086396
 ---------------------------------------------------------------------

 SCF Done:  E(RHF) =  -492.916261047     A.U. after   15 cycles
 E2 =    -0.1602854693D+01 EUMP2 =    -0.49451911573978D+03

 The electronic state is 1-A.
 Alpha  occ. eigenvalues --  -20.54272 -20.53061 -15.60982 -15.57512 -11.37633
 Alpha  occ. eigenvalues --  -11.35389 -11.29978 -11.25556 -11.25330 -11.23876
 Alpha  occ. eigenvalues --   -1.39719  -1.37946  -1.24743  -1.21818  -1.05919
 Alpha  occ. eigenvalues --   -0.99898  -0.94101  -0.88484  -0.81137  -0.75985
 Alpha  occ. eigenvalues --   -0.71526  -0.70128  -0.64652  -0.64093  -0.62765
 Alpha  occ. eigenvalues --   -0.61418  -0.60160  -0.57911  -0.57224  -0.56522
 Alpha  occ. eigenvalues --   -0.54350  -0.53576  -0.52096  -0.51714  -0.50834
 Alpha  occ. eigenvalues --   -0.43949  -0.43362  -0.40152  -0.38009
 Alpha virt. eigenvalues --    0.02680   0.03984   0.04210   0.04733   0.05647
 Alpha virt. eigenvalues --    0.06207   0.06444   0.06545   0.07547   0.08140
 Alpha virt. eigenvalues --    0.08619   0.10012   0.10888   0.12111   0.12465

 Mulliken atomic charges:
              1
     1  H   -0.000697
     2  C    0.406168
     3  H   -0.099195
     4  H    0.066009
     5  C    0.588299
     6  O   -0.844273
     7  N   -0.423930
     8  H   -0.089970
     9  C    0.052879
    10  H   -0.184389
    11  C    0.788138
    12  H   -0.078633
    13  H   -0.009798
    14  H   -0.091647
    15  C    0.955073
    16  O   -0.895432
    17  N   -0.599283
    18  H    0.054793
    19  C    0.775550
    20  H   -0.121809
    21  H   -0.192675
    22  H   -0.055178
 Sum of Mulliken atomic charges =   0.00000

 Dipole moment (field-independent basis, Debye):
    X=              3.2388    Y=              1.9921    Z=             -1.0072  Tot=              3.9335
 Quadrupole moment (field-independent basis, Debye-Ang):
   XX=            -53.8578   YY=            -59.0025   ZZ=            -67.1688
   XY=              3.2378   XZ=              9.4744   YZ=             -0.1551

 Normal termination of Gaussian 09 at Mon Feb 13 15:45:19 2017.
