 Gaussian 09, Revision A.02,
 Gaussian 09:  EM64L-G09RevA.02 11-Jun-2009

 -------------------
 #SP MP2/aug-cc-pVDZ
 -------------------

 -------------------------------
 Single Point calculation at MP2
 -------------------------------
 Symbolic Z-matrix:
 Charge =  0 Multiplicity = 1

                         Standard orientation:
 ---------------------------------------------------------------------
 Center     Atomic      Atomic             Coordinates (Angstroms)
 Number     Number       Type             X           Y           Z
 ---------------------------------------------------------------------
      1          1           0       -3.655313   -1.505214    0.144794
      2          6           0       -2.953615   -1.073211   -0.570306
      3          1           0       -3.508317   -0.522714   -1.339706
      4          1           0       -2.404311   -1.886009   -1.060706
      5          6           0       -1.965918   -0.190207    0.175494
      6          8           0       -1.824218   -0.231007    1.381794
      7          7           0       -1.308623    0.761196   -0.628506
      8          1           0       -1.562022    0.625695   -1.602206
      9          6           0        0.136076    1.021202   -0.532306
     10          1           0        0.466275    1.309403   -1.536306
     11          6           0        0.378971    2.200703    0.435694
     12          1           0        0.019172    1.924701    1.430694
     13          1           0        1.438170    2.474007    0.507794
     14          1           0       -0.182233    3.076500    0.097094
     15          6           0        0.986382   -0.203294   -0.096606
     16          8           0        0.521286   -1.269196    0.273394
     17          7           0        2.328181   -0.030289   -0.330306
     18          1           0        2.664177    0.900313   -0.535406
     19          6           0        3.309785   -1.027184    0.066794
     20          1           0        2.800289   -1.990087    0.119494
     21          1           0        4.111085   -1.079181   -0.677106
     22          1           0        3.749484   -0.810183    1.049194
 ---------------------------------------------------------------------

 SCF Done:  E(RHF) =  -492.902766851     A.U. after   15 cycles
 E2 =    -0.1604044887D+01 EUMP2 =    -0.49450681173749D+03

 The electronic state is 1-A.
 Alpha  occ. eigenvalues --  -20.53378 -20.52281 -15.59690 -15.58698 -11.36282
 Alpha  occ. eigenvalues --  -11.35322 -11.30204 -11.26939 -11.23779 -11.23693
 Alpha  occ. eigenvalues --   -1.39217  -1.37203  -1.23544  -1.22606  -1.05115
 Alpha  occ. eigenvalues --   -0.98593  -0.95407  -0.87666  -0.79926  -0.76904
 Alpha  occ. eigenvalues --   -0.70205  -0.69277  -0.65071  -0.63154  -0.61884
 Alpha  occ. eigenvalues --   -0.61662  -0.59695  -0.58312  -0.56381  -0.55986
 Alpha  occ. eigenvalues --   -0.54905  -0.53549  -0.53323  -0.51228  -0.48580
 Alpha  occ. eigenvalues --   -0.44115  -0.41435  -0.39579  -0.38354
 Alpha virt. eigenvalues --    0.02361   0.03624   0.04245   0.04632   0.05719
 Alpha virt. eigenvalues --    0.05929   0.06103   0.07047   0.07709   0.08291
 Alpha virt. eigenvalues --    0.08651   0.09114   0.11189   0.11845   0.12225

 Mulliken atomic charges:
              1
     1  H   -0.047892
     2  C    0.300528
     3  H   -0.008878
     4  H    0.066891
     5  C    0.824454
     6  O   -0.834317
     7  N   -0.531170
     8  H   -0.024453
     9  C   -0.104970
    10  H   -0.155002
    11  C    0.729819
    12  H   -0.039352
    13  H   -0.125857
    14  H   -0.057725
    15  C    1.046799
    16  O   -0.780477
    17  N   -0.517192
    18  H   -0.103437
    19  C    0.729427
    20  H   -0.122882
    21  H   -0.159852
    22  H   -0.084461
 Sum of Mulliken atomic charges =   0.00000

 Dipole moment (field-independent basis, Debye):
    X=              2.6366    Y=              2.4425    Z=             -4.5746  Tot=              5.8176
 Quadrupole moment (field-independent basis, Debye-Ang):
   XX=            -50.5975   YY=            -61.7991   ZZ=            -63.3341
   XY=              3.6161   XZ=              6.7175   YZ=              0.7250

 Normal termination of Gaussian 09 at Mon Feb 13 15:55:44 2017.
