 Gaussian 09, Revision A.02,
 Gaussian 09:  EM64L-G09RevA.02 11-Jun-2009

 -------------------
 #SP MP2/aug-cc-pVDZ
 -------------------

 -------------------------------
 Single Point calculation at MP2
 -------------------------------
 Symbolic Z-matrix:
 Charge =  0 Multiplicity = 1

                         Standard orientation:
 ---------------------------------------------------------------------
 Center     Atomic      Atomic             Coordinates (Angstroms)
 Number     Number       Type             X           Y           Z
 ---------------------------------------------------------------------
      1          1           0       -3.615206   -1.795296   -0.032597
      2          6           0       -3.323006   -0.753196   -0.172497
      3          1           0       -3.812706   -0.154096    0.604903
      4          1           0       -3.680006   -0.403296   -1.147597
      5          6           0       -1.808006   -0.647596   -0.017497
      6          8           0       -1.167106   -1.443696    0.645603
      7          7           0       -1.246906    0.396004   -0.728497
      8          1           0       -1.919606    1.010904   -1.170497
      9          6           0        0.038294    1.072304   -0.484297
     10          1           0        0.401294    1.395304   -1.468597
     11          6           0       -0.150507    2.308104    0.406203
     12          1           0       -0.430607    1.992904    1.414303
     13          1           0        0.780693    2.881104    0.473503
     14          1           0       -0.927807    2.965004   -0.001997
     15          6           0        1.130294    0.175604    0.155603
     16          8           0        1.227894    0.026904    1.361903
     17          7           0        2.107694   -0.218796   -0.722397
     18          1           0        1.870894   -0.234696   -1.705697
     19          6           0        3.184594   -1.094396   -0.284297
     20          1           0        3.463394   -0.805096    0.729903
     21          1           0        2.883194   -2.149996   -0.269597
     22          1           0        4.044694   -0.973796   -0.949097
 ---------------------------------------------------------------------

 SCF Done:  E(RHF) =  -492.906029522     A.U. after   15 cycles
 E2 =    -0.1603834629D+01 EUMP2 =    -0.49450986415108D+03

 The electronic state is 1-A.
 Alpha  occ. eigenvalues --  -20.52827 -20.52222 -15.59956 -15.59150 -11.36215
 Alpha  occ. eigenvalues --  -11.35574 -11.29990 -11.26120 -11.24726 -11.23436
 Alpha  occ. eigenvalues --   -1.38621  -1.37488  -1.24020  -1.22405  -1.05409
 Alpha  occ. eigenvalues --   -0.99025  -0.95395  -0.87308  -0.80761  -0.76977
 Alpha  occ. eigenvalues --   -0.69839  -0.68892  -0.65669  -0.63623  -0.62011
 Alpha  occ. eigenvalues --   -0.61127  -0.59837  -0.58124  -0.57611  -0.55677
 Alpha  occ. eigenvalues --   -0.54154  -0.53555  -0.52557  -0.51141  -0.50225
 Alpha  occ. eigenvalues --   -0.42551  -0.41078  -0.39541  -0.38691
 Alpha virt. eigenvalues --    0.02352   0.03501   0.04204   0.04537   0.05760
 Alpha virt. eigenvalues --    0.05916   0.06370   0.07008   0.07041   0.08167
 Alpha virt. eigenvalues --    0.08887   0.09032   0.11021   0.11559   0.12804

 Mulliken atomic charges:
              1
     1  H   -0.031067
     2  C    0.378622
     3  H    0.048863
     4  H   -0.050733
     5  C    0.727750
     6  O   -0.782648
     7  N   -0.378430
     8  H   -0.099955
     9  C   -0.237212
    10  H   -0.309577
    11  C    0.724926
    12  H    0.003593
    13  H   -0.022047
    14  H   -0.054504
    15  C    1.031451
    16  O   -0.793754
    17  N   -0.457219
    18  H   -0.095570
    19  C    0.737101
    20  H   -0.111767
    21  H   -0.054491
    22  H   -0.173333
 Sum of Mulliken atomic charges =   0.00000

 Dipole moment (field-independent basis, Debye):
    X=             -1.4079    Y=              2.7711    Z=             -5.1799  Tot=              6.0409
 Quadrupole moment (field-independent basis, Debye-Ang):
   XX=            -48.8472   YY=            -61.9775   ZZ=            -63.5516
   XY=             -4.7562   XZ=             -2.5018   YZ=              1.8308

 Normal termination of Gaussian 09 at Mon Feb 13 14:27:47 2017.
