 Gaussian 09, Revision A.02,
 Gaussian 09:  EM64L-G09RevA.02 11-Jun-2009

 -------------------
 #SP MP2/aug-cc-pVDZ
 -------------------

 -------------------------------
 Single Point calculation at MP2
 -------------------------------
 Symbolic Z-matrix:
 Charge =  0 Multiplicity = 1

                         Standard orientation:
 ---------------------------------------------------------------------
 Center     Atomic      Atomic             Coordinates (Angstroms)
 Number     Number       Type             X           Y           Z
 ---------------------------------------------------------------------
      1          1           0        3.115920   -1.425399    1.323503
      2          6           0        3.193217   -0.775399    0.444403
      3          1           0        3.732920   -1.326896   -0.328597
      4          1           0        3.766412    0.115104    0.721103
      5          6           0        1.791715   -0.468906   -0.064497
      6          8           0        1.164220   -1.301709   -0.717197
      7          7           0        1.330009    0.782292    0.229403
      8          1           0        1.940106    1.331295    0.819403
      9          6           0       -0.060994    1.292384    0.193003
     10          1           0       -0.134998    1.981784    1.036303
     11          6           0       -0.317198    2.059083   -1.115297
     12          1           0       -0.218794    1.397083   -1.980197
     13          1           0       -1.327000    2.482778   -1.118997
     14          1           0        0.403898    2.876787   -1.223697
     15          6           0       -1.204889    0.279078    0.480203
     16          8           0       -1.867289    0.417175    1.504603
     17          7           0       -1.518484   -0.609023   -0.501997
     18          1           0       -0.720182   -0.920219   -1.051897
     19          6           0       -2.576379   -1.581029   -0.264997
     20          1           0       -3.465482   -1.063233    0.100003
     21          1           0       -2.810476   -2.083330   -1.207097
     22          1           0       -2.291275   -2.333627    0.482203
 ---------------------------------------------------------------------

 SCF Done:  E(RHF) =  -492.915480737     A.U. after   14 cycles
 E2 =    -0.1603525456D+01 EUMP2 =    -0.49451900619289D+03

 The electronic state is 1-A.
 Alpha  occ. eigenvalues --  -20.54597 -20.52873 -15.61400 -15.57212 -11.38088
 Alpha  occ. eigenvalues --  -11.35304 -11.30107 -11.25831 -11.25341 -11.23876
 Alpha  occ. eigenvalues --   -1.39970  -1.37793  -1.25102  -1.21666  -1.06113
 Alpha  occ. eigenvalues --   -1.00113  -0.94191  -0.88511  -0.81474  -0.75992
 Alpha  occ. eigenvalues --   -0.71688  -0.70557  -0.64559  -0.63888  -0.62890
 Alpha  occ. eigenvalues --   -0.61502  -0.60437  -0.58106  -0.57455  -0.56793
 Alpha  occ. eigenvalues --   -0.54379  -0.53530  -0.52273  -0.51529  -0.50876
 Alpha  occ. eigenvalues --   -0.44300  -0.43443  -0.40056  -0.37819
 Alpha virt. eigenvalues --    0.02559   0.03968   0.04265   0.04653   0.05623
 Alpha virt. eigenvalues --    0.06169   0.06458   0.06569   0.07580   0.08134
 Alpha virt. eigenvalues --    0.08641   0.10075   0.11004   0.11981   0.12184

 Mulliken atomic charges:
              1
     1  H    0.059602
     2  C    0.426430
     3  H    0.009798
     4  H   -0.120099
     5  C    0.619096
     6  O   -0.862623
     7  N   -0.362545
     8  H   -0.092035
     9  C    0.026058
    10  H   -0.195324
    11  C    0.747262
    12  H   -0.074430
    13  H   -0.033672
    14  H   -0.093001
    15  C    0.870878
    16  O   -0.862626
    17  N   -0.541805
    18  H    0.053288
    19  C    0.798599
    20  H   -0.120980
    21  H   -0.189911
    22  H   -0.061958
 Sum of Mulliken atomic charges =   0.00000

 Dipole moment (field-independent basis, Debye):
    X=              3.8040    Y=              1.5758    Z=             -0.7425  Tot=              4.1839
 Quadrupole moment (field-independent basis, Debye-Ang):
   XX=            -56.2269   YY=            -59.0798   ZZ=            -66.3979
   XY=              5.3599   XZ=             10.1659   YZ=             -1.5959

 Normal termination of Gaussian 09 at Mon Feb 13 15:42:23 2017.
