 Gaussian 09, Revision A.02,
 Gaussian 09:  EM64L-G09RevA.02 11-Jun-2009

 -------------------
 #SP MP2/aug-cc-pVDZ
 -------------------

 -------------------------------
 Single Point calculation at MP2
 -------------------------------
 Symbolic Z-matrix:
 Charge =  0 Multiplicity = 1

                         Standard orientation:
 ---------------------------------------------------------------------
 Center     Atomic      Atomic             Coordinates (Angstroms)
 Number     Number       Type             X           Y           Z
 ---------------------------------------------------------------------
      1          1           0       -3.461023   -1.368377   -1.070597
      2          6           0       -3.341418   -0.525378   -0.382697
      3          1           0       -3.928519   -0.750174    0.512303
      4          1           0       -3.742512    0.376125   -0.855697
      5          6           0       -1.873617   -0.430188    0.014103
      6          8           0       -1.351823   -1.360091    0.633903
      7          7           0       -1.259009    0.728908   -0.343797
      8          1           0       -1.852605    1.369412   -0.852397
      9          6           0        0.137294    1.227999   -0.258197
     10          1           0        0.264898    1.848498   -1.148497
     11          6           0        0.291900    2.125298    0.987003
     12          1           0        0.163196    1.534899    1.900203
     13          1           0        1.288003    2.575792    0.992703
     14          1           0       -0.458195    2.923803    0.984303
     15          6           0        1.370788    0.288791   -0.322597
     16          8           0        2.411191    0.800284   -0.737497
     17          7           0        1.291279   -0.974608    0.129203
     18          1           0        0.390077   -1.319803    0.465703
     19          6           0        2.468074   -1.826416    0.130903
     20          1           0        2.942074   -1.830419   -0.855697
     21          1           0        3.213176   -1.479521    0.856903
     22          1           0        2.162467   -2.842514    0.390603
 ---------------------------------------------------------------------

 SCF Done:  E(RHF) =  -492.915412835     A.U. after   14 cycles
 E2 =    -0.1604505271D+01 EUMP2 =    -0.49451991810621D+03

 The electronic state is 1-A.
 Alpha  occ. eigenvalues --  -20.54806 -20.51712 -15.61914 -15.57257 -11.38585
 Alpha  occ. eigenvalues --  -11.35169 -11.30391 -11.26089 -11.25553 -11.23823
 Alpha  occ. eigenvalues --   -1.40202  -1.37183  -1.25545  -1.21665  -1.06309
 Alpha  occ. eigenvalues --   -1.00224  -0.94735  -0.88473  -0.81948  -0.76896
 Alpha  occ. eigenvalues --   -0.71917  -0.70917  -0.64490  -0.63962  -0.62099
 Alpha  occ. eigenvalues --   -0.61497  -0.60560  -0.58695  -0.58342  -0.56752
 Alpha  occ. eigenvalues --   -0.54448  -0.54030  -0.52387  -0.52035  -0.49642
 Alpha  occ. eigenvalues --   -0.44185  -0.42782  -0.39992  -0.37597
 Alpha virt. eigenvalues --    0.02353   0.04007   0.04333   0.04471   0.05737
 Alpha virt. eigenvalues --    0.06307   0.06400   0.06744   0.07345   0.07938
 Alpha virt. eigenvalues --    0.09014   0.09714   0.10912   0.11909   0.12595

 Mulliken atomic charges:
              1
     1  H    0.047431
     2  C    0.484457
     3  H    0.036672
     4  H   -0.157530
     5  C    0.583449
     6  O   -0.937923
     7  N   -0.338972
     8  H   -0.081021
     9  C   -0.027909
    10  H   -0.098403
    11  C    0.629764
    12  H   -0.035995
    13  H   -0.020592
    14  H   -0.083977
    15  C    0.895538
    16  O   -0.906306
    17  N   -0.383174
    18  H   -0.008643
    19  C    0.735304
    20  H   -0.071599
    21  H   -0.047760
    22  H   -0.212810
 Sum of Mulliken atomic charges =   0.00000

 Dipole moment (field-independent basis, Debye):
    X=             -4.7222    Y=              1.0592    Z=             -0.4569  Tot=              4.8611
 Quadrupole moment (field-independent basis, Debye-Ang):
   XX=            -61.6019   YY=            -59.7887   ZZ=            -62.2816
   XY=             -9.5885   XZ=              8.0572   YZ=              1.8277

 Normal termination of Gaussian 09 at Mon Feb 13 16:26:48 2017.
