 Gaussian 09, Revision A.02,
 Gaussian 09:  EM64L-G09RevA.02 11-Jun-2009

 -------------------
 #SP MP2/aug-cc-pVDZ
 -------------------

 -------------------------------
 Single Point calculation at MP2
 -------------------------------
 Symbolic Z-matrix:
 Charge =  0 Multiplicity = 1

                         Standard orientation:
 ---------------------------------------------------------------------
 Center     Atomic      Atomic             Coordinates (Angstroms)
 Number     Number       Type             X           Y           Z
 ---------------------------------------------------------------------
      1          1           0       -3.540509   -1.415898    0.788992
      2          6           0       -3.083709   -0.943598   -0.082308
      3          1           0       -3.791309   -0.237698   -0.531008
      4          1           0       -2.858109   -1.722498   -0.820708
      5          6           0       -1.783209   -0.281898    0.335792
      6          8           0       -1.146509   -0.628098    1.318992
      7          7           0       -1.384309    0.787502   -0.450908
      8          1           0       -1.888109    0.855902   -1.326908
      9          6           0        0.041591    1.122103   -0.570608
     10          1           0        0.197591    1.449803   -1.605308
     11          6           0        0.395791    2.283203    0.371492
     12          1           0        0.294391    1.970103    1.415692
     13          1           0        1.411491    2.656703    0.195892
     14          1           0       -0.294110    3.115303    0.203392
     15          6           0        0.922791   -0.149697   -0.423408
     16          8           0        0.581691   -1.200997   -0.948908
     17          7           0        2.167491    0.034703    0.107992
     18          1           0        2.306791    0.823303    0.722392
     19          6           0        3.060891   -1.102497    0.279192
     20          1           0        3.010691   -1.721597   -0.617808
     21          1           0        4.082891   -0.738297    0.414892
     22          1           0        2.779691   -1.723497    1.139292
 ---------------------------------------------------------------------

 SCF Done:  E(RHF) =  -492.915644710     A.U. after   15 cycles
 E2 =    -0.1604027186D+01 EUMP2 =    -0.49451967189629D+03

 The electronic state is 1-A.
 Alpha  occ. eigenvalues --  -20.52920 -20.52394 -15.59177 -15.59134 -11.35832
 Alpha  occ. eigenvalues --  -11.35705 -11.29854 -11.26253 -11.24134 -11.23974
 Alpha  occ. eigenvalues --   -1.38992  -1.37321  -1.23349  -1.22715  -1.05290
 Alpha  occ. eigenvalues --   -0.98942  -0.94755  -0.88285  -0.79835  -0.77026
 Alpha  occ. eigenvalues --   -0.70705  -0.69601  -0.64552  -0.63975  -0.61461
 Alpha  occ. eigenvalues --   -0.61081  -0.59865  -0.57810  -0.56522  -0.55938
 Alpha  occ. eigenvalues --   -0.54721  -0.54049  -0.52975  -0.51594  -0.48723
 Alpha  occ. eigenvalues --   -0.42526  -0.42081  -0.39840  -0.39018
 Alpha virt. eigenvalues --    0.02908   0.03672   0.04467   0.04585   0.05821
 Alpha virt. eigenvalues --    0.06065   0.06334   0.06919   0.07676   0.07754
 Alpha virt. eigenvalues --    0.09037   0.09563   0.10593   0.11955   0.12663

 Mulliken atomic charges:
              1
     1  H   -0.019363
     2  C    0.308271
     3  H   -0.032935
     4  H    0.086220
     5  C    0.776626
     6  O   -0.870782
     7  N   -0.449522
     8  H   -0.031665
     9  C   -0.095583
    10  H   -0.094290
    11  C    0.730323
    12  H   -0.017816
    13  H    0.021184
    14  H   -0.155222
    15  C    0.981542
    16  O   -0.884452
    17  N   -0.500522
    18  H   -0.128501
    19  C    0.724515
    20  H   -0.104534
    21  H   -0.196981
    22  H   -0.046512
 Sum of Mulliken atomic charges =   0.00000

 Dipole moment (field-independent basis, Debye):
    X=              0.2771    Y=              3.4574    Z=             -1.3807  Tot=              3.7332
 Quadrupole moment (field-independent basis, Debye-Ang):
   XX=            -47.7653   YY=            -62.0048   ZZ=            -64.2025
   XY=              1.5226   XZ=              7.5754   YZ=             -1.6752

 Normal termination of Gaussian 09 at Mon Feb 13 15:54:04 2017.
