 Gaussian 09, Revision A.02,
 Gaussian 09:  EM64L-G09RevA.02 11-Jun-2009

 -------------------
 #SP MP2/aug-cc-pVDZ
 -------------------

 -------------------------------
 Single Point calculation at MP2
 -------------------------------
 Symbolic Z-matrix:
 Charge =  0 Multiplicity = 1

                         Standard orientation:
 ---------------------------------------------------------------------
 Center     Atomic      Atomic             Coordinates (Angstroms)
 Number     Number       Type             X           Y           Z
 ---------------------------------------------------------------------
      1          1           0        4.072496   -0.988693   -0.348892
      2          6           0        3.093496   -0.895497   -0.821892
      3          1           0        2.688700   -1.902098   -0.982492
      4          1           0        3.200794   -0.409096   -1.797592
      5          6           0        2.163193   -0.135900    0.108408
      6          8           0        2.334993   -0.081100    1.315508
      7          7           0        1.119890    0.519195   -0.526892
      8          1           0        0.948191    0.231095   -1.483292
      9          6           0       -0.069211    0.881891    0.235108
     10          1           0        0.270489    0.915792    1.276208
     11          6           0       -0.582117    2.267489   -0.174092
     12          1           0       -0.945617    2.283087   -1.209192
     13          1           0       -1.389918    2.610386    0.484108
     14          1           0        0.233180    2.991592   -0.094692
     15          6           0       -1.083407   -0.289513    0.159808
     16          8           0       -0.700602   -1.447412    0.273608
     17          7           0       -2.385708    0.039682   -0.088892
     18          1           0       -2.645712    1.012981   -0.129892
     19          6           0       -3.443604   -0.956323   -0.125292
     20          1           0       -2.967800   -1.937421   -0.144492
     21          1           0       -4.090504   -0.892825    0.758708
     22          1           0       -4.058804   -0.831725   -1.023192
 ---------------------------------------------------------------------

 SCF Done:  E(RHF) =  -492.918475655     A.U. after   14 cycles
 E2 =    -0.1601620913D+01 EUMP2 =    -0.49452009656883D+03

 The electronic state is 1-A.
 Alpha  occ. eigenvalues --  -20.53083 -20.52714 -15.60226 -15.59054 -11.36249
 Alpha  occ. eigenvalues --  -11.35693 -11.29149 -11.27220 -11.24904 -11.23997
 Alpha  occ. eigenvalues --   -1.38937  -1.37790  -1.23862  -1.23258  -1.05539
 Alpha  occ. eigenvalues --   -0.98967  -0.95810  -0.88568  -0.79437  -0.78738
 Alpha  occ. eigenvalues --   -0.72910  -0.67095  -0.65538  -0.64629  -0.62395
 Alpha  occ. eigenvalues --   -0.61429  -0.59241  -0.58649  -0.57110  -0.56328
 Alpha  occ. eigenvalues --   -0.55097  -0.54678  -0.53232  -0.51158  -0.49883
 Alpha  occ. eigenvalues --   -0.43526  -0.41975  -0.39797  -0.39063
 Alpha virt. eigenvalues --    0.02536   0.03667   0.04089   0.04586   0.05675
 Alpha virt. eigenvalues --    0.05931   0.06132   0.06907   0.07243   0.08211
 Alpha virt. eigenvalues --    0.08872   0.09025   0.11372   0.12270   0.12536

 Mulliken atomic charges:
              1
     1  H   -0.033711
     2  C    0.312223
     3  H    0.080661
     4  H   -0.056634
     5  C    0.745869
     6  O   -0.846830
     7  N   -0.515473
     8  H   -0.063725
     9  C   -0.214727
    10  H   -0.067442
    11  C    0.846223
    12  H    0.015987
    13  H    0.042639
    14  H   -0.154720
    15  C    1.051217
    16  O   -0.870761
    17  N   -0.525956
    18  H   -0.151993
    19  C    0.763655
    20  H   -0.147976
    21  H   -0.081215
    22  H   -0.127311
 Sum of Mulliken atomic charges =   0.00000

 Dipole moment (field-independent basis, Debye):
    X=             -3.3581    Y=              2.8047    Z=             -3.8555  Tot=              5.8316
 Quadrupole moment (field-independent basis, Debye-Ang):
   XX=            -53.7139   YY=            -62.5775   ZZ=            -63.2647
   XY=             -4.1608   XZ=             -8.1576   YZ=              2.5536

 Normal termination of Gaussian 09 at Mon Feb 13 11:14:19 2017.
