 Gaussian 09, Revision A.02,
 Gaussian 09:  EM64L-G09RevA.02 11-Jun-2009

 -------------------
 #SP MP2/aug-cc-pVDZ
 -------------------

 -------------------------------
 Single Point calculation at MP2
 -------------------------------
 Symbolic Z-matrix:
 Charge =  0 Multiplicity = 1

                         Standard orientation:
 ---------------------------------------------------------------------
 Center     Atomic      Atomic             Coordinates (Angstroms)
 Number     Number       Type             X           Y           Z
 ---------------------------------------------------------------------
      1          1           0        3.444418   -1.595062   -0.704599
      2          6           0        3.246005   -0.528664   -0.569199
      3          1           0        3.290399   -0.026163   -1.540499
      4          1           0        4.040300   -0.126255    0.069001
      5          6           0        1.914803   -0.360980    0.144601
      6          8           0        1.618911   -1.024383    1.138601
      7          7           0        1.056892    0.553010   -0.389399
      8          1           0        1.342286    1.057613   -1.217499
      9          6           0       -0.130014    1.054496    0.309401
     10          1           0        0.082787    0.951398    1.381701
     11          6           0       -0.363131    2.525193   -0.031799
     12          1           0       -0.505133    2.660391   -1.111099
     13          1           0       -1.272135    2.874282    0.459801
     14          1           0        0.485561    3.135503    0.293201
     15          6           0       -1.412904    0.221581    0.053701
     16          8           0       -2.520310    0.747867    0.063701
     17          7           0       -1.205988   -1.102517   -0.193299
     18          1           0       -0.315084   -1.481506    0.111101
     19          6           0       -2.331677   -2.018430   -0.290999
     20          1           0       -3.147183   -1.511440   -0.808999
     21          1           0       -2.031967   -2.902827   -0.860499
     22          1           0       -2.697874   -2.336435    0.694601
 ---------------------------------------------------------------------

 SCF Done:  E(RHF) =  -492.926166343     A.U. after   14 cycles
 E2 =    -0.1602340203D+01 EUMP2 =    -0.49452850654643D+03

 The electronic state is 1-A.
 Alpha  occ. eigenvalues --  -20.54464 -20.52816 -15.61117 -15.58266 -11.37792
 Alpha  occ. eigenvalues --  -11.35369 -11.29668 -11.26021 -11.25983 -11.23787
 Alpha  occ. eigenvalues --   -1.39885  -1.37973  -1.25382  -1.22045  -1.06083
 Alpha  occ. eigenvalues --   -1.00135  -0.95495  -0.87509  -0.81359  -0.77769
 Alpha  occ. eigenvalues --   -0.72373  -0.69029  -0.67472  -0.63799  -0.62148
 Alpha  occ. eigenvalues --   -0.61857  -0.59579  -0.59090  -0.58247  -0.54809
 Alpha  occ. eigenvalues --   -0.54427  -0.53921  -0.53151  -0.52326  -0.50017
 Alpha  occ. eigenvalues --   -0.44688  -0.43974  -0.40073  -0.38032
 Alpha virt. eigenvalues --    0.02438   0.03921   0.04352   0.04453   0.05860
 Alpha virt. eigenvalues --    0.06092   0.06332   0.06764   0.07164   0.07995
 Alpha virt. eigenvalues --    0.09265   0.09919   0.11171   0.11936   0.12231

 Mulliken atomic charges:
              1
     1  H    0.040236
     2  C    0.391242
     3  H   -0.137038
     4  H    0.064909
     5  C    0.504375
     6  O   -0.883508
     7  N   -0.309166
     8  H   -0.067752
     9  C   -0.073249
    10  H   -0.042148
    11  C    0.754474
    12  H   -0.052578
    13  H   -0.041613
    14  H   -0.033256
    15  C    0.873865
    16  O   -0.827469
    17  N   -0.482201
    18  H   -0.083952
    19  C    0.758788
    20  H   -0.129991
    21  H   -0.172068
    22  H   -0.051900
 Sum of Mulliken atomic charges =   0.00000

 Dipole moment (field-independent basis, Debye):
    X=              3.8028    Y=              0.4381    Z=             -2.6439  Tot=              4.6523
 Quadrupole moment (field-independent basis, Debye-Ang):
   XX=            -64.6823   YY=            -58.0974   ZZ=            -62.5989
   XY=              8.3960   XZ=             -5.5763   YZ=              2.4337

 Normal termination of Gaussian 09 at Mon Feb 13 12:32:40 2017.
