 Gaussian 09, Revision A.02,
 Gaussian 09:  EM64L-G09RevA.02 11-Jun-2009

 -------------------
 #SP MP2/aug-cc-pVDZ
 -------------------

 -------------------------------
 Single Point calculation at MP2
 -------------------------------
 Symbolic Z-matrix:
 Charge =  0 Multiplicity = 1

                         Standard orientation:
 ---------------------------------------------------------------------
 Center     Atomic      Atomic             Coordinates (Angstroms)
 Number     Number       Type             X           Y           Z
 ---------------------------------------------------------------------
      1          1           0        3.473778   -1.831908   -0.354297
      2          6           0        3.232881   -0.797107   -0.610297
      3          1           0        3.095481   -0.717207   -1.693597
      4          1           0        4.089783   -0.179610   -0.318597
      5          6           0        2.014582   -0.366104    0.194403
      6          8           0        1.895281   -0.610403    1.384203
      7          7           0        1.047684    0.314399   -0.517297
      8          1           0        1.310085    0.661999   -1.431097
      9          6           0       -0.040814    1.015303    0.170303
     10          1           0        0.307487    1.271802    1.174303
     11          6           0       -0.433710    2.283804   -0.593997
     12          1           0       -0.773410    2.048805   -1.609897
     13          1           0       -1.253808    2.787406   -0.074497
     14          1           0        0.412792    2.977001   -0.654997
     15          6           0       -1.282316    0.128706    0.403703
     16          8           0       -1.940616    0.229208    1.428903
     17          7           0       -1.665819   -0.622192   -0.675197
     18          1           0       -0.942519   -0.823095   -1.353697
     19          6           0       -2.787221   -1.543989   -0.589797
     20          1           0       -3.502720   -1.134587    0.124803
     21          1           0       -3.264622   -1.639888   -1.569897
     22          1           0       -2.483124   -2.540290   -0.241797
 ---------------------------------------------------------------------

 SCF Done:  E(RHF) =  -492.921522776     A.U. after   14 cycles
 E2 =    -0.1601314735D+01 EUMP2 =    -0.49452283751122D+03

 The electronic state is 1-A.
 Alpha  occ. eigenvalues --  -20.54031 -20.52825 -15.60820 -15.59075 -11.37154
 Alpha  occ. eigenvalues --  -11.35345 -11.29196 -11.26513 -11.25674 -11.24965
 Alpha  occ. eigenvalues --   -1.39541  -1.38030  -1.25129  -1.22377  -1.06099
 Alpha  occ. eigenvalues --   -1.00057  -0.95538  -0.88230  -0.80835  -0.78005
 Alpha  occ. eigenvalues --   -0.71742  -0.68421  -0.67759  -0.63190  -0.62677
 Alpha  occ. eigenvalues --   -0.61914  -0.59373  -0.59126  -0.58185  -0.56238
 Alpha  occ. eigenvalues --   -0.54944  -0.54381  -0.53790  -0.51796  -0.49880
 Alpha  occ. eigenvalues --   -0.44091  -0.43251  -0.39593  -0.39119
 Alpha virt. eigenvalues --    0.02086   0.03605   0.03888   0.04556   0.05528
 Alpha virt. eigenvalues --    0.05766   0.06363   0.06631   0.07208   0.07870
 Alpha virt. eigenvalues --    0.08461   0.09269   0.10944   0.11770   0.11818

 Mulliken atomic charges:
              1
     1  H    0.031361
     2  C    0.369005
     3  H   -0.159865
     4  H    0.057197
     5  C    0.559825
     6  O   -0.829243
     7  N   -0.331645
     8  H   -0.039314
     9  C   -0.029070
    10  H   -0.156470
    11  C    0.805175
    12  H   -0.024187
    13  H   -0.061823
    14  H   -0.073760
    15  C    0.997782
    16  O   -0.854705
    17  N   -0.607200
    18  H   -0.034937
    19  C    0.738249
    20  H   -0.121723
    21  H   -0.156657
    22  H   -0.077994
 Sum of Mulliken atomic charges =   0.00000

 Dipole moment (field-independent basis, Debye):
    X=              2.0159    Y=              0.5801    Z=             -6.7892  Tot=              7.1058
 Quadrupole moment (field-independent basis, Debye-Ang):
   XX=            -59.6804   YY=            -56.5856   ZZ=            -67.9236
   XY=              3.9502   XZ=             -1.0825   YZ=              2.2676

 Normal termination of Gaussian 09 at Mon Feb 13 11:25:17 2017.
