 Gaussian 09, Revision A.02,
 Gaussian 09:  EM64L-G09RevA.02 11-Jun-2009

 -------------------
 #SP MP2/aug-cc-pVDZ
 -------------------

 -------------------------------
 Single Point calculation at MP2
 -------------------------------
 Symbolic Z-matrix:
 Charge =  0 Multiplicity = 1

                         Standard orientation:
 ---------------------------------------------------------------------
 Center     Atomic      Atomic             Coordinates (Angstroms)
 Number     Number       Type             X           Y           Z
 ---------------------------------------------------------------------
      1          1           0       -3.094332   -1.694764    1.183600
      2          6           0       -3.126822   -0.687364    0.758200
      3          1           0       -3.265114    0.038238    1.565600
      4          1           0       -3.993221   -0.643254    0.090600
      5          6           0       -1.868919   -0.457677   -0.061500
      6          8           0       -1.549827   -1.208781   -0.984200
      7          7           0       -1.118607    0.628215    0.279200
      8          1           0       -1.352801    1.174117    1.096500
      9          6           0        0.075997    0.998002   -0.483800
     10          1           0       -0.090107    0.631004   -1.499500
     11          6           0        0.269513    2.511700   -0.480100
     12          1           0        0.494017    2.866197    0.530600
     13          1           0        1.117316    2.784990   -1.115600
     14          1           0       -0.626381    3.014909   -0.857800
     15          6           0        1.300389    0.283088    0.132500
     16          8           0        1.977794    0.792881    1.018100
     17          7           0        1.539476   -0.941314   -0.417600
     18          1           0        0.783971   -1.336806   -0.969400
     19          6           0        2.550366   -1.837325    0.118100
     20          1           0        3.294173   -1.231733    0.637900
     21          1           0        2.127158   -2.558321    0.830300
     22          1           0        3.032360   -2.388230   -0.695600
 ---------------------------------------------------------------------

 SCF Done:  E(RHF) =  -492.929084627     A.U. after   14 cycles
 E2 =    -0.1602132281D+01 EUMP2 =    -0.49453121690833D+03

 The electronic state is 1-A.
 Alpha  occ. eigenvalues --  -20.54046 -20.52894 -15.60953 -15.58587 -11.37514
 Alpha  occ. eigenvalues --  -11.35362 -11.29223 -11.26115 -11.25633 -11.23592
 Alpha  occ. eigenvalues --   -1.39505  -1.37941  -1.24965  -1.22418  -1.05919
 Alpha  occ. eigenvalues --   -0.99891  -0.95716  -0.87215  -0.81121  -0.77891
 Alpha  occ. eigenvalues --   -0.72377  -0.68660  -0.67123  -0.64182  -0.62049
 Alpha  occ. eigenvalues --   -0.61371  -0.60081  -0.59131  -0.57798  -0.55469
 Alpha  occ. eigenvalues --   -0.54075  -0.53576  -0.52316  -0.51638  -0.51489
 Alpha  occ. eigenvalues --   -0.44271  -0.43564  -0.39475  -0.38504
 Alpha virt. eigenvalues --    0.02788   0.04081   0.04141   0.04793   0.05757
 Alpha virt. eigenvalues --    0.05981   0.06323   0.07044   0.07250   0.08083
 Alpha virt. eigenvalues --    0.09129   0.09773   0.11300   0.11957   0.12049

 Mulliken atomic charges:
              1
     1  H    0.048249
     2  C    0.415999
     3  H   -0.146809
     4  H    0.055861
     5  C    0.597486
     6  O   -0.898921
     7  N   -0.380289
     8  H   -0.086140
     9  C   -0.224518
    10  H   -0.247469
    11  C    0.717597
    12  H   -0.005220
    13  H   -0.023639
    14  H   -0.008449
    15  C    1.220854
    16  O   -0.838228
    17  N   -0.528787
    18  H   -0.047080
    19  C    0.744787
    20  H   -0.136123
    21  H   -0.091904
    22  H   -0.137256
 Sum of Mulliken atomic charges =   0.00000

 Dipole moment (field-independent basis, Debye):
    X=             -2.6133    Y=              0.4049    Z=              0.4074  Tot=              2.6757
 Quadrupole moment (field-independent basis, Debye-Ang):
   XX=            -59.8659   YY=            -59.6938   ZZ=            -63.7372
   XY=             -8.1032   XZ=            -10.2339   YZ=             -4.3803

 Normal termination of Gaussian 09 at Mon Feb 13 13:25:28 2017.
