 Gaussian 09, Revision A.02,
 Gaussian 09:  EM64L-G09RevA.02 11-Jun-2009

 -------------------
 #SP MP2/aug-cc-pVDZ
 -------------------

 -------------------------------
 Single Point calculation at MP2
 -------------------------------
 Symbolic Z-matrix:
 Charge =  0 Multiplicity = 1

                         Standard orientation:
 ---------------------------------------------------------------------
 Center     Atomic      Atomic             Coordinates (Angstroms)
 Number     Number       Type             X           Y           Z
 ---------------------------------------------------------------------
      1          1           0        4.054395   -1.101106    0.100900
      2          6           0        3.194295   -0.886205   -0.535900
      3          1           0        2.827194   -1.833204   -0.950100
      4          1           0        3.501596   -0.246105   -1.369300
      5          6           0        2.100096   -0.253304    0.307600
      6          8           0        2.008096   -0.436104    1.513700
      7          7           0        1.231697    0.564397   -0.392300
      8          1           0        1.179597    0.377197   -1.388400
      9          6           0       -0.055703    0.900599    0.192500
     10          1           0        0.084097    0.857799    1.276800
     11          6           0       -0.494901    2.311499   -0.231100
     12          1           0       -0.620701    2.368499   -1.318600
     13          1           0       -1.449201    2.586600    0.230100
     14          1           0        0.262700    3.041998    0.067000
     15          6           0       -1.102404   -0.153400   -0.234700
     16          8           0       -0.916105   -0.880800   -1.204700
     17          7           0       -2.258304   -0.144099    0.488000
     18          1           0       -2.281003    0.396201    1.341800
     19          6           0       -3.348105   -1.072298    0.234400
     20          1           0       -3.173306   -1.523398   -0.743000
     21          1           0       -3.387006   -1.868197    0.988600
     22          1           0       -4.307704   -0.544496    0.225500
 ---------------------------------------------------------------------

 SCF Done:  E(RHF) =  -492.926786847     A.U. after   14 cycles
 E2 =    -0.1599575675D+01 EUMP2 =    -0.49452636252178D+03

 The electronic state is 1-A.
 Alpha  occ. eigenvalues --  -20.53783 -20.53227 -15.60126 -15.58736 -11.36351
 Alpha  occ. eigenvalues --  -11.35983 -11.29027 -11.27225 -11.24417 -11.24144
 Alpha  occ. eigenvalues --   -1.39319  -1.38197  -1.23886  -1.23384  -1.05502
 Alpha  occ. eigenvalues --   -0.99029  -0.96024  -0.87688  -0.79853  -0.78178
 Alpha  occ. eigenvalues --   -0.73071  -0.67408  -0.66167  -0.63315  -0.62881
 Alpha  occ. eigenvalues --   -0.61904  -0.59866  -0.58323  -0.57368  -0.56449
 Alpha  occ. eigenvalues --   -0.55156  -0.53951  -0.53087  -0.51331  -0.50193
 Alpha  occ. eigenvalues --   -0.43392  -0.42608  -0.40131  -0.39435
 Alpha virt. eigenvalues --    0.02925   0.03873   0.04351   0.04715   0.05619
 Alpha virt. eigenvalues --    0.06150   0.06203   0.07016   0.07290   0.07958
 Alpha virt. eigenvalues --    0.09169   0.09648   0.10353   0.11837   0.12502

 Mulliken atomic charges:
              1
     1  H   -0.033344
     2  C    0.312504
     3  H    0.069209
     4  H   -0.043216
     5  C    0.672679
     6  O   -0.849098
     7  N   -0.530727
     8  H   -0.001336
     9  C   -0.178386
    10  H   -0.120471
    11  C    0.847204
    12  H   -0.033866
    13  H   -0.060749
    14  H   -0.054407
    15  C    1.111970
    16  O   -0.860589
    17  N   -0.490280
    18  H   -0.111579
    19  C    0.707859
    20  H   -0.139997
    21  H   -0.077338
    22  H   -0.136041
 Sum of Mulliken atomic charges =   0.00000

 Dipole moment (field-independent basis, Debye):
    X=             -2.0866    Y=              2.0114    Z=             -0.5683  Tot=              2.9534
 Quadrupole moment (field-independent basis, Debye-Ang):
   XX=            -52.3970   YY=            -60.9003   ZZ=            -66.2575
   XY=             -1.2541   XZ=            -12.4205   YZ=              0.2412

 Normal termination of Gaussian 09 at Mon Feb 13 11:25:38 2017.
