 Gaussian 09, Revision A.02,
 Gaussian 09:  EM64L-G09RevA.02 11-Jun-2009

 -------------------
 #SP MP2/aug-cc-pVDZ
 -------------------

 -------------------------------
 Single Point calculation at MP2
 -------------------------------
 Symbolic Z-matrix:
 Charge =  0 Multiplicity = 1

                         Standard orientation:
 ---------------------------------------------------------------------
 Center     Atomic      Atomic             Coordinates (Angstroms)
 Number     Number       Type             X           Y           Z
 ---------------------------------------------------------------------
      1          1           0        4.069113   -1.057757    0.007927
      2          6           0        3.175212   -0.888462   -0.594273
      3          1           0        2.762118   -1.860565   -0.889673
      4          1           0        3.440909   -0.340060   -1.504473
      5          6           0        2.145307   -0.148569    0.241627
      6          8           0        2.170907   -0.132468    1.463127
      7          7           0        1.187403    0.530925   -0.493373
      8          1           0        1.087605    0.205925   -1.448573
      9          6           0       -0.069199    0.885118    0.146327
     10          1           0        0.157301    0.935319    1.217527
     11          6           0       -0.559408    2.257114   -0.342373
     12          1           0       -0.836708    2.231313   -1.402573
     13          1           0       -1.427310    2.615609    0.223027
     14          1           0        0.240788    2.991419   -0.215173
     15          6           0       -1.082092   -0.271289   -0.060973
     16          8           0       -0.717785   -1.368887   -0.467073
     17          7           0       -2.388894    0.028103    0.195527
     18          1           0       -2.608399    0.924202    0.604227
     19          6           0       -3.441287   -0.973404    0.138927
     20          1           0       -3.045082   -1.835701   -0.398173
     21          1           0       -3.752485   -1.294306    1.141227
     22          1           0       -4.313590   -0.580809   -0.394373
 ---------------------------------------------------------------------

 SCF Done:  E(RHF) =  -492.922725086     A.U. after   14 cycles
 E2 =    -0.1600310991D+01 EUMP2 =    -0.49452303607640D+03

 The electronic state is 1-A.
 Alpha  occ. eigenvalues --  -20.53602 -20.52937 -15.60102 -15.58636 -11.36378
 Alpha  occ. eigenvalues --  -11.35690 -11.29125 -11.27209 -11.24802 -11.23879
 Alpha  occ. eigenvalues --   -1.39242  -1.37954  -1.23811  -1.23263  -1.05451
 Alpha  occ. eigenvalues --   -0.98885  -0.95830  -0.88208  -0.79569  -0.78311
 Alpha  occ. eigenvalues --   -0.73033  -0.67194  -0.65938  -0.63726  -0.62618
 Alpha  occ. eigenvalues --   -0.61676  -0.59612  -0.58450  -0.57086  -0.56364
 Alpha  occ. eigenvalues --   -0.55125  -0.54280  -0.53370  -0.51139  -0.49937
 Alpha  occ. eigenvalues --   -0.43245  -0.42241  -0.39835  -0.39661
 Alpha virt. eigenvalues --    0.02706   0.03809   0.04250   0.04640   0.05702
 Alpha virt. eigenvalues --    0.05992   0.06191   0.06846   0.07392   0.08152
 Alpha virt. eigenvalues --    0.09005   0.09466   0.11099   0.11883   0.12433

 Mulliken atomic charges:
              1
     1  H   -0.045186
     2  C    0.303553
     3  H    0.082183
     4  H   -0.029220
     5  C    0.711880
     6  O   -0.855732
     7  N   -0.557646
     8  H   -0.029272
     9  C    0.077099
    10  H   -0.054405
    11  C    0.733497
    12  H   -0.017300
    13  H   -0.079359
    14  H   -0.061663
    15  C    0.931059
    16  O   -0.831022
    17  N   -0.532090
    18  H   -0.109352
    19  C    0.725195
    20  H   -0.145906
    21  H   -0.081178
    22  H   -0.135136
 Sum of Mulliken atomic charges =   0.00000

 Dipole moment (field-independent basis, Debye):
    X=             -2.9465    Y=              2.5872    Z=             -2.2282  Tot=              4.5100
 Quadrupole moment (field-independent basis, Debye-Ang):
   XX=            -52.1857   YY=            -62.3656   ZZ=            -64.4183
   XY=             -3.7937   XZ=            -10.4124   YZ=              0.5917

 Normal termination of Gaussian 09 at Mon Feb 13 11:12:01 2017.
