 Gaussian 09, Revision A.02,
 Gaussian 09:  EM64L-G09RevA.02 11-Jun-2009

 -------------------
 #SP MP2/aug-cc-pVDZ
 -------------------

 -------------------------------
 Single Point calculation at MP2
 -------------------------------
 Symbolic Z-matrix:
 Charge =  0 Multiplicity = 1

                         Standard orientation:
 ---------------------------------------------------------------------
 Center     Atomic      Atomic             Coordinates (Angstroms)
 Number     Number       Type             X           Y           Z
 ---------------------------------------------------------------------
      1          1           0        3.990716   -0.972361   -0.729005
      2          6           0        2.943116   -0.985273   -1.036105
      3          1           0        2.611828   -2.030377   -1.058205
      4          1           0        2.854112   -0.573174   -2.046905
      5          6           0        2.121208   -0.224683   -0.005405
      6          8           0        2.414107   -0.200279    1.178395
      7          7           0        1.036400    0.458805   -0.524505
      8          1           0        0.782702    0.244802   -1.481605
      9          6           0       -0.047105    0.940193    0.333995
     10          1           0        0.389394    1.007998    1.332595
     11          6           0       -0.529421    2.321488   -0.119305
     12          1           0       -0.851721    2.329684   -1.169705
     13          1           0       -1.364525    2.669978    0.498195
     14          1           0        0.288471    3.042697   -0.032205
     15          6           0       -1.135393   -0.154119    0.450795
     16          8           0       -1.052083   -1.045518    1.282895
     17          7           0       -2.129294   -0.106830   -0.493405
     18          1           0       -2.221003    0.725169   -1.057405
     19          6           0       -3.224383   -1.062843   -0.508305
     20          1           0       -2.934473   -1.900839    0.126695
     21          1           0       -4.151888   -0.627253   -0.114705
     22          1           0       -3.407679   -1.422345   -1.526705
 ---------------------------------------------------------------------

 SCF Done:  E(RHF) =  -492.915728119     A.U. after   14 cycles
 E2 =    -0.1601760876D+01 EUMP2 =    -0.49451748899508D+03

 The electronic state is 1-A.
 Alpha  occ. eigenvalues --  -20.53194 -20.52986 -15.60088 -15.59959 -11.36216
 Alpha  occ. eigenvalues --  -11.36064 -11.29176 -11.27192 -11.25109 -11.24661
 Alpha  occ. eigenvalues --   -1.38902  -1.38115  -1.24419  -1.23063  -1.05838
 Alpha  occ. eigenvalues --   -0.99361  -0.95871  -0.88763  -0.79693  -0.79194
 Alpha  occ. eigenvalues --   -0.72744  -0.67416  -0.65807  -0.64747  -0.62663
 Alpha  occ. eigenvalues --   -0.61488  -0.59323  -0.58718  -0.57720  -0.56694
 Alpha  occ. eigenvalues --   -0.55232  -0.54722  -0.52453  -0.51450  -0.50913
 Alpha  occ. eigenvalues --   -0.44424  -0.42267  -0.39737  -0.38624
 Alpha virt. eigenvalues --    0.02214   0.03619   0.03877   0.04592   0.05483
 Alpha virt. eigenvalues --    0.05918   0.06234   0.06534   0.07489   0.07837
 Alpha virt. eigenvalues --    0.08680   0.09271   0.11299   0.11540   0.12571

 Mulliken atomic charges:
              1
     1  H   -0.009902
     2  C    0.330366
     3  H    0.062542
     4  H   -0.097296
     5  C    0.704529
     6  O   -0.819593
     7  N   -0.435509
     8  H   -0.074365
     9  C   -0.024620
    10  H   -0.136873
    11  C    0.744489
    12  H   -0.038648
    13  H   -0.028841
    14  H   -0.104821
    15  C    1.036264
    16  O   -0.846713
    17  N   -0.550275
    18  H   -0.100828
    19  C    0.749017
    20  H   -0.142820
    21  H   -0.085489
    22  H   -0.130611
 Sum of Mulliken atomic charges =   0.00000

 Dipole moment (field-independent basis, Debye):
    X=             -2.6342    Y=              2.3432    Z=             -6.0688  Tot=              7.0186
 Quadrupole moment (field-independent basis, Debye-Ang):
   XX=            -57.9127   YY=            -59.7977   ZZ=            -65.0739
   XY=             -3.3803   XZ=             -4.2445   YZ=              4.8426

 Normal termination of Gaussian 09 at Mon Feb 13 11:07:43 2017.
