 Gaussian 09, Revision A.02,
 Gaussian 09:  EM64L-G09RevA.02 11-Jun-2009

 -------------------
 #SP MP2/aug-cc-pVDZ
 -------------------

 -------------------------------
 Single Point calculation at MP2
 -------------------------------
 Symbolic Z-matrix:
 Charge =  0 Multiplicity = 1

                         Standard orientation:
 ---------------------------------------------------------------------
 Center     Atomic      Atomic             Coordinates (Angstroms)
 Number     Number       Type             X           Y           Z
 ---------------------------------------------------------------------
      1          1           0       -4.043698   -1.014809    0.133894
      2          6           0       -3.148298   -0.821408    0.729694
      3          1           0       -2.884697   -1.753007    1.243494
      4          1           0       -3.369400   -0.057808    1.481694
      5          6           0       -2.013599   -0.432905   -0.204906
      6          8           0       -1.827998   -0.997505   -1.276106
      7          7           0       -1.230001    0.612296    0.229894
      8          1           0       -1.247702    0.820496    1.221694
      9          6           0        0.042498    0.898099   -0.421206
     10          1           0       -0.072101    0.572699   -1.458106
     11          6           0        0.358595    2.397399   -0.361306
     12          1           0        0.469895    2.722300    0.678794
     13          1           0        1.296395    2.615201   -0.884006
     14          1           0       -0.446706    2.972298   -0.828506
     15          6           0        1.158400    0.103301    0.283094
     16          8           0        1.248100    0.108801    1.507694
     17          7           0        2.039101   -0.528697   -0.540406
     18          1           0        1.800401   -0.602898   -1.519406
     19          6           0        3.138303   -1.335195   -0.035706
     20          1           0        3.279802   -1.077995    1.014794
     21          1           0        2.921005   -2.408095   -0.110006
     22          1           0        4.056902   -1.119693   -0.591406
 ---------------------------------------------------------------------

 SCF Done:  E(RHF) =  -492.928064435     A.U. after   14 cycles
 E2 =    -0.1599987490D+01 EUMP2 =    -0.49452805192484D+03

 The electronic state is 1-A.
 Alpha  occ. eigenvalues --  -20.53393 -20.53352 -15.60105 -15.59412 -11.36424
 Alpha  occ. eigenvalues --  -11.36111 -11.29042 -11.27057 -11.24605 -11.23991
 Alpha  occ. eigenvalues --   -1.39108  -1.38283  -1.23969  -1.23513  -1.05584
 Alpha  occ. eigenvalues --   -0.99247  -0.96177  -0.87437  -0.80034  -0.78583
 Alpha  occ. eigenvalues --   -0.73073  -0.67604  -0.66232  -0.63928  -0.62354
 Alpha  occ. eigenvalues --   -0.61942  -0.60026  -0.58377  -0.57524  -0.56499
 Alpha  occ. eigenvalues --   -0.54977  -0.53780  -0.52404  -0.51494  -0.50638
 Alpha  occ. eigenvalues --   -0.43657  -0.42801  -0.40097  -0.39047
 Alpha virt. eigenvalues --    0.03169   0.03761   0.04325   0.04953   0.05640
 Alpha virt. eigenvalues --    0.06024   0.06156   0.07135   0.07242   0.07690
 Alpha virt. eigenvalues --    0.09220   0.09503   0.10958   0.11930   0.12670

 Mulliken atomic charges:
              1
     1  H    0.011700
     2  C    0.373972
     3  H    0.057235
     4  H   -0.118233
     5  C    0.619543
     6  O   -0.857371
     7  N   -0.342012
     8  H   -0.038490
     9  C   -0.228226
    10  H   -0.246500
    11  C    0.794164
    12  H   -0.021092
    13  H   -0.039373
    14  H   -0.039409
    15  C    1.192717
    16  O   -0.876098
    17  N   -0.507597
    18  H   -0.093478
    19  C    0.717232
    20  H   -0.138048
    21  H   -0.081241
    22  H   -0.139394
 Sum of Mulliken atomic charges =   0.00000

 Dipole moment (field-independent basis, Debye):
    X=              0.7106    Y=              0.9756    Z=             -0.3841  Tot=              1.2665
 Quadrupole moment (field-independent basis, Debye-Ang):
   XX=            -54.2265   YY=            -60.0994   ZZ=            -66.3299
   XY=             -4.4254   XZ=            -12.6020   YZ=             -3.0271

 Normal termination of Gaussian 09 at Mon Feb 13 10:52:03 2017.
