 Gaussian 09, Revision A.02,
 Gaussian 09:  EM64L-G09RevA.02 11-Jun-2009

 -------------------
 #SP MP2/aug-cc-pVDZ
 -------------------

 -------------------------------
 Single Point calculation at MP2
 -------------------------------
 Symbolic Z-matrix:
 Charge =  0 Multiplicity = 1

                         Standard orientation:
 ---------------------------------------------------------------------
 Center     Atomic      Atomic             Coordinates (Angstroms)
 Number     Number       Type             X           Y           Z
 ---------------------------------------------------------------------
      1          1           0       -3.944203   -1.223809    0.099095
      2          6           0       -3.345104   -0.505508   -0.462105
      3          1           0       -3.896506    0.439091   -0.544805
      4          1           0       -3.187504   -0.893208   -1.476305
      5          6           0       -2.001305   -0.332906    0.239595
      6          8           0       -1.619303   -1.089905    1.108095
      7          7           0       -1.319507    0.827995   -0.141505
      8          1           0       -1.847607    1.351294   -0.830405
      9          6           0        0.119993    1.036498   -0.379805
     10          1           0        0.236793    1.247298   -1.452905
     11          6           0        0.574391    2.284798    0.401095
     12          1           0        0.594291    2.082798    1.476995
     13          1           0        1.558890    2.644700    0.079195
     14          1           0       -0.134010    3.101797    0.231395
     15          6           0        1.014895   -0.211901   -0.179905
     16          8           0        0.614297   -1.346302   -0.378805
     17          7           0        2.358695    0.066402   -0.086005
     18          1           0        2.641093    0.953702    0.303695
     19          6           0        3.314697   -1.027897    0.012995
     20          1           0        3.047398   -1.791697   -0.718905
     21          1           0        4.315496   -0.645895   -0.206105
     22          1           0        3.316197   -1.495697    1.006095
 ---------------------------------------------------------------------

 SCF Done:  E(RHF) =  -492.893520830     A.U. after   14 cycles
 E2 =    -0.1604651037D+01 EUMP2 =    -0.49449817186708D+03

 The electronic state is 1-A.
 Alpha  occ. eigenvalues --  -20.52776 -20.52201 -15.59282 -15.58846 -11.36010
 Alpha  occ. eigenvalues --  -11.35375 -11.30584 -11.26490 -11.24833 -11.23991
 Alpha  occ. eigenvalues --   -1.38799  -1.37093  -1.23255  -1.22528  -1.05629
 Alpha  occ. eigenvalues --   -0.98641  -0.95014  -0.88650  -0.79963  -0.77014
 Alpha  occ. eigenvalues --   -0.70028  -0.68571  -0.64851  -0.64388  -0.61209
 Alpha  occ. eigenvalues --   -0.61002  -0.60242  -0.57551  -0.56885  -0.56457
 Alpha  occ. eigenvalues --   -0.54917  -0.53991  -0.53706  -0.51651  -0.48760
 Alpha  occ. eigenvalues --   -0.42565  -0.40937  -0.39634  -0.38367
 Alpha virt. eigenvalues --    0.02530   0.03460   0.04308   0.04592   0.05616
 Alpha virt. eigenvalues --    0.05789   0.06292   0.07038   0.07371   0.07753
 Alpha virt. eigenvalues --    0.08987   0.09567   0.10587   0.11841   0.12862

 Mulliken atomic charges:
              1
     1  H   -0.054008
     2  C    0.295778
     3  H   -0.025895
     4  H    0.049656
     5  C    0.778964
     6  O   -0.769536
     7  N   -0.573311
     8  H   -0.036354
     9  C    0.114625
    10  H   -0.019880
    11  C    0.650526
    12  H   -0.038043
    13  H   -0.012197
    14  H   -0.150735
    15  C    0.777065
    16  O   -0.783859
    17  N   -0.485012
    18  H   -0.110299
    19  C    0.757388
    20  H   -0.104825
    21  H   -0.201332
    22  H   -0.058714
 Sum of Mulliken atomic charges =   0.00000

 Dipole moment (field-independent basis, Debye):
    X=              1.3333    Y=              5.1632    Z=             -2.2924  Tot=              5.8044
 Quadrupole moment (field-independent basis, Debye-Ang):
   XX=            -47.1927   YY=            -63.7210   ZZ=            -63.2080
   XY=             -1.5490   XZ=              7.5031   YZ=              0.8135

 Normal termination of Gaussian 09 at Sun Feb 12 14:04:50 2017.
