 Gaussian 09, Revision A.02,
 Gaussian 09:  EM64L-G09RevA.02 11-Jun-2009

 -------------------
 #SP MP2/aug-cc-pVDZ
 -------------------

 -------------------------------
 Single Point calculation at MP2
 -------------------------------
 Symbolic Z-matrix:
 Charge =  0 Multiplicity = 1

                         Standard orientation:
 ---------------------------------------------------------------------
 Center     Atomic      Atomic             Coordinates (Angstroms)
 Number     Number       Type             X           Y           Z
 ---------------------------------------------------------------------
      1          1           0       -3.226411   -0.165716    1.434288
      2          6           0       -3.303510   -0.409717    0.367688
      3          1           0       -3.893513    0.376881   -0.117612
      4          1           0       -3.821307   -1.364519    0.265588
      5          6           0       -1.907210   -0.542412   -0.228812
      6          8           0       -1.388806   -1.620510   -0.447212
      7          7           0       -1.324914    0.674690   -0.578312
      8          1           0       -1.909117    1.463388   -0.324412
      9          6           0        0.095385    1.034895   -0.482112
     10          1           0        0.449984    1.315896   -1.485412
     11          6           0        0.251981    2.254796    0.443188
     12          1           0       -0.040819    1.985895    1.462888
     13          1           0        1.291379    2.596299    0.456288
     14          1           0       -0.373922    3.086594    0.096988
     15          6           0        1.017089   -0.074002    0.068588
     16          8           0        0.731091   -0.736503    1.052488
     17          7           0        2.295388   -0.008697   -0.430712
     18          1           0        2.417887    0.378903   -1.356812
     19          6           0        3.318692   -0.929593    0.042088
     20          1           0        3.171892   -1.079694    1.112588
     21          1           0        3.261095   -1.908194   -0.452112
     22          1           0        4.306690   -0.495390   -0.135112
 ---------------------------------------------------------------------

 SCF Done:  E(RHF) =  -492.902252751     A.U. after   15 cycles
 E2 =    -0.1605333291D+01 EUMP2 =    -0.49450758604205D+03

 The electronic state is 1-A.
 Alpha  occ. eigenvalues --  -20.52668 -20.52406 -15.59401 -15.59056 -11.35839
 Alpha  occ. eigenvalues --  -11.35543 -11.30143 -11.26461 -11.24848 -11.24129
 Alpha  occ. eigenvalues --   -1.38738  -1.37217  -1.23491  -1.22664  -1.05628
 Alpha  occ. eigenvalues --   -0.98792  -0.95515  -0.87722  -0.80258  -0.77173
 Alpha  occ. eigenvalues --   -0.69508  -0.68248  -0.66552  -0.63448  -0.62472
 Alpha  occ. eigenvalues --   -0.61025  -0.59329  -0.57817  -0.57415  -0.55246
 Alpha  occ. eigenvalues --   -0.54830  -0.54469  -0.53478  -0.51836  -0.48784
 Alpha  occ. eigenvalues --   -0.42736  -0.41377  -0.39407  -0.38577
 Alpha virt. eigenvalues --    0.02637   0.03474   0.04358   0.04597   0.05709
 Alpha virt. eigenvalues --    0.05975   0.06490   0.06762   0.07290   0.08283
 Alpha virt. eigenvalues --    0.08829   0.09375   0.11245   0.11988   0.12306

 Mulliken atomic charges:
              1
     1  H    0.057077
     2  C    0.288104
     3  H   -0.014949
     4  H   -0.049749
     5  C    0.721773
     6  O   -0.798178
     7  N   -0.610232
     8  H    0.027802
     9  C    0.059263
    10  H   -0.276354
    11  C    0.586242
    12  H    0.027765
    13  H   -0.072932
    14  H   -0.061301
    15  C    1.178118
    16  O   -0.854115
    17  N   -0.510190
    18  H   -0.099825
    19  C    0.752644
    20  H   -0.105986
    21  H   -0.055823
    22  H   -0.189154
 Sum of Mulliken atomic charges =   0.00000

 Dipole moment (field-independent basis, Debye):
    X=              0.6887    Y=              5.0563    Z=             -1.4933  Tot=              5.3170
 Quadrupole moment (field-independent basis, Debye-Ang):
   XX=            -46.5725   YY=            -64.4078   ZZ=            -62.7099
   XY=             -4.6336   XZ=             -6.0573   YZ=             -0.4182

 Normal termination of Gaussian 09 at Sun Feb 12 13:47:56 2017.
