 Gaussian 09, Revision A.02,
 Gaussian 09:  EM64L-G09RevA.02 11-Jun-2009

 -------------------
 #SP MP2/aug-cc-pVDZ
 -------------------

 -------------------------------
 Single Point calculation at MP2
 -------------------------------
 Symbolic Z-matrix:
 Charge =  0 Multiplicity = 1

                         Standard orientation:
 ---------------------------------------------------------------------
 Center     Atomic      Atomic             Coordinates (Angstroms)
 Number     Number       Type             X           Y           Z
 ---------------------------------------------------------------------
      1          1           0       -3.937885   -1.140904    0.395096
      2          6           0       -3.331585   -0.237904    0.476896
      3          1           0       -3.169385   -0.017804    1.539296
      4          1           0       -3.878085    0.605496    0.037796
      5          6           0       -1.991585   -0.484704   -0.211004
      6          8           0       -1.611885   -1.597604   -0.512604
      7          7           0       -1.313585    0.692896   -0.540204
      8          1           0       -1.835685    1.509896   -0.245604
      9          6           0        0.125215    0.986796   -0.491804
     10          1           0        0.454015    1.272596   -1.503504
     11          6           0        0.350915    2.193496    0.441296
     12          1           0        0.092915    1.923296    1.470696
     13          1           0        1.394915    2.516496    0.419096
     14          1           0       -0.273285    3.040796    0.131096
     15          6           0        1.043015   -0.159204   -0.009204
     16          8           0        0.698315   -1.022704    0.777896
     17          7           0        2.369215    0.075196   -0.302504
     18          1           0        2.577115    0.644496   -1.112704
     19          6           0        3.393015   -0.870904    0.116396
     20          1           0        3.127715   -1.241904    1.107296
     21          1           0        3.473515   -1.731404   -0.560904
     22          1           0        4.359315   -0.360704    0.163496
 ---------------------------------------------------------------------

 SCF Done:  E(RHF) =  -492.895635548     A.U. after   15 cycles
 E2 =    -0.1605189429D+01 EUMP2 =    -0.49450082497735D+03

 The electronic state is 1-A.
 Alpha  occ. eigenvalues --  -20.53002 -20.52165 -15.59341 -15.58880 -11.36015
 Alpha  occ. eigenvalues --  -11.35371 -11.30425 -11.26588 -11.25180 -11.24004
 Alpha  occ. eigenvalues --   -1.38857  -1.37112  -1.23454  -1.22606  -1.05731
 Alpha  occ. eigenvalues --   -0.98665  -0.95447  -0.88061  -0.80199  -0.77096
 Alpha  occ. eigenvalues --   -0.69366  -0.68041  -0.66483  -0.63666  -0.62615
 Alpha  occ. eigenvalues --   -0.60934  -0.59242  -0.57840  -0.57297  -0.55632
 Alpha  occ. eigenvalues --   -0.54978  -0.54611  -0.53645  -0.51799  -0.48779
 Alpha  occ. eigenvalues --   -0.43104  -0.41051  -0.39418  -0.38260
 Alpha virt. eigenvalues --    0.02530   0.03438   0.04252   0.04596   0.05648
 Alpha virt. eigenvalues --    0.05821   0.06545   0.06646   0.07342   0.08298
 Alpha virt. eigenvalues --    0.08686   0.09575   0.11136   0.11774   0.12111

 Mulliken atomic charges:
              1
     1  H   -0.060868
     2  C    0.262139
     3  H    0.049093
     4  H   -0.006837
     5  C    0.726974
     6  O   -0.774480
     7  N   -0.650523
     8  H    0.029731
     9  C    0.110635
    10  H   -0.213059
    11  C    0.594334
    12  H    0.002345
    13  H   -0.089399
    14  H   -0.072487
    15  C    1.115086
    16  O   -0.819907
    17  N   -0.510529
    18  H   -0.095827
    19  C    0.755826
    20  H   -0.104078
    21  H   -0.057913
    22  H   -0.190255
 Sum of Mulliken atomic charges =   0.00000

 Dipole moment (field-independent basis, Debye):
    X=              1.3892    Y=              5.7407    Z=             -0.6986  Tot=              5.9476
 Quadrupole moment (field-independent basis, Debye-Ang):
   XX=            -47.2369   YY=            -65.3000   ZZ=            -62.0321
   XY=             -4.6907   XZ=             -6.2022   YZ=             -0.9377

 Normal termination of Gaussian 09 at Sun Feb 12 13:59:29 2017.
