 Gaussian 09, Revision A.02,
 Gaussian 09:  EM64L-G09RevA.02 11-Jun-2009

 -------------------------------------------
 # HF/6-31G* Opt=(ModRedundant) geom=nocrowd
 -------------------------------------------

 ------------------
 Phi Psi fixed scan
 ------------------
 Symbolic Z-matrix:
 Charge =  0 Multiplicity = 1

 SCF Done:  E(RHF) =  -492.812098935     A.U. after   15 cycles
 SCF Done:  E(RHF) =  -492.835694453     A.U. after   14 cycles
 SCF Done:  E(RHF) =  -492.841436938     A.U. after   14 cycles
 SCF Done:  E(RHF) =  -492.844002816     A.U. after   13 cycles
 SCF Done:  E(RHF) =  -492.845532281     A.U. after   16 cycles
 SCF Done:  E(RHF) =  -492.845865058     A.U. after   13 cycles
 SCF Done:  E(RHF) =  -492.846185113     A.U. after   13 cycles
 SCF Done:  E(RHF) =  -492.846260726     A.U. after   12 cycles
 SCF Done:  E(RHF) =  -492.846311719     A.U. after   12 cycles
 SCF Done:  E(RHF) =  -492.846383314     A.U. after   11 cycles
 SCF Done:  E(RHF) =  -492.846624320     A.U. after   13 cycles
 SCF Done:  E(RHF) =  -492.846812758     A.U. after   13 cycles
 SCF Done:  E(RHF) =  -492.846890198     A.U. after   12 cycles
 SCF Done:  E(RHF) =  -492.846904238     A.U. after   11 cycles
 SCF Done:  E(RHF) =  -492.846938768     A.U. after   11 cycles
 SCF Done:  E(RHF) =  -492.846950397     A.U. after   12 cycles
 SCF Done:  E(RHF) =  -492.846951831     A.U. after   10 cycles
 SCF Done:  E(RHF) =  -492.846952124     A.U. after    9 cycles
 SCF Done:  E(RHF) =  -492.846952194     A.U. after    8 cycles
 Optimization completed.
    -- Stationary point found.

                         Standard orientation:
 ---------------------------------------------------------------------
 Center     Atomic      Atomic             Coordinates (Angstroms)
 Number     Number       Type             X           Y           Z
 ---------------------------------------------------------------------
      1          1           0       -3.814780   -1.454790    0.480773
      2          6           0       -3.081357   -1.302341   -0.296858
      3          1           0       -3.583788   -0.923128   -1.181917
      4          1           0       -2.619884   -2.250345   -0.552293
      5          6           0       -2.063863   -0.285493    0.184527
      6          8           0       -2.273416    0.414454    1.130162
      7          7           0       -0.905674   -0.274091   -0.545912
      8          1           0       -0.940104   -0.839446   -1.365348
      9          6           0        0.104164    0.786289   -0.620499
     10          1           0        0.243210    0.989079   -1.678801
     11          6           0       -0.267600    2.112020    0.043632
     12          1           0       -0.349609    2.020367    1.115083
     13          1           0        0.508415    2.826182   -0.191085
     14          1           0       -1.212700    2.475088   -0.338997
     15          6           0        1.491588    0.318408   -0.158996
     16          8           0        2.378254    1.115640   -0.016801
     17          7           0        1.682545   -1.015171   -0.056888
     18          1           0        0.872563   -1.576166    0.068298
     19          6           0        2.948976   -1.537707    0.412483
     20          1           0        3.754234   -1.092422   -0.152218
     21          1           0        3.113349   -1.328357    1.464399
     22          1           0        2.960840   -2.609037    0.259083
 ---------------------------------------------------------------------

 The electronic state is 1-A.
 Alpha  occ. eigenvalues --  -20.53424 -20.52155 -15.59902 -15.58285 -11.36077
 Alpha  occ. eigenvalues --  -11.34212 -11.28741 -11.25599 -11.24258 -11.20994
 Alpha  occ. eigenvalues --   -1.40307  -1.39073  -1.25355  -1.22525  -1.05739
 Alpha  occ. eigenvalues --   -0.99642  -0.95967  -0.88196  -0.79954  -0.76952
 Alpha  occ. eigenvalues --   -0.72652  -0.70414  -0.66633  -0.63438  -0.62756
 Alpha  occ. eigenvalues --   -0.62033  -0.60624  -0.59398  -0.57356  -0.55267
 Alpha  occ. eigenvalues --   -0.54485  -0.54146  -0.52264  -0.52002  -0.49995
 Alpha  occ. eigenvalues --   -0.44429  -0.42241  -0.39179  -0.38620
 Alpha virt. eigenvalues --    0.18405   0.19208   0.20841   0.24655   0.26018
 Alpha virt. eigenvalues --    0.27989   0.28712   0.30128   0.31313   0.31518
 Alpha virt. eigenvalues --    0.33056   0.33605   0.34182   0.35166   0.36095

 Mulliken atomic charges:
              1
     1  H    0.220689
     2  C   -0.594160
     3  H    0.196101
     4  H    0.176596
     5  C    0.748223
     6  O   -0.579109
     7  N   -0.849047
     8  H    0.381955
     9  C   -0.029565
    10  H    0.206152
    11  C   -0.481642
    12  H    0.208061
    13  H    0.198795
    14  H    0.171709
    15  C    0.769310
    16  O   -0.613762
    17  N   -0.796101
    18  H    0.394906
    19  C   -0.277136
    20  H    0.204140
    21  H    0.178002
    22  H    0.165880
 Sum of Mulliken atomic charges =   0.00000

 Dipole moment (field-independent basis, Debye):
    X=             -1.6341    Y=             -4.3466    Z=             -3.1068  Tot=              5.5871
 Quadrupole moment (field-independent basis, Debye-Ang):
   XX=            -66.7238   YY=            -57.9829   ZZ=            -60.6170
   XY=             -2.7753   XZ=              7.3095   YZ=             -1.8293

 Normal termination of Gaussian 09 at Thu Feb  9 23:14:48 2017.
