 Gaussian 09, Revision A.02,
 Gaussian 09:  EM64L-G09RevA.02 11-Jun-2009

 -------------------------------------------
 # HF/6-31G* Opt=(ModRedundant) geom=nocrowd
 -------------------------------------------

 ------------------
 Phi Psi fixed scan
 ------------------
 Symbolic Z-matrix:
 Charge =  0 Multiplicity = 1

 SCF Done:  E(RHF) =  -492.815942942     A.U. after   15 cycles
 SCF Done:  E(RHF) =  -492.839357940     A.U. after   17 cycles
 SCF Done:  E(RHF) =  -492.844553872     A.U. after   14 cycles
 SCF Done:  E(RHF) =  -492.846646823     A.U. after   13 cycles
 SCF Done:  E(RHF) =  -492.847622138     A.U. after   13 cycles
 SCF Done:  E(RHF) =  -492.847835259     A.U. after   13 cycles
 SCF Done:  E(RHF) =  -492.847923176     A.U. after   13 cycles
 SCF Done:  E(RHF) =  -492.848032798     A.U. after   12 cycles
 SCF Done:  E(RHF) =  -492.848058275     A.U. after   11 cycles
 SCF Done:  E(RHF) =  -492.848122056     A.U. after   12 cycles
 SCF Done:  E(RHF) =  -492.848295910     A.U. after   12 cycles
 SCF Done:  E(RHF) =  -492.848442190     A.U. after   13 cycles
 SCF Done:  E(RHF) =  -492.848471274     A.U. after   11 cycles
 SCF Done:  E(RHF) =  -492.848507971     A.U. after   12 cycles
 SCF Done:  E(RHF) =  -492.848527502     A.U. after   11 cycles
 SCF Done:  E(RHF) =  -492.848538280     A.U. after   11 cycles
 SCF Done:  E(RHF) =  -492.848548243     A.U. after   11 cycles
 SCF Done:  E(RHF) =  -492.848553299     A.U. after   11 cycles
 SCF Done:  E(RHF) =  -492.848555726     A.U. after   10 cycles
 SCF Done:  E(RHF) =  -492.848555865     A.U. after    8 cycles
 Optimization completed.
    -- Stationary point found.

                         Standard orientation:
 ---------------------------------------------------------------------
 Center     Atomic      Atomic             Coordinates (Angstroms)
 Number     Number       Type             X           Y           Z
 ---------------------------------------------------------------------
      1          1           0       -3.799603   -1.467580    0.394091
      2          6           0       -3.090016   -1.240405   -0.387480
      3          1           0       -3.618977   -0.779447   -1.216392
      4          1           0       -2.637785   -2.158852   -0.746460
      5          6           0       -2.058615   -0.269956    0.156343
      6          8           0       -2.246939    0.348135    1.162529
      7          7           0       -0.919714   -0.194991   -0.596356
      8          1           0       -0.950875   -0.714953   -1.445141
      9          6           0        0.113747    0.841606   -0.588108
     10          1           0        0.225671    1.165919   -1.617870
     11          6           0       -0.198075    2.089262    0.241530
     12          1           0       -0.253559    1.871738    1.296903
     13          1           0        0.594255    2.803076    0.065827
     14          1           0       -1.141541    2.522629   -0.063091
     15          6           0        1.502947    0.302990   -0.223100
     16          8           0        2.449142    1.043910   -0.248162
     17          7           0        1.607354   -1.014250    0.038220
     18          1           0        0.768807   -1.511298    0.226724
     19          6           0        2.865648   -1.587359    0.466260
     20          1           0        3.654729   -1.260859   -0.194498
     21          1           0        3.123541   -1.292807    1.478106
     22          1           0        2.790413   -2.666067    0.421138
 ---------------------------------------------------------------------

 The electronic state is 1-A.
 Alpha  occ. eigenvalues --  -20.53365 -20.51905 -15.59891 -15.58392 -11.36100
 Alpha  occ. eigenvalues --  -11.34155 -11.28663 -11.25666 -11.24253 -11.21219
 Alpha  occ. eigenvalues --   -1.40264  -1.38895  -1.25368  -1.22593  -1.05798
 Alpha  occ. eigenvalues --   -0.99676  -0.96015  -0.88374  -0.79882  -0.77279
 Alpha  occ. eigenvalues --   -0.72790  -0.70311  -0.66665  -0.63132  -0.62749
 Alpha  occ. eigenvalues --   -0.62188  -0.60504  -0.59462  -0.57340  -0.55299
 Alpha  occ. eigenvalues --   -0.55053  -0.54129  -0.52351  -0.52153  -0.49757
 Alpha  occ. eigenvalues --   -0.44220  -0.42236  -0.39152  -0.38470
 Alpha virt. eigenvalues --    0.18852   0.19395   0.20615   0.24361   0.26063
 Alpha virt. eigenvalues --    0.27984   0.28749   0.30000   0.31164   0.31696
 Alpha virt. eigenvalues --    0.33094   0.33535   0.34196   0.35316   0.36099

 Mulliken atomic charges:
              1
     1  H    0.219897
     2  C   -0.592742
     3  H    0.197669
     4  H    0.175737
     5  C    0.746097
     6  O   -0.582685
     7  N   -0.851597
     8  H    0.383566
     9  C   -0.019443
    10  H    0.207934
    11  C   -0.486747
    12  H    0.204687
    13  H    0.200450
    14  H    0.176853
    15  C    0.763034
    16  O   -0.620636
    17  N   -0.795014
    18  H    0.398213
    19  C   -0.275153
    20  H    0.204724
    21  H    0.178883
    22  H    0.166271
 Sum of Mulliken atomic charges =   0.00000

 Dipole moment (field-independent basis, Debye):
    X=             -1.8500    Y=             -4.0137    Z=             -2.7410  Tot=              5.2005
 Quadrupole moment (field-independent basis, Debye-Ang):
   XX=            -67.6069   YY=            -57.5699   ZZ=            -60.6596
   XY=             -3.2686   XZ=              8.8650   YZ=             -1.1931

 Normal termination of Gaussian 09 at Thu Feb  9 23:12:29 2017.
