 Gaussian 09, Revision A.02,
 Gaussian 09:  EM64L-G09RevA.02 11-Jun-2009

 -------------------------------------------
 # HF/6-31G* Opt=(ModRedundant) geom=nocrowd
 -------------------------------------------

 ------------------
 Phi Psi fixed scan
 ------------------
 Symbolic Z-matrix:
 Charge =  0 Multiplicity = 1

 SCF Done:  E(RHF) =  -492.817519089     A.U. after   15 cycles
 SCF Done:  E(RHF) =  -492.838257559     A.U. after   15 cycles
 SCF Done:  E(RHF) =  -492.844169173     A.U. after   13 cycles
 SCF Done:  E(RHF) =  -492.846932171     A.U. after   13 cycles
 SCF Done:  E(RHF) =  -492.847624123     A.U. after   13 cycles
 SCF Done:  E(RHF) =  -492.847601052     A.U. after   13 cycles
 SCF Done:  E(RHF) =  -492.847805426     A.U. after   11 cycles
 SCF Done:  E(RHF) =  -492.847837538     A.U. after   11 cycles
 SCF Done:  E(RHF) =  -492.847870626     A.U. after   11 cycles
 SCF Done:  E(RHF) =  -492.847879930     A.U. after    9 cycles
 SCF Done:  E(RHF) =  -492.848309231     A.U. after   11 cycles
 SCF Done:  E(RHF) =  -492.848329528     A.U. after   12 cycles
 SCF Done:  E(RHF) =  -492.848368638     A.U. after   11 cycles
 SCF Done:  E(RHF) =  -492.848397962     A.U. after   11 cycles
 SCF Done:  E(RHF) =  -492.848403086     A.U. after   10 cycles
 SCF Done:  E(RHF) =  -492.848406405     A.U. after   10 cycles
 SCF Done:  E(RHF) =  -492.848411735     A.U. after   11 cycles
 SCF Done:  E(RHF) =  -492.848417618     A.U. after   11 cycles
 SCF Done:  E(RHF) =  -492.848417932     A.U. after    8 cycles
 SCF Done:  E(RHF) =  -492.848417966     A.U. after    8 cycles
 Optimization completed.
    -- Stationary point found.

                         Standard orientation:
 ---------------------------------------------------------------------
 Center     Atomic      Atomic             Coordinates (Angstroms)
 Number     Number       Type             X           Y           Z
 ---------------------------------------------------------------------
      1          1           0        4.093476   -0.945401   -0.609748
      2          6           0        3.136781   -1.258248   -0.218599
      3          1           0        3.272986   -1.725499    0.750478
      4          1           0        2.703365   -1.994597   -0.888668
      5          6           0        2.225351   -0.048839   -0.131073
      6          8           0        2.515001    0.993461   -0.650385
      7          7           0        1.095266   -0.279185    0.587518
      8          1           0        0.914198   -1.234201    0.805691
      9          6           0       -0.101699    0.534368    0.705405
     10          1           0       -0.300810    0.658694    1.768556
     11          6           0       -0.008124    1.937105    0.101150
     12          1           0        0.056377    1.918417   -0.977765
     13          1           0       -0.878289    2.513745    0.399081
     14          1           0        0.864725    2.448922    0.472803
     15          6           0       -1.281922   -0.315651    0.199001
     16          8           0       -1.189510   -1.514876    0.144022
     17          7           0       -2.433631    0.324027   -0.075404
     18          1           0       -2.439722    1.312469   -0.149829
     19          6           0       -3.603294   -0.404559   -0.523524
     20          1           0       -3.822104   -1.210701    0.161742
     21          1           0       -4.443880    0.275805   -0.548584
     22          1           0       -3.458261   -0.825274   -1.511811
 ---------------------------------------------------------------------

 The electronic state is 1-A.
 Alpha  occ. eigenvalues --  -20.53248 -20.51593 -15.59456 -15.57681 -11.35249
 Alpha  occ. eigenvalues --  -11.34452 -11.28843 -11.26404 -11.22716 -11.22415
 Alpha  occ. eigenvalues --   -1.40303  -1.38310  -1.24190  -1.23297  -1.05856
 Alpha  occ. eigenvalues --   -0.98768  -0.95963  -0.89539  -0.80642  -0.75801
 Alpha  occ. eigenvalues --   -0.73095  -0.69202  -0.65920  -0.64728  -0.62649
 Alpha  occ. eigenvalues --   -0.61867  -0.59675  -0.58647  -0.56641  -0.56093
 Alpha  occ. eigenvalues --   -0.55633  -0.54673  -0.53009  -0.51862  -0.50338
 Alpha  occ. eigenvalues --   -0.43134  -0.40757  -0.40124  -0.38102
 Alpha virt. eigenvalues --    0.18978   0.20957   0.21458   0.24716   0.25773
 Alpha virt. eigenvalues --    0.27972   0.29091   0.30250   0.31987   0.32221
 Alpha virt. eigenvalues --    0.32545   0.33548   0.33948   0.35150   0.36372

 Mulliken atomic charges:
              1
     1  H    0.211276
     2  C   -0.590837
     3  H    0.183516
     4  H    0.197150
     5  C    0.746427
     6  O   -0.609240
     7  N   -0.807864
     8  H    0.409186
     9  C   -0.022866
    10  H    0.205739
    11  C   -0.502728
    12  H    0.197502
    13  H    0.140500
    14  H    0.224470
    15  C    0.774301
    16  O   -0.633538
    17  N   -0.804827
    18  H    0.398465
    19  C   -0.271383
    20  H    0.200998
    21  H    0.169476
    22  H    0.184277
 Sum of Mulliken atomic charges =   0.00000

 Dipole moment (field-independent basis, Debye):
    X=             -2.9395    Y=              0.6079    Z=              1.0522  Tot=              3.1808
 Quadrupole moment (field-independent basis, Debye-Ang):
   XX=            -56.1601   YY=            -63.0489   ZZ=            -60.4470
   XY=            -12.7000   XZ=              4.5652   YZ=              1.7690

 Normal termination of Gaussian 09 at Fri Feb 10 00:04:43 2017.
