 Gaussian 09, Revision A.02,
 Gaussian 09:  EM64L-G09RevA.02 11-Jun-2009

 -------------------------------------------
 # HF/6-31G* Opt=(ModRedundant) geom=nocrowd
 -------------------------------------------

 ------------------
 Phi Psi fixed scan
 ------------------
 Symbolic Z-matrix:
 Charge =  0 Multiplicity = 1

 SCF Done:  E(RHF) =  -492.816596766     A.U. after   15 cycles
 SCF Done:  E(RHF) =  -492.840276954     A.U. after   14 cycles
 SCF Done:  E(RHF) =  -492.846222408     A.U. after   13 cycles
 SCF Done:  E(RHF) =  -492.847015723     A.U. after   13 cycles
 SCF Done:  E(RHF) =  -492.847226836     A.U. after   13 cycles
 SCF Done:  E(RHF) =  -492.847444394     A.U. after   13 cycles
 SCF Done:  E(RHF) =  -492.847527338     A.U. after   13 cycles
 SCF Done:  E(RHF) =  -492.847657935     A.U. after   12 cycles
 SCF Done:  E(RHF) =  -492.847729038     A.U. after   12 cycles
 SCF Done:  E(RHF) =  -492.847757482     A.U. after   11 cycles
 SCF Done:  E(RHF) =  -492.848049069     A.U. after   12 cycles
 SCF Done:  E(RHF) =  -492.848105512     A.U. after   11 cycles
 SCF Done:  E(RHF) =  -492.848132788     A.U. after   12 cycles
 SCF Done:  E(RHF) =  -492.848183203     A.U. after   12 cycles
 SCF Done:  E(RHF) =  -492.848195380     A.U. after   11 cycles
 SCF Done:  E(RHF) =  -492.848202435     A.U. after   10 cycles
 SCF Done:  E(RHF) =  -492.848217896     A.U. after   11 cycles
 SCF Done:  E(RHF) =  -492.848220871     A.U. after    9 cycles
 SCF Done:  E(RHF) =  -492.848221845     A.U. after   10 cycles
 SCF Done:  E(RHF) =  -492.848221940     A.U. after    8 cycles
 Optimization completed.
    -- Stationary point found.

                         Standard orientation:
 ---------------------------------------------------------------------
 Center     Atomic      Atomic             Coordinates (Angstroms)
 Number     Number       Type             X           Y           Z
 ---------------------------------------------------------------------
      1          1           0        3.722043   -1.584908   -0.141129
      2          6           0        3.114812   -1.088518    0.601265
      3          1           0        3.741465   -0.401644    1.162087
      4          1           0        2.713807   -1.821015    1.293170
      5          6           0        2.021767   -0.309430   -0.102846
      6          8           0        2.097009   -0.029591   -1.267379
      7          7           0        0.969898    0.019466    0.691410
      8          1           0        1.033243   -0.267532    1.642441
      9          6           0       -0.097274    0.991362    0.445021
     10          1           0       -0.139437    1.621184    1.323994
     11          6           0        0.078791    1.906155   -0.765998
     12          1           0        0.074145    1.381443   -1.707283
     13          1           0       -0.736323    2.622372   -0.757790
     14          1           0        1.011986    2.449309   -0.695773
     15          6           0       -1.435572    0.246146    0.463342
     16          8           0       -2.182083    0.340454    1.400080
     17          7           0       -1.706239   -0.501689   -0.626640
     18          1           0       -0.971297   -0.660189   -1.278252
     19          6           0       -2.866817   -1.363885   -0.681859
     20          1           0       -3.738231   -0.818494   -0.351304
     21          1           0       -3.017081   -1.681159   -1.705293
     22          1           0       -2.753582   -2.241678   -0.053417
 ---------------------------------------------------------------------

 The electronic state is 1-A.
 Alpha  occ. eigenvalues --  -20.53021 -20.52455 -15.59630 -15.58214 -11.35878
 Alpha  occ. eigenvalues --  -11.34133 -11.28445 -11.25584 -11.23918 -11.22335
 Alpha  occ. eigenvalues --   -1.39941  -1.39072  -1.24851  -1.22744  -1.06073
 Alpha  occ. eigenvalues --   -0.99753  -0.95529  -0.89353  -0.79587  -0.77504
 Alpha  occ. eigenvalues --   -0.72400  -0.70016  -0.66365  -0.63892  -0.62544
 Alpha  occ. eigenvalues --   -0.62109  -0.59826  -0.58983  -0.57276  -0.55968
 Alpha  occ. eigenvalues --   -0.55352  -0.54446  -0.52875  -0.51960  -0.51316
 Alpha  occ. eigenvalues --   -0.43791  -0.41992  -0.38839  -0.38483
 Alpha virt. eigenvalues --    0.18596   0.20594   0.21167   0.23858   0.26195
 Alpha virt. eigenvalues --    0.27002   0.28708   0.30001   0.31050   0.31956
 Alpha virt. eigenvalues --    0.32500   0.33376   0.33824   0.34987   0.37435

 Mulliken atomic charges:
              1
     1  H    0.216644
     2  C   -0.589121
     3  H    0.198493
     4  H    0.180178
     5  C    0.749963
     6  O   -0.608488
     7  N   -0.823311
     8  H    0.391463
     9  C   -0.049343
    10  H    0.216252
    11  C   -0.480062
    12  H    0.199144
    13  H    0.173280
    14  H    0.185758
    15  C    0.762696
    16  O   -0.612217
    17  N   -0.783785
    18  H    0.399640
    19  C   -0.274312
    20  H    0.204577
    21  H    0.170964
    22  H    0.171586
 Sum of Mulliken atomic charges =   0.00000

 Dipole moment (field-independent basis, Debye):
    X=              1.5388    Y=             -1.3288    Z=              0.5491  Tot=              2.1060
 Quadrupole moment (field-independent basis, Debye-Ang):
   XX=            -63.8151   YY=            -56.3319   ZZ=            -64.4300
   XY=              1.4031   XZ=             15.1978   YZ=             -0.0001

 Normal termination of Gaussian 09 at Fri Feb 10 00:33:44 2017.
