 Gaussian 09, Revision A.02,
 Gaussian 09:  EM64L-G09RevA.02 11-Jun-2009

 -------------------------------------------
 # HF/6-31G* Opt=(ModRedundant) geom=nocrowd
 -------------------------------------------

 ------------------
 Phi Psi fixed scan
 ------------------
 Symbolic Z-matrix:
 Charge =  0 Multiplicity = 1

 SCF Done:  E(RHF) =  -492.810247094     A.U. after   15 cycles
 SCF Done:  E(RHF) =  -492.832853986     A.U. after   15 cycles
 SCF Done:  E(RHF) =  -492.837970836     A.U. after   13 cycles
 SCF Done:  E(RHF) =  -492.839068630     A.U. after   13 cycles
 SCF Done:  E(RHF) =  -492.839462946     A.U. after   13 cycles
 SCF Done:  E(RHF) =  -492.839787631     A.U. after   13 cycles
 SCF Done:  E(RHF) =  -492.840208011     A.U. after   13 cycles
 SCF Done:  E(RHF) =  -492.840544909     A.U. after   13 cycles
 SCF Done:  E(RHF) =  -492.840629803     A.U. after   12 cycles
 SCF Done:  E(RHF) =  -492.840800975     A.U. after   13 cycles
 SCF Done:  E(RHF) =  -492.841635230     A.U. after   16 cycles
 SCF Done:  E(RHF) =  -492.841809409     A.U. after   12 cycles
 SCF Done:  E(RHF) =  -492.842066324     A.U. after   13 cycles
 SCF Done:  E(RHF) =  -492.842119774     A.U. after   12 cycles
 SCF Done:  E(RHF) =  -492.842126390     A.U. after   10 cycles
 SCF Done:  E(RHF) =  -492.842129748     A.U. after   10 cycles
 SCF Done:  E(RHF) =  -492.842131364     A.U. after   10 cycles
 SCF Done:  E(RHF) =  -492.842133150     A.U. after   10 cycles
 SCF Done:  E(RHF) =  -492.842134354     A.U. after   10 cycles
 SCF Done:  E(RHF) =  -492.842134543     A.U. after    9 cycles
 Optimization completed.
    -- Stationary point found.

                         Standard orientation:
 ---------------------------------------------------------------------
 Center     Atomic      Atomic             Coordinates (Angstroms)
 Number     Number       Type             X           Y           Z
 ---------------------------------------------------------------------
      1          1           0       -3.836237   -1.433162    0.643933
      2          6           0       -3.052306   -1.429335   -0.098452
      3          1           0       -3.496208   -1.263599   -1.075904
      4          1           0       -2.559302   -2.395566   -0.111149
      5          6           0       -2.083378   -0.306907    0.222005
      6          8           0       -2.353655    0.553823    1.004273
      7          7           0       -0.888078   -0.404144   -0.443852
      8          1           0       -0.905872   -1.084724   -1.171239
      9          6           0        0.087118    0.668989   -0.688376
     10          1           0        0.270952    0.656920   -1.759547
     11          6           0       -0.359371    2.079592   -0.317742
     12          1           0       -0.469462    2.204250    0.746594
     13          1           0        0.392607    2.771804   -0.671537
     14          1           0       -1.303558    2.312722   -0.792952
     15          6           0        1.449054    0.332720   -0.060291
     16          8           0        2.127288    1.172093    0.459296
     17          7           0        1.893590   -0.936536   -0.264687
     18          1           0        1.197405   -1.636228   -0.380856
     19          6           0        3.140054   -1.365563    0.338827
     20          1           0        3.924885   -0.674686    0.070627
     21          1           0        3.080272   -1.410674    1.421509
     22          1           0        3.389851   -2.346606   -0.044089
 ---------------------------------------------------------------------

 The electronic state is 1-A.
 Alpha  occ. eigenvalues --  -20.53335 -20.52809 -15.59858 -15.58301 -11.35915
 Alpha  occ. eigenvalues --  -11.34338 -11.28758 -11.25599 -11.24141 -11.20764
 Alpha  occ. eigenvalues --   -1.40232  -1.39499  -1.25186  -1.22556  -1.05673
 Alpha  occ. eigenvalues --   -0.99537  -0.95901  -0.87925  -0.80020  -0.76594
 Alpha  occ. eigenvalues --   -0.72318  -0.70494  -0.66418  -0.64156  -0.62800
 Alpha  occ. eigenvalues --   -0.61848  -0.60724  -0.59254  -0.57265  -0.55264
 Alpha  occ. eigenvalues --   -0.54291  -0.53139  -0.52135  -0.51991  -0.50751
 Alpha  occ. eigenvalues --   -0.44737  -0.42119  -0.39336  -0.38762
 Alpha virt. eigenvalues --    0.17826   0.19206   0.20610   0.24860   0.25932
 Alpha virt. eigenvalues --    0.26933   0.29038   0.30335   0.31282   0.31566
 Alpha virt. eigenvalues --    0.32789   0.33363   0.34343   0.35149   0.36803

 Mulliken atomic charges:
              1
     1  H    0.221704
     2  C   -0.596726
     3  H    0.192225
     4  H    0.179569
     5  C    0.751897
     6  O   -0.575536
     7  N   -0.833850
     8  H    0.375013
     9  C   -0.052988
    10  H    0.199362
    11  C   -0.465445
    12  H    0.217510
    13  H    0.182559
    14  H    0.166768
    15  C    0.778068
    16  O   -0.597468
    17  N   -0.786974
    18  H    0.378288
    19  C   -0.280428
    20  H    0.204622
    21  H    0.176028
    22  H    0.165802
 Sum of Mulliken atomic charges =   0.00000

 Dipole moment (field-independent basis, Debye):
    X=             -0.8400    Y=             -4.9425    Z=             -3.7553  Tot=              6.2639
 Quadrupole moment (field-independent basis, Debye-Ang):
   XX=            -64.4016   YY=            -58.2210   ZZ=            -61.2032
   XY=             -1.1285   XZ=              4.3883   YZ=             -2.6185

 Normal termination of Gaussian 09 at Thu Feb  9 23:20:21 2017.
