 Gaussian 09, Revision A.02,
 Gaussian 09:  EM64L-G09RevA.02 11-Jun-2009

 -------------------------------------------
 # HF/6-31G* Opt=(ModRedundant) geom=nocrowd
 -------------------------------------------

 ------------------
 Phi Psi fixed scan
 ------------------
 Symbolic Z-matrix:
 Charge =  0 Multiplicity = 1

 SCF Done:  E(RHF) =  -492.812801684     A.U. after   15 cycles
 SCF Done:  E(RHF) =  -492.836032098     A.U. after   15 cycles
 SCF Done:  E(RHF) =  -492.841069582     A.U. after   16 cycles
 SCF Done:  E(RHF) =  -492.841655646     A.U. after   13 cycles
 SCF Done:  E(RHF) =  -492.841749533     A.U. after   13 cycles
 SCF Done:  E(RHF) =  -492.841850979     A.U. after   12 cycles
 SCF Done:  E(RHF) =  -492.841937396     A.U. after   12 cycles
 SCF Done:  E(RHF) =  -492.842012565     A.U. after   13 cycles
 SCF Done:  E(RHF) =  -492.842102527     A.U. after   12 cycles
 SCF Done:  E(RHF) =  -492.842183872     A.U. after   12 cycles
 SCF Done:  E(RHF) =  -492.842688743     A.U. after   11 cycles
 SCF Done:  E(RHF) =  -492.842699610     A.U. after   11 cycles
 SCF Done:  E(RHF) =  -492.842698759     A.U. after   11 cycles
 SCF Done:  E(RHF) =  -492.842707970     A.U. after   11 cycles
 SCF Done:  E(RHF) =  -492.842708251     A.U. after    8 cycles
 SCF Done:  E(RHF) =  -492.842708330     A.U. after    8 cycles
 SCF Done:  E(RHF) =  -492.842708349     A.U. after    7 cycles
 SCF Done:  E(RHF) =  -492.842708389     A.U. after    8 cycles
 SCF Done:  E(RHF) =  -492.842708429     A.U. after    8 cycles
 SCF Done:  E(RHF) =  -492.842708446     A.U. after    7 cycles
 Optimization completed.
    -- Stationary point found.

                         Standard orientation:
 ---------------------------------------------------------------------
 Center     Atomic      Atomic             Coordinates (Angstroms)
 Number     Number       Type             X           Y           Z
 ---------------------------------------------------------------------
      1          1           0       -3.782997   -1.643378    0.380538
      2          6           0       -2.719835   -1.746876    0.222402
      3          1           0       -2.540735   -2.384739   -0.636587
      4          1           0       -2.280965   -2.221853    1.094653
      5          6           0       -2.118760   -0.364645    0.043840
      6          8           0       -2.714642    0.622490    0.364017
      7          7           0       -0.869558   -0.383487   -0.498743
      8          1           0       -0.494313   -1.287446   -0.678118
      9          6           0        0.087908    0.708355   -0.677206
     10          1           0        0.345711    0.733696   -1.734433
     11          6           0       -0.396053    2.096533   -0.278802
     12          1           0       -0.623758    2.149100    0.773120
     13          1           0        0.400894    2.800208   -0.494732
     14          1           0       -1.274285    2.375302   -0.841078
     15          6           0        1.350167    0.325345    0.109640
     16          8           0        1.606760    0.773732    1.188812
     17          7           0        2.112175   -0.633837   -0.483430
     18          1           0        2.015055   -0.759584   -1.465484
     19          6           0        3.359223   -1.062703    0.118386
     20          1           0        3.192302   -1.300415    1.158046
     21          1           0        3.707230   -1.949581   -0.394805
     22          1           0        4.124698   -0.295867    0.061893
 ---------------------------------------------------------------------

 The electronic state is 1-A.
 Alpha  occ. eigenvalues --  -20.53368 -20.52022 -15.59547 -15.59057 -11.35036
 Alpha  occ. eigenvalues --  -11.34974 -11.28747 -11.26451 -11.23192 -11.20786
 Alpha  occ. eigenvalues --   -1.40233  -1.38882  -1.24923  -1.23176  -1.05608
 Alpha  occ. eigenvalues --   -0.98878  -0.96629  -0.88061  -0.79873  -0.77205
 Alpha  occ. eigenvalues --   -0.72827  -0.69539  -0.66306  -0.64821  -0.62968
 Alpha  occ. eigenvalues --   -0.61933  -0.60274  -0.58924  -0.56557  -0.56076
 Alpha  occ. eigenvalues --   -0.53749  -0.53040  -0.52732  -0.51689  -0.51040
 Alpha  occ. eigenvalues --   -0.44433  -0.41158  -0.39978  -0.38059
 Alpha virt. eigenvalues --    0.18088   0.19931   0.21621   0.23495   0.26141
 Alpha virt. eigenvalues --    0.27186   0.28798   0.30589   0.30966   0.31644
 Alpha virt. eigenvalues --    0.32989   0.33740   0.34044   0.35253   0.36707

 Mulliken atomic charges:
              1
     1  H    0.216611
     2  C   -0.591327
     3  H    0.173111
     4  H    0.198236
     5  C    0.756421
     6  O   -0.592551
     7  N   -0.820297
     8  H    0.383516
     9  C   -0.017441
    10  H    0.171590
    11  C   -0.466180
    12  H    0.217687
    13  H    0.157538
    14  H    0.193348
    15  C    0.750924
    16  O   -0.589118
    17  N   -0.797602
    18  H    0.377809
    19  C   -0.277876
    20  H    0.208053
    21  H    0.169039
    22  H    0.178508
 Sum of Mulliken atomic charges =   0.00000

 Dipole moment (field-independent basis, Debye):
    X=              2.6443    Y=             -4.1315    Z=             -4.0696  Tot=              6.3736
 Quadrupole moment (field-independent basis, Debye-Ang):
   XX=            -63.3481   YY=            -57.7261   ZZ=            -61.1211
   XY=              2.4795   XZ=             -4.1092   YZ=             -2.4942

 Normal termination of Gaussian 09 at Thu Feb  9 23:25:52 2017.
