 Gaussian 09, Revision A.02,
 Gaussian 09:  EM64L-G09RevA.02 11-Jun-2009

 -------------------------------------------
 # HF/6-31G* Opt=(ModRedundant) geom=nocrowd
 -------------------------------------------

 ------------------
 Phi Psi fixed scan
 ------------------
 Symbolic Z-matrix:
 Charge =  0 Multiplicity = 1

 SCF Done:  E(RHF) =  -492.816029284     A.U. after   15 cycles
 SCF Done:  E(RHF) =  -492.838270498     A.U. after   15 cycles
 SCF Done:  E(RHF) =  -492.842517834     A.U. after   13 cycles
 SCF Done:  E(RHF) =  -492.842887263     A.U. after   12 cycles
 SCF Done:  E(RHF) =  -492.842876309     A.U. after   12 cycles
 SCF Done:  E(RHF) =  -492.843045419     A.U. after   12 cycles
 SCF Done:  E(RHF) =  -492.843079713     A.U. after   12 cycles
 SCF Done:  E(RHF) =  -492.843138278     A.U. after   13 cycles
 SCF Done:  E(RHF) =  -492.843162613     A.U. after   11 cycles
 SCF Done:  E(RHF) =  -492.843184362     A.U. after   11 cycles
 SCF Done:  E(RHF) =  -492.843435842     A.U. after   12 cycles
 SCF Done:  E(RHF) =  -492.843424466     A.U. after   13 cycles
 SCF Done:  E(RHF) =  -492.843505552     A.U. after   12 cycles
 SCF Done:  E(RHF) =  -492.843529703     A.U. after   11 cycles
 SCF Done:  E(RHF) =  -492.843552056     A.U. after   12 cycles
 SCF Done:  E(RHF) =  -492.843554901     A.U. after   11 cycles
 SCF Done:  E(RHF) =  -492.843560545     A.U. after   10 cycles
 SCF Done:  E(RHF) =  -492.843563813     A.U. after   11 cycles
 SCF Done:  E(RHF) =  -492.843564522     A.U. after    9 cycles
 SCF Done:  E(RHF) =  -492.843564571     A.U. after    8 cycles
 Optimization completed.
    -- Stationary point found.

                         Standard orientation:
 ---------------------------------------------------------------------
 Center     Atomic      Atomic             Coordinates (Angstroms)
 Number     Number       Type             X           Y           Z
 ---------------------------------------------------------------------
      1          1           0       -3.971800   -1.425919    0.179811
      2          6           0       -2.914577   -1.608726    0.057441
      3          1           0       -2.751196   -2.219729   -0.823988
      4          1           0       -2.551087   -2.156100    0.921747
      5          6           0       -2.197164   -0.274622   -0.028670
      6          8           0       -2.720405    0.741510    0.326943
      7          7           0       -0.937084   -0.367225   -0.536069
      8          1           0       -0.637526   -1.286538   -0.772230
      9          6           0        0.111558    0.641764   -0.612603
     10          1           0        0.390578    0.733713   -1.659898
     11          6           0       -0.256511    2.032013   -0.100106
     12          1           0       -0.504502    2.006884    0.948882
     13          1           0        0.606073    2.677283   -0.240675
     14          1           0       -1.091879    2.442081   -0.646351
     15          6           0        1.316489    0.111875    0.177483
     16          8           0        1.311817    0.052586    1.374679
     17          7           0        2.350568   -0.333605   -0.572452
     18          1           0        2.361164   -0.123298   -1.543242
     19          6           0        3.580452   -0.792346    0.039839
     20          1           0        3.351565   -1.484945    0.836026
     21          1           0        4.175603   -1.298076   -0.709007
     22          1           0        4.155840    0.027933    0.455290
 ---------------------------------------------------------------------

 The electronic state is 1-A.
 Alpha  occ. eigenvalues --  -20.52694 -20.51782 -15.59613 -15.58816 -11.34792
 Alpha  occ. eigenvalues --  -11.34705 -11.28671 -11.26429 -11.22918 -11.21213
 Alpha  occ. eigenvalues --   -1.39785  -1.38614  -1.24435  -1.23445  -1.05620
 Alpha  occ. eigenvalues --   -0.98841  -0.96507  -0.88201  -0.80003  -0.77098
 Alpha  occ. eigenvalues --   -0.72717  -0.69497  -0.66239  -0.64125  -0.62851
 Alpha  occ. eigenvalues --   -0.61904  -0.60079  -0.58663  -0.56439  -0.56049
 Alpha  occ. eigenvalues --   -0.54673  -0.53299  -0.52530  -0.51374  -0.50798
 Alpha  occ. eigenvalues --   -0.43683  -0.40729  -0.39711  -0.38091
 Alpha virt. eigenvalues --    0.18546   0.20217   0.21240   0.23446   0.25990
 Alpha virt. eigenvalues --    0.28099   0.28992   0.30704   0.31231   0.31745
 Alpha virt. eigenvalues --    0.32502   0.33815   0.33979   0.35512   0.37217

 Mulliken atomic charges:
              1
     1  H    0.214979
     2  C   -0.591597
     3  H    0.171724
     4  H    0.202066
     5  C    0.761637
     6  O   -0.596264
     7  N   -0.815710
     8  H    0.381847
     9  C   -0.005122
    10  H    0.169204
    11  C   -0.480080
    12  H    0.221486
    13  H    0.151343
    14  H    0.200743
    15  C    0.746234
    16  O   -0.603052
    17  N   -0.794391
    18  H    0.384125
    19  C   -0.276231
    20  H    0.206942
    21  H    0.169076
    22  H    0.181041
 Sum of Mulliken atomic charges =   0.00000

 Dipole moment (field-independent basis, Debye):
    X=              3.1820    Y=             -2.7446    Z=             -4.4904  Tot=              6.1500
 Quadrupole moment (field-independent basis, Debye-Ang):
   XX=            -59.3401   YY=            -57.4232   ZZ=            -62.5581
   XY=              6.3252   XZ=             -3.9761   YZ=             -0.8567

 Normal termination of Gaussian 09 at Thu Feb  9 23:31:13 2017.
