 Gaussian 09, Revision A.02,
 Gaussian 09:  EM64L-G09RevA.02 11-Jun-2009

 -------------------------------------------
 # HF/6-31G* Opt=(ModRedundant) geom=nocrowd
 -------------------------------------------

 ------------------
 Phi Psi fixed scan
 ------------------
 Symbolic Z-matrix:
 Charge =  0 Multiplicity = 1

 SCF Done:  E(RHF) =  -492.820425503     A.U. after   15 cycles
 SCF Done:  E(RHF) =  -492.840345318     A.U. after   15 cycles
 SCF Done:  E(RHF) =  -492.845283168     A.U. after   13 cycles
 SCF Done:  E(RHF) =  -492.846561598     A.U. after   13 cycles
 SCF Done:  E(RHF) =  -492.847032703     A.U. after   13 cycles
 SCF Done:  E(RHF) =  -492.847080706     A.U. after   13 cycles
 SCF Done:  E(RHF) =  -492.847391885     A.U. after   12 cycles
 SCF Done:  E(RHF) =  -492.847470851     A.U. after   12 cycles
 SCF Done:  E(RHF) =  -492.847539250     A.U. after   12 cycles
 SCF Done:  E(RHF) =  -492.847562712     A.U. after   11 cycles
 SCF Done:  E(RHF) =  -492.847755160     A.U. after   11 cycles
 SCF Done:  E(RHF) =  -492.847783949     A.U. after   11 cycles
 SCF Done:  E(RHF) =  -492.847822805     A.U. after   11 cycles
 SCF Done:  E(RHF) =  -492.847850783     A.U. after   11 cycles
 SCF Done:  E(RHF) =  -492.847854315     A.U. after   10 cycles
 SCF Done:  E(RHF) =  -492.847840911     A.U. after   11 cycles
 SCF Done:  E(RHF) =  -492.847859082     A.U. after   10 cycles
 SCF Done:  E(RHF) =  -492.847860303     A.U. after   10 cycles
 SCF Done:  E(RHF) =  -492.847860485     A.U. after    9 cycles
 SCF Done:  E(RHF) =  -492.847860508     A.U. after    8 cycles
 Optimization completed.
    -- Stationary point found.

                         Standard orientation:
 ---------------------------------------------------------------------
 Center     Atomic      Atomic             Coordinates (Angstroms)
 Number     Number       Type             X           Y           Z
 ---------------------------------------------------------------------
      1          1           0        4.102169   -1.053321   -0.373729
      2          6           0        3.111243   -1.313283   -0.032477
      3          1           0        3.172280   -1.774554    0.947365
      4          1           0        2.675276   -2.034331   -0.717216
      5          6           0        2.258643   -0.059756   -0.002826
      6          8           0        2.635839    0.968928   -0.488342
      7          7           0        1.070533   -0.231090    0.644066
      8          1           0        0.848395   -1.184665    0.826905
      9          6           0       -0.119188    0.597668    0.586837
     10          1           0       -0.378056    0.885224    1.603517
     11          6           0        0.005687    1.882278   -0.243788
     12          1           0        0.210761    1.664875   -1.282666
     13          1           0       -0.925314    2.435789   -0.183605
     14          1           0        0.801368    2.506235    0.129626
     15          6           0       -1.273695   -0.271115    0.061475
     16          8           0       -1.087562   -1.348722   -0.437566
     17          7           0       -2.509128    0.236411    0.238689
     18          1           0       -2.614085    1.144857    0.624958
     19          6           0       -3.687118   -0.453436   -0.245366
     20          1           0       -3.714614   -1.463812    0.138399
     21          1           0       -4.563569    0.078556    0.099073
     22          1           0       -3.704090   -0.497880   -1.327780
 ---------------------------------------------------------------------

 The electronic state is 1-A.
 Alpha  occ. eigenvalues --  -20.53393 -20.51693 -15.59461 -15.57722 -11.35206
 Alpha  occ. eigenvalues --  -11.34394 -11.28721 -11.26528 -11.22414 -11.22354
 Alpha  occ. eigenvalues --   -1.40349  -1.38396  -1.24233  -1.23301  -1.05784
 Alpha  occ. eigenvalues --   -0.98733  -0.96102  -0.88953  -0.80458  -0.75926
 Alpha  occ. eigenvalues --   -0.73159  -0.68978  -0.66171  -0.64036  -0.63010
 Alpha  occ. eigenvalues --   -0.61993  -0.59751  -0.58545  -0.56567  -0.56277
 Alpha  occ. eigenvalues --   -0.55449  -0.54254  -0.52896  -0.51993  -0.50295
 Alpha  occ. eigenvalues --   -0.42982  -0.40790  -0.39920  -0.38477
 Alpha virt. eigenvalues --    0.19033   0.20236   0.21498   0.24277   0.25810
 Alpha virt. eigenvalues --    0.28344   0.29247   0.29788   0.31564   0.32087
 Alpha virt. eigenvalues --    0.32920   0.33130   0.34048   0.34762   0.37322

 Mulliken atomic charges:
              1
     1  H    0.211543
     2  C   -0.595097
     3  H    0.182606
     4  H    0.201027
     5  C    0.746286
     6  O   -0.602987
     7  N   -0.800954
     8  H    0.396842
     9  C   -0.017580
    10  H    0.191085
    11  C   -0.481970
    12  H    0.199426
    13  H    0.142043
    14  H    0.220924
    15  C    0.747436
    16  O   -0.618085
    17  N   -0.797265
    18  H    0.389814
    19  C   -0.268372
    20  H    0.197671
    21  H    0.169243
    22  H    0.186361
 Sum of Mulliken atomic charges =   0.00000

 Dipole moment (field-independent basis, Debye):
    X=             -3.5377    Y=              0.2641    Z=              2.2709  Tot=              4.2121
 Quadrupole moment (field-independent basis, Debye-Ang):
   XX=            -55.8113   YY=            -61.9553   ZZ=            -60.9338
   XY=            -12.1767   XZ=              0.9360   YZ=              0.1460

 Normal termination of Gaussian 09 at Thu Feb  9 23:58:35 2017.
