 Gaussian 09, Revision A.02,
 Gaussian 09:  EM64L-G09RevA.02 11-Jun-2009

 -------------------------------------------
 # HF/6-31G* Opt=(ModRedundant) geom=nocrowd
 -------------------------------------------

 ------------------
 Phi Psi fixed scan
 ------------------
 Symbolic Z-matrix:
 Charge =  0 Multiplicity = 1

 SCF Done:  E(RHF) =  -492.813193033     A.U. after   15 cycles
 SCF Done:  E(RHF) =  -492.839768206     A.U. after   15 cycles
 SCF Done:  E(RHF) =  -492.845989972     A.U. after   14 cycles
 SCF Done:  E(RHF) =  -492.847365137     A.U. after   13 cycles
 SCF Done:  E(RHF) =  -492.847469558     A.U. after   11 cycles
 SCF Done:  E(RHF) =  -492.847482002     A.U. after   12 cycles
 SCF Done:  E(RHF) =  -492.847533862     A.U. after   11 cycles
 SCF Done:  E(RHF) =  -492.847534137     A.U. after   10 cycles
 SCF Done:  E(RHF) =  -492.847542919     A.U. after    9 cycles
 SCF Done:  E(RHF) =  -492.847545998     A.U. after    9 cycles
 SCF Done:  E(RHF) =  -492.847930183     A.U. after    8 cycles
 SCF Done:  E(RHF) =  -492.847930266     A.U. after    8 cycles
 SCF Done:  E(RHF) =  -492.847930478     A.U. after    9 cycles
 SCF Done:  E(RHF) =  -492.847931095     A.U. after   11 cycles
 SCF Done:  E(RHF) =  -492.847932063     A.U. after   10 cycles
 SCF Done:  E(RHF) =  -492.847933234     A.U. after   11 cycles
 SCF Done:  E(RHF) =  -492.847933338     A.U. after   11 cycles
 SCF Done:  E(RHF) =  -492.847932993     A.U. after   11 cycles
 SCF Done:  E(RHF) =  -492.847933668     A.U. after   10 cycles
 SCF Done:  E(RHF) =  -492.847933767     A.U. after    9 cycles
 Optimization completed on the basis of negligible forces.
    -- Stationary point found.

                         Standard orientation:
 ---------------------------------------------------------------------
 Center     Atomic      Atomic             Coordinates (Angstroms)
 Number     Number       Type             X           Y           Z
 ---------------------------------------------------------------------
      1          1           0       -3.751522   -1.058111    1.223626
      2          6           0       -3.087551   -1.249449    0.393724
      3          1           0       -3.674433   -1.321657   -0.516725
      4          1           0       -2.580729   -2.196600    0.543272
      5          6           0       -2.109081   -0.095741    0.277851
      6          8           0       -2.295697    0.944567    0.847233
      7          7           0       -1.056543   -0.356803   -0.535177
      8          1           0       -0.973872   -1.285190   -0.885241
      9          6           0        0.078140    0.485258   -0.897242
     10          1           0        0.150463    0.456702   -1.979429
     11          6           0       -0.029602    1.951199   -0.488061
     12          1           0       -0.091513    2.091729    0.580871
     13          1           0        0.835228    2.480227   -0.876637
     14          1           0       -0.917584    2.394059   -0.915333
     15          6           0        1.329767   -0.271225   -0.428238
     16          8           0        1.538243   -1.372109   -0.871985
     17          7           0        2.137908    0.312783    0.470455
     18          1           0        1.870262    1.176190    0.878708
     19          6           0        3.292555   -0.379498    1.004693
     20          1           0        3.893319   -0.774248    0.198006
     21          1           0        3.884089    0.323635    1.575398
     22          1           0        3.001003   -1.201531    1.648195
 ---------------------------------------------------------------------

 The electronic state is 1-A.
 Alpha  occ. eigenvalues --  -20.52473 -20.51922 -15.59316 -15.58567 -11.34950
 Alpha  occ. eigenvalues --  -11.34747 -11.28640 -11.26208 -11.22957 -11.22574
 Alpha  occ. eigenvalues --   -1.39659  -1.38646  -1.24077  -1.23603  -1.05951
 Alpha  occ. eigenvalues --   -0.99099  -0.95910  -0.89715  -0.80365  -0.76723
 Alpha  occ. eigenvalues --   -0.72655  -0.69733  -0.65813  -0.64755  -0.62377
 Alpha  occ. eigenvalues --   -0.61915  -0.59505  -0.58836  -0.56600  -0.56180
 Alpha  occ. eigenvalues --   -0.55588  -0.54628  -0.53101  -0.51842  -0.50917
 Alpha  occ. eigenvalues --   -0.43231  -0.41143  -0.39512  -0.38025
 Alpha virt. eigenvalues --    0.19108   0.21185   0.21835   0.23556   0.25640
 Alpha virt. eigenvalues --    0.27166   0.29439   0.30405   0.30997   0.31628
 Alpha virt. eigenvalues --    0.32871   0.33355   0.34427   0.34889   0.37279

 Mulliken atomic charges:
              1
     1  H    0.213287
     2  C   -0.587268
     3  H    0.195871
     4  H    0.181735
     5  C    0.748529
     6  O   -0.611165
     7  N   -0.816985
     8  H    0.403126
     9  C   -0.006482
    10  H    0.207004
    11  C   -0.509325
    12  H    0.196216
    13  H    0.162560
    14  H    0.206964
    15  C    0.767579
    16  O   -0.635019
    17  N   -0.802421
    18  H    0.402184
    19  C   -0.271685
    20  H    0.201820
    21  H    0.169928
    22  H    0.183544
 Sum of Mulliken atomic charges =   0.00000

 Dipole moment (field-independent basis, Debye):
    X=              1.2454    Y=              0.3827    Z=              0.1162  Tot=              1.3081
 Quadrupole moment (field-independent basis, Debye-Ang):
   XX=            -58.3591   YY=            -62.6317   ZZ=            -60.4483
   XY=             12.4044   XZ=              8.9339   YZ=             -4.1129

 Normal termination of Gaussian 09 at Fri Feb 10 00:24:38 2017.
