 Gaussian 09, Revision A.02,
 Gaussian 09:  EM64L-G09RevA.02 11-Jun-2009

 -------------------------------------------
 # HF/6-31G* Opt=(ModRedundant) geom=nocrowd
 -------------------------------------------

 ------------------
 Phi Psi fixed scan
 ------------------
 Symbolic Z-matrix:
 Charge =  0 Multiplicity = 1

 SCF Done:  E(RHF) =  -492.820202904     A.U. after   15 cycles
 SCF Done:  E(RHF) =  -492.842988050     A.U. after   16 cycles
 SCF Done:  E(RHF) =  -492.847542474     A.U. after   13 cycles
 SCF Done:  E(RHF) =  -492.848481088     A.U. after   13 cycles
 SCF Done:  E(RHF) =  -492.848827305     A.U. after   13 cycles
 SCF Done:  E(RHF) =  -492.849108882     A.U. after   13 cycles
 SCF Done:  E(RHF) =  -492.849152191     A.U. after   13 cycles
 SCF Done:  E(RHF) =  -492.849301067     A.U. after   12 cycles
 SCF Done:  E(RHF) =  -492.849329490     A.U. after   11 cycles
 SCF Done:  E(RHF) =  -492.849351051     A.U. after   10 cycles
 SCF Done:  E(RHF) =  -492.849491414     A.U. after   11 cycles
 SCF Done:  E(RHF) =  -492.849558724     A.U. after   11 cycles
 SCF Done:  E(RHF) =  -492.849581273     A.U. after   11 cycles
 SCF Done:  E(RHF) =  -492.849589753     A.U. after   11 cycles
 SCF Done:  E(RHF) =  -492.849607098     A.U. after   11 cycles
 SCF Done:  E(RHF) =  -492.849621767     A.U. after   11 cycles
 SCF Done:  E(RHF) =  -492.849628687     A.U. after   11 cycles
 SCF Done:  E(RHF) =  -492.849630600     A.U. after   11 cycles
 SCF Done:  E(RHF) =  -492.849631173     A.U. after   10 cycles
 SCF Done:  E(RHF) =  -492.849631217     A.U. after    7 cycles
 Optimization completed.
    -- Stationary point found.

                         Standard orientation:
 ---------------------------------------------------------------------
 Center     Atomic      Atomic             Coordinates (Angstroms)
 Number     Number       Type             X           Y           Z
 ---------------------------------------------------------------------
      1          1           0       -3.795113   -1.470381    0.192291
      2          6           0       -3.120415   -1.098942   -0.564610
      3          1           0       -3.681986   -0.485455   -1.262719
      4          1           0       -2.696307   -1.932069   -1.114810
      5          6           0       -2.053685   -0.253183    0.104311
      6          8           0       -2.190463    0.165110    1.218243
      7          7           0       -0.952029   -0.038448   -0.668914
      8          1           0       -0.990598   -0.434472   -1.581430
      9          6           0        0.123147    0.936409   -0.500494
     10          1           0        0.194758    1.487044   -1.430554
     11          6           0       -0.069611    1.961798    0.621064
     12          1           0       -0.070075    1.503643    1.598398
     13          1           0        0.748079    2.668701    0.556619
     14          1           0       -1.003880    2.492780    0.499187
     15          6           0        1.496527    0.277005   -0.347891
     16          8           0        2.482062    0.865240   -0.706622
     17          7           0        1.529094   -0.941312    0.220384
     18          1           0        0.681478   -1.318757    0.574022
     19          6           0        2.780534   -1.590390    0.545084
     20          1           0        3.449276   -1.538664   -0.301694
     21          1           0        3.268269   -1.124292    1.394445
     22          1           0        2.584870   -2.628748    0.778195
 ---------------------------------------------------------------------

 The electronic state is 1-A.
 Alpha  occ. eigenvalues --  -20.53245 -20.51914 -15.59801 -15.58403 -11.36075
 Alpha  occ. eigenvalues --  -11.34056 -11.28505 -11.25720 -11.24164 -11.21826
 Alpha  occ. eigenvalues --   -1.40154  -1.38823  -1.25256  -1.22640  -1.05984
 Alpha  occ. eigenvalues --   -0.99764  -0.95925  -0.88765  -0.79681  -0.77724
 Alpha  occ. eigenvalues --   -0.72824  -0.70075  -0.66635  -0.62935  -0.62651
 Alpha  occ. eigenvalues --   -0.62409  -0.60201  -0.59486  -0.57300  -0.55951
 Alpha  occ. eigenvalues --   -0.55213  -0.54267  -0.52767  -0.52278  -0.49882
 Alpha  occ. eigenvalues --   -0.43961  -0.42116  -0.39327  -0.38104
 Alpha virt. eigenvalues --    0.19083   0.20082   0.20357   0.24095   0.26164
 Alpha virt. eigenvalues --    0.27401   0.28696   0.29795   0.30883   0.32134
 Alpha virt. eigenvalues --    0.32838   0.33314   0.33990   0.35130   0.36954

 Mulliken atomic charges:
              1
     1  H    0.218253
     2  C   -0.591244
     3  H    0.198945
     4  H    0.177295
     5  C    0.743925
     6  O   -0.593145
     7  N   -0.840845
     8  H    0.385909
     9  C   -0.023615
    10  H    0.212461
    11  C   -0.488750
    12  H    0.200579
    13  H    0.192510
    14  H    0.186637
    15  C    0.751128
    16  O   -0.622420
    17  N   -0.786385
    18  H    0.401423
    19  C   -0.271826
    20  H    0.202264
    21  H    0.179559
    22  H    0.167343
 Sum of Mulliken atomic charges =   0.00000

 Dipole moment (field-independent basis, Debye):
    X=             -2.0334    Y=             -3.0477    Z=             -1.9161  Tot=              4.1345
 Quadrupole moment (field-independent basis, Debye-Ang):
   XX=            -67.8047   YY=            -56.8712   ZZ=            -61.4934
   XY=             -3.7690   XZ=             12.0546   YZ=              0.0249

 Normal termination of Gaussian 09 at Fri Feb 10 00:44:04 2017.
