 Gaussian 09, Revision A.02,
 Gaussian 09:  EM64L-G09RevA.02 11-Jun-2009

 -------------------------------------------
 # HF/6-31G* Opt=(ModRedundant) geom=nocrowd
 -------------------------------------------

 ------------------
 Phi Psi fixed scan
 ------------------
 Symbolic Z-matrix:
 Charge =  0 Multiplicity = 1

 SCF Done:  E(RHF) =  -492.819011578     A.U. after   15 cycles
 SCF Done:  E(RHF) =  -492.841986307     A.U. after   14 cycles
 SCF Done:  E(RHF) =  -492.846704357     A.U. after   13 cycles
 SCF Done:  E(RHF) =  -492.848077456     A.U. after   13 cycles
 SCF Done:  E(RHF) =  -492.848526755     A.U. after   13 cycles
 SCF Done:  E(RHF) =  -492.848691916     A.U. after   13 cycles
 SCF Done:  E(RHF) =  -492.848960225     A.U. after   12 cycles
 SCF Done:  E(RHF) =  -492.848940800     A.U. after   12 cycles
 SCF Done:  E(RHF) =  -492.849048727     A.U. after   11 cycles
 SCF Done:  E(RHF) =  -492.849071734     A.U. after   10 cycles
 SCF Done:  E(RHF) =  -492.849268283     A.U. after   12 cycles
 SCF Done:  E(RHF) =  -492.849318944     A.U. after   12 cycles
 SCF Done:  E(RHF) =  -492.849359786     A.U. after   12 cycles
 SCF Done:  E(RHF) =  -492.849377871     A.U. after   11 cycles
 SCF Done:  E(RHF) =  -492.849410758     A.U. after   12 cycles
 SCF Done:  E(RHF) =  -492.849422007     A.U. after   11 cycles
 SCF Done:  E(RHF) =  -492.849429736     A.U. after   11 cycles
 SCF Done:  E(RHF) =  -492.849433322     A.U. after   11 cycles
 SCF Done:  E(RHF) =  -492.849433954     A.U. after    8 cycles
 SCF Done:  E(RHF) =  -492.849434118     A.U. after    8 cycles
 Optimization completed.
    -- Stationary point found.

                         Standard orientation:
 ---------------------------------------------------------------------
 Center     Atomic      Atomic             Coordinates (Angstroms)
 Number     Number       Type             X           Y           Z
 ---------------------------------------------------------------------
      1          1           0       -3.792041   -1.472256    0.299579
      2          6           0       -3.102022   -1.173789   -0.475567
      3          1           0       -3.650940   -0.638301   -1.244432
      4          1           0       -2.661037   -2.054945   -0.929349
      5          6           0       -2.055863   -0.256339    0.128681
      6          8           0       -2.221774    0.272104    1.189433
      7          7           0       -0.935649   -0.114868   -0.638599
      8          1           0       -0.966992   -0.582411   -1.517092
      9          6           0        0.121210    0.891435   -0.550641
     10          1           0        0.210134    1.333604   -1.536561
     11          6           0       -0.126433    2.037110    0.435193
     12          1           0       -0.151220    1.694919    1.458577
     13          1           0        0.680041    2.747719    0.314212
     14          1           0       -1.066530    2.528022    0.222590
     15          6           0        1.504733    0.286821   -0.288824
     16          8           0        2.485022    0.957413   -0.477148
     17          7           0        1.553885   -0.990297    0.129786
     18          1           0        0.701246   -1.428470    0.387591
     19          6           0        2.805587   -1.605276    0.515301
     20          1           0        3.554307   -1.406540   -0.237151
     21          1           0        3.166906   -1.226557    1.465471
     22          1           0        2.659218   -2.674536    0.595112
 ---------------------------------------------------------------------

 The electronic state is 1-A.
 Alpha  occ. eigenvalues --  -20.53303 -20.51826 -15.59863 -15.58444 -11.36102
 Alpha  occ. eigenvalues --  -11.34102 -11.28575 -11.25715 -11.24221 -11.21511
 Alpha  occ. eigenvalues --   -1.40213  -1.38815  -1.25338  -1.22639  -1.05886
 Alpha  occ. eigenvalues --   -0.99720  -0.96008  -0.88565  -0.79786  -0.77556
 Alpha  occ. eigenvalues --   -0.72854  -0.70191  -0.66669  -0.62904  -0.62773
 Alpha  occ. eigenvalues --   -0.62327  -0.60368  -0.59493  -0.57315  -0.55576
 Alpha  occ. eigenvalues --   -0.55271  -0.54157  -0.52525  -0.52263  -0.49715
 Alpha  occ. eigenvalues --   -0.44062  -0.42191  -0.39221  -0.38294
 Alpha virt. eigenvalues --    0.19160   0.19648   0.20390   0.24205   0.26096
 Alpha virt. eigenvalues --    0.27729   0.28775   0.29865   0.30999   0.31927
 Alpha virt. eigenvalues --    0.33004   0.33388   0.34171   0.35217   0.36520

 Mulliken atomic charges:
              1
     1  H    0.219063
     2  C   -0.591816
     3  H    0.198675
     4  H    0.175967
     5  C    0.744275
     6  O   -0.586952
     7  N   -0.848981
     8  H    0.384783
     9  C   -0.016399
    10  H    0.209846
    11  C   -0.488603
    12  H    0.201936
    13  H    0.197918
    14  H    0.182352
    15  C    0.755243
    16  O   -0.623827
    17  N   -0.790537
    18  H    0.400077
    19  C   -0.273460
    20  H    0.204293
    21  H    0.179413
    22  H    0.166735
 Sum of Mulliken atomic charges =   0.00000

 Dipole moment (field-independent basis, Debye):
    X=             -1.9821    Y=             -3.5975    Z=             -2.3417  Tot=              4.7280
 Quadrupole moment (field-independent basis, Debye-Ang):
   XX=            -68.0289   YY=            -57.1560   ZZ=            -60.9624
   XY=             -3.5516   XZ=             10.4642   YZ=             -0.5732

 Normal termination of Gaussian 09 at Fri Feb 10 00:46:53 2017.
