 Gaussian 09, Revision A.02,
 Gaussian 09:  EM64L-G09RevA.02 11-Jun-2009

 -------------------------------------------
 # HF/6-31G* Opt=(ModRedundant) geom=nocrowd
 -------------------------------------------

 ------------------
 Phi Psi fixed scan
 ------------------
 Symbolic Z-matrix:
 Charge =  0 Multiplicity = 1

 SCF Done:  E(RHF) =  -492.818965989     A.U. after   15 cycles
 SCF Done:  E(RHF) =  -492.841877345     A.U. after   17 cycles
 SCF Done:  E(RHF) =  -492.846946705     A.U. after   16 cycles
 SCF Done:  E(RHF) =  -492.847740414     A.U. after   13 cycles
 SCF Done:  E(RHF) =  -492.848021298     A.U. after   13 cycles
 SCF Done:  E(RHF) =  -492.848249084     A.U. after   13 cycles
 SCF Done:  E(RHF) =  -492.848360549     A.U. after   13 cycles
 SCF Done:  E(RHF) =  -492.848504220     A.U. after   12 cycles
 SCF Done:  E(RHF) =  -492.848542849     A.U. after   11 cycles
 SCF Done:  E(RHF) =  -492.848557461     A.U. after   10 cycles
 SCF Done:  E(RHF) =  -492.848695294     A.U. after   11 cycles
 SCF Done:  E(RHF) =  -492.848721129     A.U. after   11 cycles
 SCF Done:  E(RHF) =  -492.848775655     A.U. after   14 cycles
 SCF Done:  E(RHF) =  -492.848796481     A.U. after   12 cycles
 SCF Done:  E(RHF) =  -492.848830449     A.U. after   11 cycles
 SCF Done:  E(RHF) =  -492.848854372     A.U. after   11 cycles
 SCF Done:  E(RHF) =  -492.848861995     A.U. after   11 cycles
 SCF Done:  E(RHF) =  -492.848864200     A.U. after   11 cycles
 SCF Done:  E(RHF) =  -492.848865105     A.U. after   10 cycles
 SCF Done:  E(RHF) =  -492.848865436     A.U. after   10 cycles
 Optimization completed.
    -- Stationary point found.

                         Standard orientation:
 ---------------------------------------------------------------------
 Center     Atomic      Atomic             Coordinates (Angstroms)
 Number     Number       Type             X           Y           Z
 ---------------------------------------------------------------------
      1          1           0       -3.772181   -1.515296    0.007785
      2          6           0       -3.136357   -0.996891   -0.694441
      3          1           0       -3.730396   -0.259136   -1.225374
      4          1           0       -2.745891   -1.701188   -1.420963
      5          6           0       -2.031303   -0.296349    0.071091
      6          8           0       -2.108609   -0.100151    1.251911
      7          7           0       -0.962722    0.060199   -0.690859
      8          1           0       -1.034280   -0.156597   -1.659813
      9          6           0        0.109055    1.008993   -0.385395
     10          1           0        0.159496    1.692946   -1.222487
     11          6           0       -0.064425    1.845563    0.883274
     12          1           0       -0.051203    1.252671    1.783562
     13          1           0        0.751564    2.559642    0.916846
     14          1           0       -0.997895    2.391991    0.855223
     15          6           0        1.463870    0.295023   -0.407048
     16          8           0        2.342216    0.656725   -1.143109
     17          7           0        1.603503   -0.717358    0.470955
     18          1           0        0.799377   -1.026045    0.967904
     19          6           0        2.809428   -1.513363    0.532034
     20          1           0        3.674761   -0.866691    0.534830
     21          1           0        2.798896   -2.091973    1.446168
     22          1           0        2.891817   -2.190651   -0.311867
 ---------------------------------------------------------------------

 The electronic state is 1-A.
 Alpha  occ. eigenvalues --  -20.53205 -20.52262 -15.59717 -15.58136 -11.36014
 Alpha  occ. eigenvalues --  -11.34011 -11.28428 -11.25596 -11.24070 -11.22204
 Alpha  occ. eigenvalues --   -1.40087  -1.38931  -1.25022  -1.22598  -1.06071
 Alpha  occ. eigenvalues --   -0.99830  -0.95619  -0.89131  -0.79564  -0.77637
 Alpha  occ. eigenvalues --   -0.72505  -0.69992  -0.66478  -0.63499  -0.62596
 Alpha  occ. eigenvalues --   -0.62241  -0.59902  -0.59100  -0.57353  -0.56096
 Alpha  occ. eigenvalues --   -0.55206  -0.54473  -0.52921  -0.52152  -0.50770
 Alpha  occ. eigenvalues --   -0.43877  -0.42109  -0.38918  -0.38265
 Alpha virt. eigenvalues --    0.18650   0.20460   0.20851   0.24068   0.26220
 Alpha virt. eigenvalues --    0.27186   0.28536   0.29873   0.31086   0.32020
 Alpha virt. eigenvalues --    0.32504   0.33493   0.33891   0.34473   0.37418

 Mulliken atomic charges:
              1
     1  H    0.217415
     2  C   -0.589840
     3  H    0.198549
     4  H    0.179960
     5  C    0.747526
     6  O   -0.604961
     7  N   -0.825342
     8  H    0.388629
     9  C   -0.049320
    10  H    0.216722
    11  C   -0.483448
    12  H    0.203034
    13  H    0.178221
    14  H    0.185255
    15  C    0.758808
    16  O   -0.613829
    17  N   -0.783998
    18  H    0.402148
    19  C   -0.271440
    20  H    0.202800
    21  H    0.170327
    22  H    0.172783
 Sum of Mulliken atomic charges =   0.00000

 Dipole moment (field-independent basis, Debye):
    X=             -1.9359    Y=             -1.8185    Z=             -1.1682  Tot=              2.9016
 Quadrupole moment (field-independent basis, Debye-Ang):
   XX=            -65.4360   YY=            -56.5142   ZZ=            -63.2954
   XY=             -3.7579   XZ=             14.3931   YZ=              0.9311

 Normal termination of Gaussian 09 at Fri Feb 10 00:37:01 2017.
