 Gaussian 09, Revision A.02,
 Gaussian 09:  EM64L-G09RevA.02 11-Jun-2009

 -------------------------------------------
 # HF/6-31G* Opt=(ModRedundant) geom=nocrowd
 -------------------------------------------

 ------------------
 Phi Psi fixed scan
 ------------------
 Symbolic Z-matrix:
 Charge =  0 Multiplicity = 1

 SCF Done:  E(RHF) =  -492.812922409     A.U. after   15 cycles
 SCF Done:  E(RHF) =  -492.839175732     A.U. after   16 cycles
 SCF Done:  E(RHF) =  -492.845749645     A.U. after   14 cycles
 SCF Done:  E(RHF) =  -492.846786994     A.U. after   13 cycles
 SCF Done:  E(RHF) =  -492.846929503     A.U. after   12 cycles
 SCF Done:  E(RHF) =  -492.846967883     A.U. after   12 cycles
 SCF Done:  E(RHF) =  -492.847018393     A.U. after   11 cycles
 SCF Done:  E(RHF) =  -492.847015922     A.U. after   11 cycles
 SCF Done:  E(RHF) =  -492.847039687     A.U. after   11 cycles
 SCF Done:  E(RHF) =  -492.847047287     A.U. after   11 cycles
 SCF Done:  E(RHF) =  -492.847453491     A.U. after   12 cycles
 SCF Done:  E(RHF) =  -492.847462542     A.U. after   11 cycles
 SCF Done:  E(RHF) =  -492.847464002     A.U. after    9 cycles
 SCF Done:  E(RHF) =  -492.847464549     A.U. after    8 cycles
 SCF Done:  E(RHF) =  -492.847465647     A.U. after   10 cycles
 SCF Done:  E(RHF) =  -492.847467396     A.U. after   10 cycles
 SCF Done:  E(RHF) =  -492.847468760     A.U. after   10 cycles
 SCF Done:  E(RHF) =  -492.847469093     A.U. after    8 cycles
 SCF Done:  E(RHF) =  -492.847469204     A.U. after    8 cycles
 SCF Done:  E(RHF) =  -492.847469211     A.U. after    7 cycles
 Optimization completed.
    -- Stationary point found.

                         Standard orientation:
 ---------------------------------------------------------------------
 Center     Atomic      Atomic             Coordinates (Angstroms)
 Number     Number       Type             X           Y           Z
 ---------------------------------------------------------------------
      1          1           0       -3.659842   -1.207504    1.209381
      2          6           0       -3.065185   -1.287361    0.311324
      3          1           0       -3.722261   -1.208002   -0.549311
      4          1           0       -2.581780   -2.257436    0.278974
      5          6           0       -2.066827   -0.145682    0.286398
      6          8           0       -2.227418    0.841048    0.950877
      7          7           0       -1.024020   -0.348261   -0.555750
      8          1           0       -0.981387   -1.228515   -1.018663
      9          6           0        0.078754    0.541322   -0.911706
     10          1           0        0.128347    0.547961   -1.993983
     11          6           0       -0.058423    1.989763   -0.451969
     12          1           0       -0.122588    2.099412    0.619582
     13          1           0        0.796836    2.546107   -0.822031
     14          1           0       -0.956001    2.427889   -0.865851
     15          6           0        1.360704   -0.190487   -0.493466
     16          8           0        1.730048   -1.136186   -1.141125
     17          7           0        1.999470    0.229557    0.611736
     18          1           0        1.586814    0.939768    1.168508
     19          6           0        3.141768   -0.486894    1.139299
     20          1           0        3.857183   -0.669547    0.350744
     21          1           0        3.607038    0.118378    1.905685
     22          1           0        2.853711   -1.440454    1.567762
 ---------------------------------------------------------------------

 The electronic state is 1-A.
 Alpha  occ. eigenvalues --  -20.52402 -20.52199 -15.59010 -15.59003 -11.35250
 Alpha  occ. eigenvalues --  -11.34533 -11.28567 -11.26022 -11.23256 -11.22538
 Alpha  occ. eigenvalues --   -1.39571  -1.38877  -1.24267  -1.23436  -1.05995
 Alpha  occ. eigenvalues --   -0.99291  -0.95812  -0.89697  -0.80108  -0.77103
 Alpha  occ. eigenvalues --   -0.72519  -0.69902  -0.65976  -0.64529  -0.62292
 Alpha  occ. eigenvalues --   -0.62044  -0.59548  -0.58938  -0.56817  -0.56027
 Alpha  occ. eigenvalues --   -0.55563  -0.54581  -0.52974  -0.51912  -0.51199
 Alpha  occ. eigenvalues --   -0.43349  -0.41350  -0.39284  -0.38183
 Alpha virt. eigenvalues --    0.18968   0.21063   0.21954   0.23065   0.25732
 Alpha virt. eigenvalues --    0.27017   0.29367   0.30432   0.30577   0.31686
 Alpha virt. eigenvalues --    0.32709   0.33311   0.34587   0.35365   0.37492

 Mulliken atomic charges:
              1
     1  H    0.213797
     2  C   -0.586860
     3  H    0.198103
     4  H    0.179157
     5  C    0.749897
     6  O   -0.610262
     7  N   -0.821485
     8  H    0.399458
     9  C   -0.012059
    10  H    0.209619
    11  C   -0.499270
    12  H    0.194593
    13  H    0.167828
    14  H    0.199125
    15  C    0.762711
    16  O   -0.628833
    17  N   -0.796404
    18  H    0.400183
    19  C   -0.272121
    20  H    0.202835
    21  H    0.170001
    22  H    0.179985
 Sum of Mulliken atomic charges =   0.00000

 Dipole moment (field-independent basis, Debye):
    X=              0.3720    Y=             -0.0199    Z=              0.4215  Tot=              0.5625
 Quadrupole moment (field-independent basis, Debye-Ang):
   XX=            -60.1924   YY=            -61.2129   ZZ=            -61.1663
   XY=             11.0170   XZ=             11.0359   YZ=             -4.4339

 Normal termination of Gaussian 09 at Fri Feb 10 00:28:09 2017.
