 Gaussian 09, Revision A.02,
 Gaussian 09:  EM64L-G09RevA.02 11-Jun-2009

 -------------------------------------------
 # HF/6-31G* Opt=(ModRedundant) geom=nocrowd
 -------------------------------------------

 ------------------
 Phi Psi fixed scan
 ------------------
 Symbolic Z-matrix:
 Charge =  0 Multiplicity = 1

 SCF Done:  E(RHF) =  -492.820083351     A.U. after   15 cycles
 SCF Done:  E(RHF) =  -492.842839376     A.U. after   16 cycles
 SCF Done:  E(RHF) =  -492.847451831     A.U. after   14 cycles
 SCF Done:  E(RHF) =  -492.848287589     A.U. after   13 cycles
 SCF Done:  E(RHF) =  -492.848604342     A.U. after   13 cycles
 SCF Done:  E(RHF) =  -492.848822682     A.U. after   13 cycles
 SCF Done:  E(RHF) =  -492.848924522     A.U. after   13 cycles
 SCF Done:  E(RHF) =  -492.849059572     A.U. after   12 cycles
 SCF Done:  E(RHF) =  -492.849090253     A.U. after   10 cycles
 SCF Done:  E(RHF) =  -492.849101011     A.U. after   10 cycles
 SCF Done:  E(RHF) =  -492.849222510     A.U. after   16 cycles
 SCF Done:  E(RHF) =  -492.849246832     A.U. after   11 cycles
 SCF Done:  E(RHF) =  -492.849271754     A.U. after   13 cycles
 SCF Done:  E(RHF) =  -492.849312146     A.U. after   12 cycles
 SCF Done:  E(RHF) =  -492.849319312     A.U. after   11 cycles
 SCF Done:  E(RHF) =  -492.849320898     A.U. after   10 cycles
 SCF Done:  E(RHF) =  -492.849321407     A.U. after    9 cycles
 SCF Done:  E(RHF) =  -492.849321802     A.U. after    8 cycles
 SCF Done:  E(RHF) =  -492.849321922     A.U. after    9 cycles
 SCF Done:  E(RHF) =  -492.849321939     A.U. after    8 cycles
 Optimization completed.
    -- Stationary point found.

                         Standard orientation:
 ---------------------------------------------------------------------
 Center     Atomic      Atomic             Coordinates (Angstroms)
 Number     Number       Type             X           Y           Z
 ---------------------------------------------------------------------
      1          1           0       -3.797008   -1.477347    0.082127
      2          6           0       -3.139858   -1.025876   -0.646174
      3          1           0       -3.714497   -0.333735   -1.254260
      4          1           0       -2.737532   -1.793231   -1.298716
      5          6           0       -2.047973   -0.268278    0.083960
      6          8           0       -2.149686    0.021500    1.242844
      7          7           0       -0.964554    0.025008   -0.685486
      8          1           0       -1.019910   -0.273746   -1.633421
      9          6           0        0.117088    0.975944   -0.436406
     10          1           0        0.176491    1.614884   -1.308288
     11          6           0       -0.048038    1.883028    0.785906
     12          1           0       -0.036735    1.333311    1.714182
     13          1           0        0.774201    2.589413    0.778813
     14          1           0       -0.978264    2.432444    0.732913
     15          6           0        1.479850    0.280275   -0.388532
     16          8           0        2.433677    0.771906   -0.930671
     17          7           0        1.543211   -0.858780    0.323944
     18          1           0        0.722862   -1.182107    0.781538
     19          6           0        2.795788   -1.548605    0.542128
     20          1           0        3.294300   -1.728110   -0.400530
     21          1           0        3.462023   -0.973739    1.175156
     22          1           0        2.590395   -2.497809    1.018596
 ---------------------------------------------------------------------

 The electronic state is 1-A.
 Alpha  occ. eigenvalues --  -20.53198 -20.52061 -15.59725 -15.58267 -11.36027
 Alpha  occ. eigenvalues --  -11.33985 -11.28452 -11.25695 -11.24096 -11.22094
 Alpha  occ. eigenvalues --   -1.40093  -1.38847  -1.25126  -1.22598  -1.06053
 Alpha  occ. eigenvalues --   -0.99798  -0.95788  -0.88962  -0.79614  -0.77759
 Alpha  occ. eigenvalues --   -0.72691  -0.69995  -0.66547  -0.63169  -0.62491
 Alpha  occ. eigenvalues --   -0.62396  -0.60007  -0.59386  -0.57306  -0.56145
 Alpha  occ. eigenvalues --   -0.55192  -0.54413  -0.52924  -0.52227  -0.50207
 Alpha  occ. eigenvalues --   -0.43886  -0.42072  -0.39283  -0.37982
 Alpha virt. eigenvalues --    0.18858   0.20403   0.20632   0.23897   0.26233
 Alpha virt. eigenvalues --    0.27097   0.28505   0.29816   0.30887   0.32140
 Alpha virt. eigenvalues --    0.32748   0.33488   0.33829   0.34957   0.37282

 Mulliken atomic charges:
              1
     1  H    0.217628
     2  C   -0.590521
     3  H    0.198651
     4  H    0.178969
     5  C    0.745800
     6  O   -0.600820
     7  N   -0.830202
     8  H    0.387115
     9  C   -0.038218
    10  H    0.215177
    11  C   -0.487383
    12  H    0.200906
    13  H    0.185391
    14  H    0.187700
    15  C    0.753667
    16  O   -0.618260
    17  N   -0.785750
    18  H    0.403359
    19  C   -0.268220
    20  H    0.194766
    21  H    0.182428
    22  H    0.167819
 Sum of Mulliken atomic charges =   0.00000

 Dipole moment (field-independent basis, Debye):
    X=             -2.0208    Y=             -2.3967    Z=             -1.4922  Tot=              3.4720
 Quadrupole moment (field-independent basis, Debye-Ang):
   XX=            -66.9019   YY=            -56.7015   ZZ=            -62.1943
   XY=             -4.0138   XZ=             13.4855   YZ=              0.6050

 Normal termination of Gaussian 09 at Fri Feb 10 00:40:50 2017.
