 Gaussian 09, Revision A.02,
 Gaussian 09:  EM64L-G09RevA.02 11-Jun-2009

 -------------------------------------------
 # HF/6-31G* Opt=(ModRedundant) geom=nocrowd
 -------------------------------------------

 ------------------
 Phi Psi fixed scan
 ------------------
 Symbolic Z-matrix:
 Charge =  0 Multiplicity = 1

 SCF Done:  E(RHF) =  -492.813399518     A.U. after   15 cycles
 SCF Done:  E(RHF) =  -492.839924675     A.U. after   16 cycles
 SCF Done:  E(RHF) =  -492.845891931     A.U. after   14 cycles
 SCF Done:  E(RHF) =  -492.847695081     A.U. after   13 cycles
 SCF Done:  E(RHF) =  -492.847729251     A.U. after   11 cycles
 SCF Done:  E(RHF) =  -492.847914837     A.U. after   11 cycles
 SCF Done:  E(RHF) =  -492.847964078     A.U. after   11 cycles
 SCF Done:  E(RHF) =  -492.847973559     A.U. after   10 cycles
 SCF Done:  E(RHF) =  -492.847976667     A.U. after   10 cycles
 SCF Done:  E(RHF) =  -492.847981028     A.U. after   10 cycles
 SCF Done:  E(RHF) =  -492.848415048     A.U. after   10 cycles
 SCF Done:  E(RHF) =  -492.848416241     A.U. after   10 cycles
 SCF Done:  E(RHF) =  -492.848416512     A.U. after    9 cycles
 SCF Done:  E(RHF) =  -492.848416687     A.U. after    9 cycles
 SCF Done:  E(RHF) =  -492.848416859     A.U. after    9 cycles
 SCF Done:  E(RHF) =  -492.848416996     A.U. after    8 cycles
 SCF Done:  E(RHF) =  -492.848417158     A.U. after    8 cycles
 SCF Done:  E(RHF) =  -492.848417540     A.U. after   10 cycles
 SCF Done:  E(RHF) =  -492.848417685     A.U. after    9 cycles
 SCF Done:  E(RHF) =  -492.848417692     A.U. after    7 cycles
 Optimization completed.
    -- Stationary point found.

                         Standard orientation:
 ---------------------------------------------------------------------
 Center     Atomic      Atomic             Coordinates (Angstroms)
 Number     Number       Type             X           Y           Z
 ---------------------------------------------------------------------
      1          1           0       -4.025850   -0.904139    0.802116
      2          6           0       -3.093143   -1.252303    0.383699
      3          1           0       -3.279061   -1.746548   -0.563350
      4          1           0       -2.652681   -1.977595    1.061219
      5          6           0       -2.157313   -0.068376    0.227841
      6          8           0       -2.378007    0.980799    0.768164
      7          7           0       -1.082413   -0.329128   -0.556055
      8          1           0       -0.961004   -1.272019   -0.852889
      9          6           0        0.083307    0.495608   -0.841884
     10          1           0        0.196998    0.510060   -1.922530
     11          6           0       -0.007226    1.947997   -0.380805
     12          1           0       -0.062599    2.046036    0.693899
     13          1           0        0.861065    2.483750   -0.752692
     14          1           0       -0.889570    2.416755   -0.789303
     15          6           0        1.305504   -0.302548   -0.358995
     16          8           0        1.389987   -1.468635   -0.651825
     17          7           0        2.253044    0.333826    0.347855
     18          1           0        2.088728    1.259517    0.663243
     19          6           0        3.415528   -0.371513    0.847923
     20          1           0        3.889551   -0.918442    0.045733
     21          1           0        4.114689    0.352312    1.244491
     22          1           0        3.149549   -1.073081    1.630068
 ---------------------------------------------------------------------

 The electronic state is 1-A.
 Alpha  occ. eigenvalues --  -20.52701 -20.51715 -15.59497 -15.58188 -11.34976
 Alpha  occ. eigenvalues --  -11.34715 -11.28726 -11.26337 -11.22721 -11.22612
 Alpha  occ. eigenvalues --   -1.39875  -1.38458  -1.24141  -1.23509  -1.05920
 Alpha  occ. eigenvalues --   -0.98960  -0.95960  -0.89702  -0.80553  -0.76342
 Alpha  occ. eigenvalues --   -0.72823  -0.69537  -0.65770  -0.64911  -0.62486
 Alpha  occ. eigenvalues --   -0.61817  -0.59509  -0.58772  -0.56508  -0.56192
 Alpha  occ. eigenvalues --   -0.55711  -0.54654  -0.53156  -0.51833  -0.50604
 Alpha  occ. eigenvalues --   -0.43206  -0.40980  -0.39757  -0.37970
 Alpha virt. eigenvalues --    0.19112   0.21196   0.21787   0.24103   0.25653
 Alpha virt. eigenvalues --    0.27338   0.29286   0.30183   0.31605   0.31938
 Alpha virt. eigenvalues --    0.33223   0.33319   0.33763   0.34612   0.36808

 Mulliken atomic charges:
              1
     1  H    0.212564
     2  C   -0.588378
     3  H    0.182025
     4  H    0.196030
     5  C    0.749034
     6  O   -0.611808
     7  N   -0.814663
     8  H    0.407239
     9  C   -0.010318
    10  H    0.206702
    11  C   -0.513231
    12  H    0.196412
    13  H    0.155774
    14  H    0.214829
    15  C    0.774147
    16  O   -0.637141
    17  N   -0.806633
    18  H    0.402818
    19  C   -0.272015
    20  H    0.202120
    21  H    0.170066
    22  H    0.184425
 Sum of Mulliken atomic charges =   0.00000

 Dipole moment (field-independent basis, Debye):
    X=              1.9949    Y=              0.5231    Z=             -0.1402  Tot=              2.0671
 Quadrupole moment (field-independent basis, Debye-Ang):
   XX=            -57.4828   YY=            -63.1429   ZZ=            -60.2056
   XY=             12.7215   XZ=              7.3120   YZ=             -3.5490

 Normal termination of Gaussian 09 at Fri Feb 10 00:12:03 2017.
