 Gaussian 09, Revision A.02,
 Gaussian 09:  EM64L-G09RevA.02 11-Jun-2009

 -------------------------------------------
 # HF/6-31G* Opt=(ModRedundant) geom=nocrowd
 -------------------------------------------

 ------------------
 Phi Psi fixed scan
 ------------------
 Symbolic Z-matrix:
 Charge =  0 Multiplicity = 1

 SCF Done:  E(RHF) =  -492.813916273     A.U. after   15 cycles
 SCF Done:  E(RHF) =  -492.839138814     A.U. after   16 cycles
 SCF Done:  E(RHF) =  -492.845621452     A.U. after   14 cycles
 SCF Done:  E(RHF) =  -492.846516642     A.U. after   13 cycles
 SCF Done:  E(RHF) =  -492.846698134     A.U. after   13 cycles
 SCF Done:  E(RHF) =  -492.846834841     A.U. after   12 cycles
 SCF Done:  E(RHF) =  -492.846891926     A.U. after   12 cycles
 SCF Done:  E(RHF) =  -492.846939465     A.U. after   12 cycles
 SCF Done:  E(RHF) =  -492.846974567     A.U. after   10 cycles
 SCF Done:  E(RHF) =  -492.847006384     A.U. after   11 cycles
 SCF Done:  E(RHF) =  -492.847311786     A.U. after   13 cycles
 SCF Done:  E(RHF) =  -492.847359428     A.U. after   11 cycles
 SCF Done:  E(RHF) =  -492.847470292     A.U. after   11 cycles
 SCF Done:  E(RHF) =  -492.847491936     A.U. after   11 cycles
 SCF Done:  E(RHF) =  -492.847499043     A.U. after   11 cycles
 SCF Done:  E(RHF) =  -492.847501062     A.U. after   10 cycles
 SCF Done:  E(RHF) =  -492.847503993     A.U. after   10 cycles
 SCF Done:  E(RHF) =  -492.847507927     A.U. after   11 cycles
 SCF Done:  E(RHF) =  -492.847508798     A.U. after   10 cycles
 SCF Done:  E(RHF) =  -492.847508874     A.U. after    8 cycles
 Optimization completed.
    -- Stationary point found.

                         Standard orientation:
 ---------------------------------------------------------------------
 Center     Atomic      Atomic             Coordinates (Angstroms)
 Number     Number       Type             X           Y           Z
 ---------------------------------------------------------------------
      1          1           0        3.665139   -1.470449   -0.818877
      2          6           0        3.080550   -1.294200    0.071992
      3          1           0        3.739853   -0.930112    0.854070
      4          1           0        2.639061   -2.225663    0.408561
      5          6           0        2.035104   -0.239013   -0.232284
      6          8           0        2.149218    0.507666   -1.164965
      7          7           0        0.992374   -0.226455    0.635819
      8          1           0        1.008747   -0.905688    1.363216
      9          6           0       -0.085549    0.752571    0.776654
     10          1           0       -0.126426    1.005880    1.828297
     11          6           0        0.078369    2.056560    0.000024
     12          1           0        0.110896    1.927326   -1.069745
     13          1           0       -0.754859    2.703403    0.254393
     14          1           0        0.996062    2.550195    0.290435
     15          6           0       -1.398887    0.000130    0.534230
     16          8           0       -1.963376   -0.534248    1.451813
     17          7           0       -1.849160   -0.050376   -0.734855
     18          1           0       -1.250469    0.267097   -1.461645
     19          6           0       -2.986978   -0.868874   -1.096377
     20          1           0       -3.799007   -0.684773   -0.408756
     21          1           0       -3.303792   -0.602278   -2.095903
     22          1           0       -2.750104   -1.927517   -1.071017
 ---------------------------------------------------------------------

 The electronic state is 1-A.
 Alpha  occ. eigenvalues --  -20.52620 -20.52469 -15.59406 -15.58565 -11.35597
 Alpha  occ. eigenvalues --  -11.34323 -11.28498 -11.25758 -11.23616 -11.22452
 Alpha  occ. eigenvalues --   -1.39688  -1.39084  -1.24585  -1.23073  -1.06041
 Alpha  occ. eigenvalues --   -0.99541  -0.95629  -0.89568  -0.79784  -0.77379
 Alpha  occ. eigenvalues --   -0.72414  -0.70005  -0.66190  -0.64239  -0.62399
 Alpha  occ. eigenvalues --   -0.62063  -0.59688  -0.58978  -0.57069  -0.55811
 Alpha  occ. eigenvalues --   -0.55590  -0.54494  -0.52862  -0.51902  -0.51457
 Alpha  occ. eigenvalues --   -0.43580  -0.41678  -0.39045  -0.38402
 Alpha virt. eigenvalues --    0.18751   0.20798   0.21661   0.23272   0.25996
 Alpha virt. eigenvalues --    0.26930   0.28947   0.30188   0.30831   0.31827
 Alpha virt. eigenvalues --    0.32604   0.33333   0.34117   0.35601   0.37414

 Mulliken atomic charges:
              1
     1  H    0.215196
     2  C   -0.588130
     3  H    0.198633
     4  H    0.179190
     5  C    0.750713
     6  O   -0.609292
     7  N   -0.824339
     8  H    0.395382
     9  C   -0.031927
    10  H    0.213528
    11  C   -0.484657
    12  H    0.194332
    13  H    0.170785
    14  H    0.190712
    15  C    0.762755
    16  O   -0.618438
    17  N   -0.788527
    18  H    0.398586
    19  C   -0.274248
    20  H    0.204544
    21  H    0.170639
    22  H    0.174563
 Sum of Mulliken atomic charges =   0.00000

 Dipole moment (field-independent basis, Debye):
    X=              0.6949    Y=             -0.7721    Z=             -0.2916  Tot=              1.0790
 Quadrupole moment (field-independent basis, Debye-Ang):
   XX=            -62.1743   YY=            -58.2356   ZZ=            -63.3556
   XY=             -6.2470   XZ=             14.1949   YZ=              3.5356

 Normal termination of Gaussian 09 at Fri Feb 10 00:31:03 2017.
