 Gaussian 09, Revision A.02,
 Gaussian 09:  EM64L-G09RevA.02 11-Jun-2009

 -------------------------------------------
 # HF/6-31G* Opt=(ModRedundant) geom=nocrowd
 -------------------------------------------

 ------------------
 Phi Psi fixed scan
 ------------------
 Symbolic Z-matrix:
 Charge =  0 Multiplicity = 1

 SCF Done:  E(RHF) =  -492.819773196     A.U. after   15 cycles
 SCF Done:  E(RHF) =  -492.839107105     A.U. after   15 cycles
 SCF Done:  E(RHF) =  -492.844684510     A.U. after   13 cycles
 SCF Done:  E(RHF) =  -492.846702379     A.U. after   13 cycles
 SCF Done:  E(RHF) =  -492.847346424     A.U. after   13 cycles
 SCF Done:  E(RHF) =  -492.847458894     A.U. after   13 cycles
 SCF Done:  E(RHF) =  -492.847446862     A.U. after   13 cycles
 SCF Done:  E(RHF) =  -492.847648064     A.U. after   12 cycles
 SCF Done:  E(RHF) =  -492.847668293     A.U. after   12 cycles
 SCF Done:  E(RHF) =  -492.847684264     A.U. after   12 cycles
 SCF Done:  E(RHF) =  -492.847688130     A.U. after    9 cycles
 SCF Done:  E(RHF) =  -492.847693296     A.U. after   10 cycles
 SCF Done:  E(RHF) =  -492.847696464     A.U. after   11 cycles
 SCF Done:  E(RHF) =  -492.847698325     A.U. after   10 cycles
 SCF Done:  E(RHF) =  -492.847699699     A.U. after   10 cycles
 SCF Done:  E(RHF) =  -492.847699786     A.U. after    9 cycles
 Optimization completed.
    -- Stationary point found.

                         Standard orientation:
 ---------------------------------------------------------------------
 Center     Atomic      Atomic             Coordinates (Angstroms)
 Number     Number       Type             X           Y           Z
 ---------------------------------------------------------------------
      1          1           0        4.107959   -0.986298   -0.489207
      2          6           0        3.135221   -1.273540   -0.118657
      3          1           0        3.237986   -1.734627    0.857652
      4          1           0        2.699128   -2.005567   -0.791621
      5          6           0        2.250674   -0.042857   -0.059988
      6          8           0        2.587977    0.996257   -0.554339
      7          7           0        1.087140   -0.250667    0.616254
      8          1           0        0.885331   -1.208852    0.799374
      9          6           0       -0.116413    0.559722    0.636713
     10          1           0       -0.356188    0.768460    1.677880
     11          6           0       -0.011539    1.905938   -0.089568
     12          1           0        0.128616    1.780138   -1.153883
     13          1           0       -0.915431    2.481766    0.077015
     14          1           0        0.820873    2.476017    0.289425
     15          6           0       -1.273397   -0.315264    0.114878
     16          8           0       -1.100737   -1.471931   -0.167818
     17          7           0       -2.481474    0.279480    0.063816
     18          1           0       -2.557287    1.237158    0.313030
     19          6           0       -3.687048   -0.407273   -0.349351
     20          1           0       -3.432823   -1.425773   -0.591893
     21          1           0       -4.421816   -0.406344    0.448206
     22          1           0       -4.118920    0.067272   -1.223376
 ---------------------------------------------------------------------

 The electronic state is 1-A.
 Alpha  occ. eigenvalues --  -20.53325 -20.51608 -15.59530 -15.57584 -11.35483
 Alpha  occ. eigenvalues --  -11.34377 -11.28827 -11.26350 -11.22554 -11.22322
 Alpha  occ. eigenvalues --   -1.40343  -1.38308  -1.24311  -1.23244  -1.05782
 Alpha  occ. eigenvalues --   -0.98718  -0.96085  -0.89226  -0.80542  -0.75732
 Alpha  occ. eigenvalues --   -0.73161  -0.69019  -0.66108  -0.64447  -0.62809
 Alpha  occ. eigenvalues --   -0.61978  -0.59675  -0.58661  -0.56739  -0.55828
 Alpha  occ. eigenvalues --   -0.55535  -0.54535  -0.52889  -0.52108  -0.50388
 Alpha  occ. eigenvalues --   -0.43028  -0.40780  -0.39895  -0.38259
 Alpha virt. eigenvalues --    0.19108   0.20743   0.21629   0.24698   0.26101
 Alpha virt. eigenvalues --    0.28542   0.29563   0.30506   0.31583   0.31722
 Alpha virt. eigenvalues --    0.32703   0.32854   0.34101   0.34943   0.36466

 Mulliken atomic charges:
              1
     1  H    0.211144
     2  C   -0.593164
     3  H    0.183522
     4  H    0.198854
     5  C    0.745267
     6  O   -0.605766
     7  N   -0.803984
     8  H    0.404537
     9  C   -0.027344
    10  H    0.197848
    11  C   -0.484893
    12  H    0.198494
    13  H    0.136448
    14  H    0.222854
    15  C    0.769194
    16  O   -0.629644
    17  N   -0.801579
    18  H    0.390681
    19  C   -0.288567
    20  H    0.230730
    21  H    0.171538
    22  H    0.173831
 Sum of Mulliken atomic charges =   0.00000

 Dipole moment (field-independent basis, Debye):
    X=             -3.3831    Y=              0.3672    Z=              1.7679  Tot=              3.8348
 Quadrupole moment (field-independent basis, Debye-Ang):
   XX=            -55.8694   YY=            -62.6922   ZZ=            -60.6326
   XY=            -12.1287   XZ=              2.2816   YZ=              1.1517

 Normal termination of Gaussian 09 at Fri Feb 10 00:00:30 2017.
