 Gaussian 09, Revision A.02,
 Gaussian 09:  EM64L-G09RevA.02 11-Jun-2009

 -------------------------------------------
 # HF/6-31G* Opt=(ModRedundant) geom=nocrowd
 -------------------------------------------

 ------------------
 Phi Psi fixed scan
 ------------------
 Symbolic Z-matrix:
 Charge =  0 Multiplicity = 1

 SCF Done:  E(RHF) =  -492.809988572     A.U. after   15 cycles
 SCF Done:  E(RHF) =  -492.832931946     A.U. after   14 cycles
 SCF Done:  E(RHF) =  -492.838506607     A.U. after   14 cycles
 SCF Done:  E(RHF) =  -492.840739357     A.U. after   13 cycles
 SCF Done:  E(RHF) =  -492.842366179     A.U. after   13 cycles
 SCF Done:  E(RHF) =  -492.843131694     A.U. after   17 cycles
 SCF Done:  E(RHF) =  -492.843640546     A.U. after   13 cycles
 SCF Done:  E(RHF) =  -492.843761635     A.U. after   12 cycles
 SCF Done:  E(RHF) =  -492.843801706     A.U. after   11 cycles
 SCF Done:  E(RHF) =  -492.843945022     A.U. after   11 cycles
 SCF Done:  E(RHF) =  -492.844397783     A.U. after   13 cycles
 SCF Done:  E(RHF) =  -492.844379512     A.U. after   13 cycles
 SCF Done:  E(RHF) =  -492.844565176     A.U. after   12 cycles
 SCF Done:  E(RHF) =  -492.844660018     A.U. after   12 cycles
 SCF Done:  E(RHF) =  -492.844671356     A.U. after   12 cycles
 SCF Done:  E(RHF) =  -492.844692712     A.U. after   11 cycles
 SCF Done:  E(RHF) =  -492.844695643     A.U. after   11 cycles
 SCF Done:  E(RHF) =  -492.844698746     A.U. after   10 cycles
 SCF Done:  E(RHF) =  -492.844700679     A.U. after   10 cycles
 SCF Done:  E(RHF) =  -492.844700892     A.U. after    8 cycles
 Optimization completed.
    -- Stationary point found.

                         Standard orientation:
 ---------------------------------------------------------------------
 Center     Atomic      Atomic             Coordinates (Angstroms)
 Number     Number       Type             X           Y           Z
 ---------------------------------------------------------------------
      1          1           0       -3.831088   -1.438563    0.563410
      2          6           0       -3.072192   -1.362541   -0.200833
      3          1           0       -3.544960   -1.078995   -1.136712
      4          1           0       -2.599828   -2.328965   -0.341406
      5          6           0       -2.072153   -0.298131    0.208847
      6          8           0       -2.306156    0.482738    1.081824
      7          7           0       -0.894843   -0.346935   -0.492254
      8          1           0       -0.928963   -0.962638   -1.274890
      9          6           0        0.094644    0.726404   -0.653436
     10          1           0        0.259690    0.813158   -1.724318
     11          6           0       -0.323457    2.105375   -0.148510
     12          1           0       -0.421307    2.132540    0.924630
     13          1           0        0.436404    2.813185   -0.447595
     14          1           0       -1.269981    2.396040   -0.586031
     15          6           0        1.472437    0.328498   -0.103507
     16          8           0        2.271441    1.162967    0.217800
     17          7           0        1.777697   -0.991958   -0.157398
     18          1           0        1.011716   -1.623617   -0.116826
     19          6           0        3.044902   -1.460183    0.366937
     20          1           0        3.849430   -0.894060   -0.077699
     21          1           0        3.108472   -1.354069    1.445045
     22          1           0        3.163085   -2.503939    0.105977
 ---------------------------------------------------------------------

 The electronic state is 1-A.
 Alpha  occ. eigenvalues --  -20.53441 -20.52517 -15.59897 -15.58212 -11.36025
 Alpha  occ. eigenvalues --  -11.34272 -11.28772 -11.25555 -11.24231 -11.20851
 Alpha  occ. eigenvalues --   -1.40316  -1.39312  -1.25298  -1.22488  -1.05703
 Alpha  occ. eigenvalues --   -0.99607  -0.95904  -0.88039  -0.79993  -0.76671
 Alpha  occ. eigenvalues --   -0.72476  -0.70482  -0.66562  -0.63798  -0.62782
 Alpha  occ. eigenvalues --   -0.61912  -0.60713  -0.59308  -0.57344  -0.55229
 Alpha  occ. eigenvalues --   -0.54292  -0.53765  -0.52154  -0.51963  -0.50364
 Alpha  occ. eigenvalues --   -0.44641  -0.42215  -0.39264  -0.38739
 Alpha virt. eigenvalues --    0.18051   0.19060   0.20910   0.24910   0.25949
 Alpha virt. eigenvalues --    0.27596   0.28841   0.30218   0.31301   0.31510
 Alpha virt. eigenvalues --    0.32928   0.33482   0.34285   0.35044   0.36329

 Mulliken atomic charges:
              1
     1  H    0.221325
     2  C   -0.595583
     3  H    0.194263
     4  H    0.178065
     5  C    0.750142
     6  O   -0.576359
     7  N   -0.842752
     8  H    0.379320
     9  C   -0.041880
    10  H    0.203634
    11  C   -0.473509
    12  H    0.212058
    13  H    0.192296
    14  H    0.167990
    15  C    0.772826
    16  O   -0.605042
    17  N   -0.792439
    18  H    0.388632
    19  C   -0.279251
    20  H    0.203655
    21  H    0.176905
    22  H    0.165703
 Sum of Mulliken atomic charges =   0.00000

 Dipole moment (field-independent basis, Debye):
    X=             -1.3159    Y=             -4.6429    Z=             -3.4318  Tot=              5.9216
 Quadrupole moment (field-independent basis, Debye-Ang):
   XX=            -65.5553   YY=            -58.2549   ZZ=            -60.8329
   XY=             -2.0287   XZ=              5.8388   YZ=             -2.3784

 Normal termination of Gaussian 09 at Thu Feb  9 23:17:22 2017.
