 Gaussian 09, Revision A.02,
 Gaussian 09:  EM64L-G09RevA.02 11-Jun-2009

 -------------------------------------------
 # HF/6-31G* Opt=(ModRedundant) geom=nocrowd
 -------------------------------------------

 ------------------
 Phi Psi fixed scan
 ------------------
 Symbolic Z-matrix:
 Charge =  0 Multiplicity = 1

 SCF Done:  E(RHF) =  -492.819046142     A.U. after   15 cycles
 SCF Done:  E(RHF) =  -492.840172720     A.U. after   15 cycles
 SCF Done:  E(RHF) =  -492.844281574     A.U. after   13 cycles
 SCF Done:  E(RHF) =  -492.844921905     A.U. after   13 cycles
 SCF Done:  E(RHF) =  -492.844974192     A.U. after   13 cycles
 SCF Done:  E(RHF) =  -492.845136651     A.U. after   13 cycles
 SCF Done:  E(RHF) =  -492.845313391     A.U. after   10 cycles
 SCF Done:  E(RHF) =  -492.845479253     A.U. after   13 cycles
 SCF Done:  E(RHF) =  -492.845429975     A.U. after   13 cycles
 SCF Done:  E(RHF) =  -492.845527399     A.U. after   12 cycles
 SCF Done:  E(RHF) =  -492.845726676     A.U. after   12 cycles
 SCF Done:  E(RHF) =  -492.845744024     A.U. after   10 cycles
 SCF Done:  E(RHF) =  -492.845766149     A.U. after   11 cycles
 SCF Done:  E(RHF) =  -492.845796280     A.U. after   11 cycles
 SCF Done:  E(RHF) =  -492.845806208     A.U. after   11 cycles
 SCF Done:  E(RHF) =  -492.845810796     A.U. after   11 cycles
 SCF Done:  E(RHF) =  -492.845815675     A.U. after   11 cycles
 SCF Done:  E(RHF) =  -492.845819422     A.U. after   11 cycles
 SCF Done:  E(RHF) =  -492.845819908     A.U. after    9 cycles
 SCF Done:  E(RHF) =  -492.845819964     A.U. after    8 cycles
 Optimization completed.
    -- Stationary point found.

                         Standard orientation:
 ---------------------------------------------------------------------
 Center     Atomic      Atomic             Coordinates (Angstroms)
 Number     Number       Type             X           Y           Z
 ---------------------------------------------------------------------
      1          1           0       -4.092387   -1.179311    0.134789
      2          6           0       -3.062003   -1.414422   -0.086630
      3          1           0       -3.001535   -1.917813   -1.045708
      4          1           0       -2.680880   -2.088792    0.674163
      5          6           0       -2.253651   -0.131739   -0.071724
      6          8           0       -2.694722    0.884325    0.383533
      7          7           0       -1.018848   -0.260594   -0.634788
      8          1           0       -0.770610   -1.196058   -0.867106
      9          6           0        0.123826    0.630302   -0.530423
     10          1           0        0.406630    0.923714   -1.538530
     11          6           0       -0.088420    1.907767    0.289170
     12          1           0       -0.353278    1.676758    1.310280
     13          1           0        0.842558    2.467681    0.286928
     14          1           0       -0.866501    2.522042   -0.135340
     15          6           0        1.286214   -0.150399    0.094252
     16          8           0        1.127569   -0.873295    1.039038
     17          7           0        2.482807    0.016439   -0.508011
     18          1           0        2.564723    0.691984   -1.231837
     19          6           0        3.696381   -0.542474    0.050672
     20          1           0        3.534699   -1.579740    0.304092
     21          1           0        4.482240   -0.478130   -0.690077
     22          1           0        4.009774   -0.015705    0.945467
 ---------------------------------------------------------------------

 The electronic state is 1-A.
 Alpha  occ. eigenvalues --  -20.52942 -20.51730 -15.59559 -15.58270 -11.34897
 Alpha  occ. eigenvalues --  -11.34534 -11.28630 -11.26463 -11.22581 -11.21915
 Alpha  occ. eigenvalues --   -1.39984  -1.38494  -1.24240  -1.23452  -1.05744
 Alpha  occ. eigenvalues --   -0.98804  -0.96324  -0.88455  -0.80158  -0.76596
 Alpha  occ. eigenvalues --   -0.72997  -0.69127  -0.66249  -0.63581  -0.63132
 Alpha  occ. eigenvalues --   -0.61991  -0.59946  -0.58476  -0.56504  -0.56064
 Alpha  occ. eigenvalues --   -0.55319  -0.53752  -0.52771  -0.51862  -0.50362
 Alpha  occ. eigenvalues --   -0.43094  -0.40515  -0.39789  -0.38563
 Alpha virt. eigenvalues --    0.19057   0.20078   0.21508   0.23497   0.25965
 Alpha virt. eigenvalues --    0.28261   0.29304   0.30141   0.31224   0.31481
 Alpha virt. eigenvalues --    0.32406   0.33426   0.34195   0.35170   0.37258

 Mulliken atomic charges:
              1
     1  H    0.213179
     2  C   -0.595456
     3  H    0.177099
     4  H    0.203395
     5  C    0.756206
     6  O   -0.600365
     7  N   -0.803271
     8  H    0.384743
     9  C   -0.002267
    10  H    0.177129
    11  C   -0.483743
    12  H    0.210277
    13  H    0.149813
    14  H    0.213535
    15  C    0.730249
    16  O   -0.607591
    17  N   -0.790863
    18  H    0.386113
    19  C   -0.275369
    20  H    0.206144
    21  H    0.170269
    22  H    0.180775
 Sum of Mulliken atomic charges =   0.00000

 Dipole moment (field-independent basis, Debye):
    X=              3.5130    Y=             -0.7080    Z=             -3.6364  Tot=              5.1054
 Quadrupole moment (field-independent basis, Debye-Ang):
   XX=            -56.6906   YY=            -59.5610   ZZ=            -62.0487
   XY=             10.3698   XZ=             -1.7021   YZ=              0.8535

 Normal termination of Gaussian 09 at Thu Feb  9 23:38:48 2017.
