 Gaussian 09, Revision A.02,
 Gaussian 09:  EM64L-G09RevA.02 11-Jun-2009

 -------------------------------------------
 # HF/6-31G* Opt=(ModRedundant) geom=nocrowd
 -------------------------------------------

 ------------------
 Phi Psi fixed scan
 ------------------
 Symbolic Z-matrix:
 Charge =  0 Multiplicity = 1

 SCF Done:  E(RHF) =  -492.814658080     A.U. after   15 cycles
 SCF Done:  E(RHF) =  -492.839100598     A.U. after   15 cycles
 SCF Done:  E(RHF) =  -492.845094835     A.U. after   13 cycles
 SCF Done:  E(RHF) =  -492.847547862     A.U. after   13 cycles
 SCF Done:  E(RHF) =  -492.847770007     A.U. after   12 cycles
 SCF Done:  E(RHF) =  -492.847937572     A.U. after   12 cycles
 SCF Done:  E(RHF) =  -492.848071226     A.U. after   11 cycles
 SCF Done:  E(RHF) =  -492.848079127     A.U. after   11 cycles
 SCF Done:  E(RHF) =  -492.848099574     A.U. after   11 cycles
 SCF Done:  E(RHF) =  -492.848107135     A.U. after    9 cycles
 SCF Done:  E(RHF) =  -492.848547383     A.U. after   12 cycles
 SCF Done:  E(RHF) =  -492.848574513     A.U. after   11 cycles
 SCF Done:  E(RHF) =  -492.848601535     A.U. after   11 cycles
 SCF Done:  E(RHF) =  -492.848604666     A.U. after   10 cycles
 SCF Done:  E(RHF) =  -492.848608536     A.U. after   11 cycles
 SCF Done:  E(RHF) =  -492.848611719     A.U. after   10 cycles
 SCF Done:  E(RHF) =  -492.848616913     A.U. after   11 cycles
 SCF Done:  E(RHF) =  -492.848619860     A.U. after   10 cycles
 SCF Done:  E(RHF) =  -492.848620093     A.U. after    9 cycles
 SCF Done:  E(RHF) =  -492.848620110     A.U. after    7 cycles
 Optimization completed.
    -- Stationary point found.

                         Standard orientation:
 ---------------------------------------------------------------------
 Center     Atomic      Atomic             Coordinates (Angstroms)
 Number     Number       Type             X           Y           Z
 ---------------------------------------------------------------------
      1          1           0        4.069569   -0.907066   -0.712646
      2          6           0        3.124782   -1.245038   -0.313428
      3          1           0        3.284747   -1.733838    0.641170
      4          1           0        2.693381   -1.971734   -0.995283
      5          6           0        2.195013   -0.053198   -0.184993
      6          8           0        2.444325    0.996129   -0.712064
      7          7           0        1.094953   -0.307110    0.567633
      8          1           0        0.943447   -1.258539    0.820659
      9          6           0       -0.091582    0.507014    0.775340
     10          1           0       -0.248212    0.566435    1.850513
     11          6           0       -0.006135    1.942362    0.258365
     12          1           0        0.042356    1.995317   -0.820193
     13          1           0       -0.872070    2.494265    0.611475
     14          1           0        0.874949    2.429104    0.645814
     15          6           0       -1.290864   -0.319529    0.278609
     16          8           0       -1.277211   -1.517616    0.404771
     17          7           0       -2.354595    0.337641   -0.214465
     18          1           0       -2.275949    1.302044   -0.430708
     19          6           0       -3.522923   -0.379137   -0.684450
     20          1           0       -3.863555   -1.067588    0.075207
     21          1           0       -4.307171    0.336874   -0.890324
     22          1           0       -3.310665   -0.941934   -1.586162
 ---------------------------------------------------------------------

 The electronic state is 1-A.
 Alpha  occ. eigenvalues --  -20.52981 -20.51612 -15.59512 -15.57887 -11.35142
 Alpha  occ. eigenvalues --  -11.34553 -11.28802 -11.26378 -11.22668 -11.22545
 Alpha  occ. eigenvalues --   -1.40105  -1.38348  -1.24190  -1.23380  -1.05891
 Alpha  occ. eigenvalues --   -0.98853  -0.95956  -0.89653  -0.80629  -0.76018
 Alpha  occ. eigenvalues --   -0.72973  -0.69364  -0.65805  -0.64899  -0.62562
 Alpha  occ. eigenvalues --   -0.61801  -0.59605  -0.58691  -0.56560  -0.56109
 Alpha  occ. eigenvalues --   -0.55726  -0.54696  -0.53098  -0.51817  -0.50429
 Alpha  occ. eigenvalues --   -0.43177  -0.40843  -0.39985  -0.38002
 Alpha virt. eigenvalues --    0.19044   0.21103   0.21716   0.24492   0.25739
 Alpha virt. eigenvalues --    0.27649   0.29116   0.30214   0.31751   0.32280
 Alpha virt. eigenvalues --    0.32727   0.33536   0.33944   0.34762   0.36392

 Mulliken atomic charges:
              1
     1  H    0.211726
     2  C   -0.589223
     3  H    0.182737
     4  H    0.196362
     5  C    0.748180
     6  O   -0.611142
     7  N   -0.811630
     8  H    0.409477
     9  C   -0.017110
    10  H    0.206899
    11  C   -0.511788
    12  H    0.196960
    13  H    0.148449
    14  H    0.220635
    15  C    0.777813
    16  O   -0.636645
    17  N   -0.807068
    18  H    0.401394
    19  C   -0.272349
    20  H    0.202232
    21  H    0.169954
    22  H    0.184137
 Sum of Mulliken atomic charges =   0.00000

 Dipole moment (field-independent basis, Debye):
    X=             -2.5052    Y=              0.5982    Z=              0.5671  Tot=              2.6373
 Quadrupole moment (field-independent basis, Debye-Ang):
   XX=            -56.6496   YY=            -63.3266   ZZ=            -60.2134
   XY=            -12.7598   XZ=              5.9773   YZ=              2.6815

 Normal termination of Gaussian 09 at Fri Feb 10 00:08:22 2017.
