 Gaussian 09, Revision A.02,
 Gaussian 09:  EM64L-G09RevA.02 11-Jun-2009

 -------------------------------------------
 # HF/6-31G* Opt=(ModRedundant) geom=nocrowd
 -------------------------------------------

 ------------------
 Phi Psi fixed scan
 ------------------
 Symbolic Z-matrix:
 Charge =  0 Multiplicity = 1

 SCF Done:  E(RHF) =  -492.814337204     A.U. after   15 cycles
 SCF Done:  E(RHF) =  -492.837191834     A.U. after   15 cycles
 SCF Done:  E(RHF) =  -492.841915704     A.U. after   13 cycles
 SCF Done:  E(RHF) =  -492.842338530     A.U. after   12 cycles
 SCF Done:  E(RHF) =  -492.842367278     A.U. after   13 cycles
 SCF Done:  E(RHF) =  -492.842506029     A.U. after   11 cycles
 SCF Done:  E(RHF) =  -492.842545417     A.U. after   12 cycles
 SCF Done:  E(RHF) =  -492.842609442     A.U. after   13 cycles
 SCF Done:  E(RHF) =  -492.842644239     A.U. after   11 cycles
 SCF Done:  E(RHF) =  -492.842685622     A.U. after   11 cycles
 SCF Done:  E(RHF) =  -492.842859267     A.U. after   12 cycles
 SCF Done:  E(RHF) =  -492.843062478     A.U. after   12 cycles
 SCF Done:  E(RHF) =  -492.843070199     A.U. after   11 cycles
 SCF Done:  E(RHF) =  -492.843093453     A.U. after   11 cycles
 SCF Done:  E(RHF) =  -492.843102042     A.U. after   11 cycles
 SCF Done:  E(RHF) =  -492.843116193     A.U. after   11 cycles
 SCF Done:  E(RHF) =  -492.843122832     A.U. after   11 cycles
 SCF Done:  E(RHF) =  -492.843125127     A.U. after   11 cycles
 SCF Done:  E(RHF) =  -492.843125950     A.U. after   10 cycles
 SCF Done:  E(RHF) =  -492.843126562     A.U. after   10 cycles
 Optimization completed.
    -- Stationary point found.

                         Standard orientation:
 ---------------------------------------------------------------------
 Center     Atomic      Atomic             Coordinates (Angstroms)
 Number     Number       Type             X           Y           Z
 ---------------------------------------------------------------------
      1          1           0       -3.871304   -1.554405    0.284151
      2          6           0       -2.808097   -1.693488    0.156270
      3          1           0       -2.625809   -2.329892   -0.703180
      4          1           0       -2.411793   -2.190548    1.036446
      5          6           0       -2.154274   -0.331761    0.010948
      6          8           0       -2.720219    0.671619    0.335250
      7          7           0       -0.895641   -0.386683   -0.505839
      8          1           0       -0.556424   -1.298558   -0.715806
      9          6           0        0.100315    0.671185   -0.654873
     10          1           0        0.371478    0.706003   -1.707871
     11          6           0       -0.338983    2.069347   -0.235170
     12          1           0       -0.575664    2.106316    0.815581
     13          1           0        0.485079    2.748876   -0.430197
     14          1           0       -1.200334    2.392346   -0.799634
     15          6           0        1.330948    0.236774    0.154242
     16          8           0        1.442269    0.462979    1.325062
     17          7           0        2.240999   -0.491305   -0.539522
     18          1           0        2.204817   -0.468461   -1.532498
     19          6           0        3.474100   -0.932074    0.080345
     20          1           0        3.254418   -1.388258    1.033866
     21          1           0        3.945428   -1.664443   -0.561855
     22          1           0        4.162151   -0.109730    0.245450
 ---------------------------------------------------------------------

 The electronic state is 1-A.
 Alpha  occ. eigenvalues --  -20.52939 -20.51904 -15.59591 -15.58984 -11.34929
 Alpha  occ. eigenvalues --  -11.34796 -11.28704 -11.26432 -11.23072 -11.20953
 Alpha  occ. eigenvalues --   -1.39943  -1.38750  -1.24664  -1.23334  -1.05603
 Alpha  occ. eigenvalues --   -0.98863  -0.96580  -0.88128  -0.79919  -0.77200
 Alpha  occ. eigenvalues --   -0.72699  -0.69587  -0.66270  -0.64455  -0.62858
 Alpha  occ. eigenvalues --   -0.61931  -0.60197  -0.58799  -0.56491  -0.56056
 Alpha  occ. eigenvalues --   -0.54203  -0.53166  -0.52584  -0.51280  -0.51111
 Alpha  occ. eigenvalues --   -0.44068  -0.40940  -0.39800  -0.38041
 Alpha virt. eigenvalues --    0.18299   0.20091   0.21496   0.23385   0.26041
 Alpha virt. eigenvalues --    0.27916   0.28629   0.30599   0.31122   0.31776
 Alpha virt. eigenvalues --    0.32737   0.33837   0.34022   0.35443   0.37028

 Mulliken atomic charges:
              1
     1  H    0.215847
     2  C   -0.590940
     3  H    0.171825
     4  H    0.200395
     5  C    0.759253
     6  O   -0.593895
     7  N   -0.818662
     8  H    0.382117
     9  C   -0.009525
    10  H    0.168872
    11  C   -0.473814
    12  H    0.221765
    13  H    0.153322
    14  H    0.196185
    15  C    0.749542
    16  O   -0.596843
    17  N   -0.796546
    18  H    0.381366
    19  C   -0.276856
    20  H    0.207777
    21  H    0.168913
    22  H    0.179903
 Sum of Mulliken atomic charges =   0.00000

 Dipole moment (field-independent basis, Debye):
    X=              2.9410    Y=             -3.5623    Z=             -4.3619  Tot=              6.3534
 Quadrupole moment (field-independent basis, Debye-Ang):
   XX=            -61.2579   YY=            -57.3786   ZZ=            -61.9803
   XY=              4.2694   XZ=             -4.2630   YZ=             -1.9273

 Normal termination of Gaussian 09 at Thu Feb  9 23:28:19 2017.
