 Gaussian 09, Revision A.02,
 Gaussian 09:  EM64L-G09RevA.02 11-Jun-2009

 -------------------------------------------
 # HF/6-31G* Opt=(ModRedundant) geom=nocrowd
 -------------------------------------------

 ------------------
 Phi Psi fixed scan
 ------------------
 Symbolic Z-matrix:
 Charge =  0 Multiplicity = 1

 SCF Done:  E(RHF) =  -492.817671614     A.U. after   15 cycles
 SCF Done:  E(RHF) =  -492.839315846     A.U. after   15 cycles
 SCF Done:  E(RHF) =  -492.843321296     A.U. after   13 cycles
 SCF Done:  E(RHF) =  -492.843790440     A.U. after   13 cycles
 SCF Done:  E(RHF) =  -492.843724142     A.U. after   12 cycles
 SCF Done:  E(RHF) =  -492.843944568     A.U. after   12 cycles
 SCF Done:  E(RHF) =  -492.844009262     A.U. after   12 cycles
 SCF Done:  E(RHF) =  -492.844084235     A.U. after   13 cycles
 SCF Done:  E(RHF) =  -492.844125921     A.U. after   11 cycles
 SCF Done:  E(RHF) =  -492.844140871     A.U. after   11 cycles
 SCF Done:  E(RHF) =  -492.844284177     A.U. after   12 cycles
 SCF Done:  E(RHF) =  -492.844365935     A.U. after   12 cycles
 SCF Done:  E(RHF) =  -492.844432317     A.U. after   12 cycles
 SCF Done:  E(RHF) =  -492.844415065     A.U. after   12 cycles
 SCF Done:  E(RHF) =  -492.844445870     A.U. after   12 cycles
 SCF Done:  E(RHF) =  -492.844457088     A.U. after   11 cycles
 SCF Done:  E(RHF) =  -492.844466357     A.U. after   11 cycles
 SCF Done:  E(RHF) =  -492.844467816     A.U. after   10 cycles
 SCF Done:  E(RHF) =  -492.844467959     A.U. after    9 cycles
 SCF Done:  E(RHF) =  -492.844467989     A.U. after    8 cycles
 Optimization completed.
    -- Stationary point found.

                         Standard orientation:
 ---------------------------------------------------------------------
 Center     Atomic      Atomic             Coordinates (Angstroms)
 Number     Number       Type             X           Y           Z
 ---------------------------------------------------------------------
      1          1           0       -4.050270   -1.291725    0.108297
      2          6           0       -3.003885   -1.508655   -0.046898
      3          1           0       -2.881157   -2.066320   -0.969334
      4          1           0       -2.646873   -2.125407    0.772218
      5          6           0       -2.232560   -0.202793   -0.063614
      6          8           0       -2.712610    0.814380    0.346822
      7          7           0       -0.980576   -0.317454   -0.587201
      8          1           0       -0.711888   -1.242366   -0.837866
      9          6           0        0.119654    0.633231   -0.560327
     10          1           0        0.402649    0.830099   -1.591823
     11          6           0       -0.167824    1.976412    0.112623
     12          1           0       -0.428520    1.842988    1.151065
     13          1           0        0.734024    2.579492    0.051678
     14          1           0       -0.971454    2.499499   -0.381603
     15          6           0        1.301655   -0.028457    0.160009
     16          8           0        1.207180   -0.432241    1.285469
     17          7           0        2.431514   -0.153194   -0.569874
     18          1           0        2.482083    0.294629   -1.454993
     19          6           0        3.657036   -0.654948    0.016418
     20          1           0        3.452128   -1.563444    0.563188
     21          1           0        4.360090   -0.870607   -0.777146
     22          1           0        4.101593    0.061841    0.698251
 ---------------------------------------------------------------------

 The electronic state is 1-A.
 Alpha  occ. eigenvalues --  -20.52706 -20.51713 -15.59596 -15.58574 -11.34737
 Alpha  occ. eigenvalues --  -11.34653 -11.28646 -11.26438 -11.22747 -11.21553
 Alpha  occ. eigenvalues --   -1.39803  -1.38521  -1.24287  -1.23486  -1.05676
 Alpha  occ. eigenvalues --   -0.98821  -0.96419  -0.88303  -0.80084  -0.76905
 Alpha  occ. eigenvalues --   -0.72839  -0.69323  -0.66234  -0.63836  -0.62936
 Alpha  occ. eigenvalues --   -0.61915  -0.59991  -0.58543  -0.56437  -0.56047
 Alpha  occ. eigenvalues --   -0.55065  -0.53485  -0.52615  -0.51622  -0.50513
 Alpha  occ. eigenvalues --   -0.43331  -0.40557  -0.39726  -0.38280
 Alpha virt. eigenvalues --    0.18819   0.20144   0.21283   0.23495   0.25969
 Alpha virt. eigenvalues --    0.28121   0.29312   0.30847   0.31066   0.31449
 Alpha virt. eigenvalues --    0.32453   0.33681   0.33994   0.35420   0.37286

 Mulliken atomic charges:
              1
     1  H    0.214091
     2  C   -0.593370
     3  H    0.173517
     4  H    0.203125
     5  C    0.760936
     6  O   -0.598909
     7  N   -0.810037
     8  H    0.382549
     9  C   -0.002234
    10  H    0.171905
    11  C   -0.483247
    12  H    0.217144
    13  H    0.150634
    14  H    0.206911
    15  C    0.738285
    16  O   -0.606102
    17  N   -0.792185
    18  H    0.385737
    19  C   -0.275797
    20  H    0.206119
    21  H    0.169560
    22  H    0.181368
 Sum of Mulliken atomic charges =   0.00000

 Dipole moment (field-independent basis, Debye):
    X=              3.3777    Y=             -1.6846    Z=             -4.2864  Tot=              5.7114
 Quadrupole moment (field-independent basis, Debye-Ang):
   XX=            -57.7889   YY=            -58.1789   ZZ=            -62.5596
   XY=              8.5133   XZ=             -3.0863   YZ=              0.3171

 Normal termination of Gaussian 09 at Thu Feb  9 23:34:39 2017.
