 Gaussian 09, Revision A.02,
 Gaussian 09:  EM64L-G09RevA.02 11-Jun-2009

 -------------------------------------------
 # HF/6-31G* Opt=(ModRedundant) geom=nocrowd
 -------------------------------------------

 ------------------
 Phi Psi fixed scan
 ------------------
 Symbolic Z-matrix:
 Charge =  0 Multiplicity = 1

 SCF Done:  E(RHF) =  -492.811451183     A.U. after   15 cycles
 SCF Done:  E(RHF) =  -492.834503528     A.U. after   15 cycles
 SCF Done:  E(RHF) =  -492.839480535     A.U. after   14 cycles
 SCF Done:  E(RHF) =  -492.840203488     A.U. after   13 cycles
 SCF Done:  E(RHF) =  -492.840337488     A.U. after   12 cycles
 SCF Done:  E(RHF) =  -492.840422343     A.U. after   12 cycles
 SCF Done:  E(RHF) =  -492.840521351     A.U. after   12 cycles
 SCF Done:  E(RHF) =  -492.840601565     A.U. after   13 cycles
 SCF Done:  E(RHF) =  -492.840733085     A.U. after   12 cycles
 SCF Done:  E(RHF) =  -492.840929575     A.U. after   13 cycles
 SCF Done:  E(RHF) =  -492.841559412     A.U. after   13 cycles
 SCF Done:  E(RHF) =  -492.841582095     A.U. after   12 cycles
 SCF Done:  E(RHF) =  -492.841601737     A.U. after   11 cycles
 SCF Done:  E(RHF) =  -492.841596119     A.U. after   12 cycles
 SCF Done:  E(RHF) =  -492.841622297     A.U. after   11 cycles
 SCF Done:  E(RHF) =  -492.841623075     A.U. after    9 cycles
 SCF Done:  E(RHF) =  -492.841624070     A.U. after   10 cycles
 SCF Done:  E(RHF) =  -492.841625349     A.U. after   10 cycles
 SCF Done:  E(RHF) =  -492.841626958     A.U. after   11 cycles
 SCF Done:  E(RHF) =  -492.841627190     A.U. after    9 cycles
 Optimization completed.
    -- Stationary point found.

                         Standard orientation:
 ---------------------------------------------------------------------
 Center     Atomic      Atomic             Coordinates (Angstroms)
 Number     Number       Type             X           Y           Z
 ---------------------------------------------------------------------
      1          1           0        3.737918   -1.669965   -0.455800
      2          6           0        2.682523   -1.759367   -0.245887
      3          1           0        2.538437   -2.376023    0.634924
      4          1           0        2.198385   -2.249495   -1.085313
      5          6           0        2.103418   -0.367646   -0.066285
      6          8           0        2.705272    0.608622   -0.407593
      7          7           0        0.867952   -0.367168    0.509057
      8          1           0        0.477591   -1.268208    0.665843
      9          6           0       -0.078429    0.737451    0.678783
     10          1           0       -0.317650    0.786211    1.740542
     11          6           0        0.414631    2.113733    0.251481
     12          1           0        0.629754    2.150900   -0.804061
     13          1           0       -0.370679    2.828691    0.466629
     14          1           0        1.304434    2.387966    0.797573
     15          6           0       -1.377404    0.369233   -0.056129
     16          8           0       -1.799885    0.989183   -0.986978
     17          7           0       -1.982807   -0.768238    0.396119
     18          1           0       -1.804879   -1.030664    1.340224
     19          6           0       -3.259450   -1.179025   -0.156872
     20          1           0       -3.187819   -1.213453   -1.233282
     21          1           0       -3.495446   -2.168615    0.211970
     22          1           0       -4.060894   -0.498213    0.110546
 ---------------------------------------------------------------------

 The electronic state is 1-A.
 Alpha  occ. eigenvalues --  -20.53780 -20.52140 -15.59529 -15.59072 -11.35177
 Alpha  occ. eigenvalues --  -11.35121 -11.28802 -11.26463 -11.23290 -11.20683
 Alpha  occ. eigenvalues --   -1.40544  -1.39002  -1.25142  -1.23040  -1.05611
 Alpha  occ. eigenvalues --   -0.98893  -0.96629  -0.88003  -0.79937  -0.77099
 Alpha  occ. eigenvalues --   -0.73105  -0.69354  -0.66343  -0.65140  -0.63144
 Alpha  occ. eigenvalues --   -0.61902  -0.60252  -0.59040  -0.56627  -0.56094
 Alpha  occ. eigenvalues --   -0.53554  -0.52948  -0.52808  -0.52017  -0.50940
 Alpha  occ. eigenvalues --   -0.44711  -0.41348  -0.40219  -0.38091
 Alpha virt. eigenvalues --    0.17944   0.19817   0.21423   0.23751   0.26296
 Alpha virt. eigenvalues --    0.26446   0.29118   0.30531   0.30915   0.31628
 Alpha virt. eigenvalues --    0.33117   0.33585   0.34078   0.35083   0.36313

 Mulliken atomic charges:
              1
     1  H    0.217397
     2  C   -0.592673
     3  H    0.175043
     4  H    0.195838
     5  C    0.755027
     6  O   -0.591479
     7  N   -0.822037
     8  H    0.384084
     9  C   -0.028909
    10  H    0.178160
    11  C   -0.460699
    12  H    0.210317
    13  H    0.164828
    14  H    0.192189
    15  C    0.755311
    16  O   -0.583760
    17  N   -0.797953
    18  H    0.373558
    19  C   -0.279008
    20  H    0.208312
    21  H    0.169251
    22  H    0.177205
 Sum of Mulliken atomic charges =   0.00000

 Dipole moment (field-independent basis, Debye):
    X=             -2.2645    Y=             -4.5550    Z=              3.7075  Tot=              6.2945
 Quadrupole moment (field-independent basis, Debye-Ang):
   XX=            -65.3765   YY=            -58.1404   ZZ=            -60.2721
   XY=             -1.0036   XZ=             -3.4823   YZ=              2.4444

 Normal termination of Gaussian 09 at Thu Feb  9 23:23:14 2017.
