 Gaussian 09, Revision A.02,
 Gaussian 09:  EM64L-G09RevA.02 11-Jun-2009

 -------------------
 #SP MP2/aug-cc-pVDZ
 -------------------

 -------------------------------
 Single Point calculation at MP2
 -------------------------------
 Symbolic Z-matrix:
 Charge =  0 Multiplicity = 1

                         Standard orientation:
 ---------------------------------------------------------------------
 Center     Atomic      Atomic             Coordinates (Angstroms)
 Number     Number       Type             X           Y           Z
 ---------------------------------------------------------------------
      1          1           0        3.551718   -1.840879   -0.481391
      2          6           0        3.130414   -0.912281   -0.874291
      3          1           0        2.733515   -1.090583   -1.878691
      4          1           0        3.947211   -0.185078   -0.945691
      5          6           0        2.091012   -0.391886    0.107109
      6          8           0        2.272612   -0.407385    1.317809
      7          7           0        0.933410    0.083509   -0.461491
      8          1           0        0.898509    0.177109   -1.468491
      9          6           0       -0.061993    0.832005    0.308209
     10          1           0        0.163908    0.600706    1.354309
     11          6           0        0.039900    2.339805    0.078309
     12          1           0       -0.156501    2.591904   -0.968691
     13          1           0       -0.701502    2.868402    0.683609
     14          1           0        1.039598    2.690310    0.352809
     15          6           0       -1.478491    0.309799   -0.021891
     16          8           0       -2.353494    1.034095   -0.481491
     17          7           0       -1.663385   -1.010902    0.264809
     18          1           0       -0.865783   -1.539999    0.589409
     19          6           0       -2.910682   -1.706308    0.007709
     20          1           0       -3.639686   -0.960411   -0.311891
     21          1           0       -2.799179   -2.457907   -0.784191
     22          1           0       -3.275880   -2.202309    0.914209
 ---------------------------------------------------------------------

 SCF Done:  E(RHF) =  -492.924555252     A.U. after   14 cycles
 E2 =    -0.1600682679D+01 EUMP2 =    -0.49452523793079D+03

 The electronic state is 1-A.
 Alpha  occ. eigenvalues --  -20.54021 -20.53475 -15.60763 -15.59457 -11.37391
 Alpha  occ. eigenvalues --  -11.36106 -11.29200 -11.26904 -11.25658 -11.22927
 Alpha  occ. eigenvalues --   -1.39524  -1.38632  -1.25165  -1.22846  -1.05658
 Alpha  occ. eigenvalues --   -0.99708  -0.96281  -0.87466  -0.80506  -0.78877
 Alpha  occ. eigenvalues --   -0.73186  -0.68105  -0.65927  -0.65086  -0.62416
 Alpha  occ. eigenvalues --   -0.61861  -0.60280  -0.59242  -0.58015  -0.55866
 Alpha  occ. eigenvalues --   -0.54748  -0.53239  -0.52904  -0.51993  -0.50836
 Alpha  occ. eigenvalues --   -0.43916  -0.43433  -0.40261  -0.38784
 Alpha virt. eigenvalues --    0.02589   0.03765   0.04432   0.04573   0.05639
 Alpha virt. eigenvalues --    0.05970   0.06231   0.06591   0.07336   0.08091
 Alpha virt. eigenvalues --    0.08706   0.09366   0.11289   0.12062   0.12323

 Mulliken atomic charges:
              1
     1  H    0.023570
     2  C    0.366922
     3  H   -0.125846
     4  H    0.057719
     5  C    0.559449
     6  O   -0.852275
     7  N   -0.374183
     8  H   -0.130019
     9  C   -0.301833
    10  H   -0.127129
    11  C    0.836678
    12  H   -0.027397
    13  H   -0.033579
    14  H   -0.049699
    15  C    1.231007
    16  O   -0.810547
    17  N   -0.558378
    18  H   -0.079914
    19  C    0.740032
    20  H   -0.151553
    21  H   -0.087599
    22  H   -0.105426
 Sum of Mulliken atomic charges =   0.00000

 Dipole moment (field-independent basis, Debye):
    X=              1.3973    Y=             -2.2271    Z=             -2.4293  Tot=              3.5797
 Quadrupole moment (field-independent basis, Debye-Ang):
   XX=            -66.9214   YY=            -58.6952   ZZ=            -63.2207
   XY=              7.3621   XZ=            -11.8906   YZ=              2.5145

 Normal termination of Gaussian 09 at Mon Feb 13 06:21:01 2017.
