 Gaussian 09, Revision A.02,
 Gaussian 09:  EM64L-G09RevA.02 11-Jun-2009

 -------------------
 #SP MP2/aug-cc-pVDZ
 -------------------

 -------------------------------
 Single Point calculation at MP2
 -------------------------------
 Symbolic Z-matrix:
 Charge =  0 Multiplicity = 1

                         Standard orientation:
 ---------------------------------------------------------------------
 Center     Atomic      Atomic             Coordinates (Angstroms)
 Number     Number       Type             X           Y           Z
 ---------------------------------------------------------------------
      1          1           0        3.676783   -1.789235    0.165192
      2          6           0        3.161890   -1.125229   -0.533308
      3          1           0        2.723483   -1.719225   -1.341508
      4          1           0        3.913597   -0.452337   -0.961808
      5          6           0        2.140998   -0.302018    0.237892
      6          8           0        2.384503    0.175579    1.334792
      7          7           0        0.914600   -0.153106   -0.387208
      8          1           0        0.894398   -0.360405   -1.379608
      9          6           0       -0.050690    0.847004    0.073892
     10          1           0        0.260213    1.092701    1.094092
     11          6           0       -0.022277    2.124204   -0.776308
     12          1           0       -0.246279    1.903706   -1.827908
     13          1           0       -0.777569    2.822612   -0.409608
     14          1           0        0.963928    2.595194   -0.720108
     15          6           0       -1.490896    0.308319    0.173792
     16          8           0       -2.407088    1.055529    0.496592
     17          7           0       -1.666109   -0.999279   -0.173808
     18          1           0       -0.829015   -1.562788   -0.238808
     19          6           0       -2.951416   -1.660865   -0.029108
     20          1           0       -3.724708   -0.891557   -0.046208
     21          1           0       -3.111523   -2.358864   -0.857108
     22          1           0       -3.027722   -2.210465    0.918292
 ---------------------------------------------------------------------

 SCF Done:  E(RHF) =  -492.924241787     A.U. after   14 cycles
 E2 =    -0.1601420313D+01 EUMP2 =    -0.49452566210003D+03

 The electronic state is 1-A.
 Alpha  occ. eigenvalues --  -20.54450 -20.52926 -15.60924 -15.59670 -11.37626
 Alpha  occ. eigenvalues --  -11.35955 -11.29131 -11.26940 -11.25911 -11.23612
 Alpha  occ. eigenvalues --   -1.39875  -1.38362  -1.25525  -1.22723  -1.05766
 Alpha  occ. eigenvalues --   -0.99986  -0.96200  -0.87848  -0.80641  -0.78585
 Alpha  occ. eigenvalues --   -0.73323  -0.68411  -0.66455  -0.63642  -0.62656
 Alpha  occ. eigenvalues --   -0.62497  -0.59789  -0.59268  -0.58458  -0.56566
 Alpha  occ. eigenvalues --   -0.54912  -0.54367  -0.52741  -0.52173  -0.49879
 Alpha  occ. eigenvalues --   -0.44117  -0.43714  -0.39955  -0.39450
 Alpha virt. eigenvalues --    0.02181   0.03676   0.04120   0.04678   0.05574
 Alpha virt. eigenvalues --    0.06040   0.06302   0.06576   0.07371   0.08198
 Alpha virt. eigenvalues --    0.08245   0.09252   0.11508   0.12278   0.12587

 Mulliken atomic charges:
              1
     1  H    0.023473
     2  C    0.349471
     3  H   -0.133528
     4  H    0.049514
     5  C    0.628323
     6  O   -0.836266
     7  N   -0.300322
     8  H   -0.082203
     9  C   -0.444524
    10  H    0.018605
    11  C    0.840775
    12  H   -0.052854
    13  H   -0.032389
    14  H   -0.076621
    15  C    1.129627
    16  O   -0.867106
    17  N   -0.556961
    18  H   -0.065695
    19  C    0.748176
    20  H   -0.131517
    21  H   -0.139022
    22  H   -0.068956
 Sum of Mulliken atomic charges =   0.00000

 Dipole moment (field-independent basis, Debye):
    X=              1.6417    Y=             -3.6043    Z=             -4.3393  Tot=              5.8750
 Quadrupole moment (field-independent basis, Debye-Ang):
   XX=            -67.7643   YY=            -57.9996   ZZ=            -64.1029
   XY=              4.1990   XZ=             -6.1533   YZ=             -1.3173

 Normal termination of Gaussian 09 at Mon Feb 13 05:41:13 2017.
