 Gaussian 09, Revision A.02,
 Gaussian 09:  EM64L-G09RevA.02 11-Jun-2009

 -------------------
 #SP MP2/aug-cc-pVDZ
 -------------------

 -------------------------------
 Single Point calculation at MP2
 -------------------------------
 Symbolic Z-matrix:
 Charge =  0 Multiplicity = 1

                         Standard orientation:
 ---------------------------------------------------------------------
 Center     Atomic      Atomic             Coordinates (Angstroms)
 Number     Number       Type             X           Y           Z
 ---------------------------------------------------------------------
      1          1           0        4.061883   -0.782730   -1.016097
      2          6           0        3.112079   -1.242923   -0.731697
      3          1           0        3.336473   -2.060925   -0.038597
      4          1           0        2.633176   -1.661320   -1.622897
      5          6           0        2.262787   -0.207817   -0.008897
      6          8           0        2.716992    0.510780    0.871503
      7          7           0        0.953187   -0.138707   -0.410797
      8          1           0        0.615283   -0.790505   -1.104697
      9          6           0       -0.020506    0.704700    0.283203
     10          1           0        0.381895    0.862797    1.286103
     11          6           0       -0.183696    2.068301   -0.403197
     12          1           0       -0.459597    1.972403   -1.461497
     13          1           0       -0.938492    2.680307    0.104003
     14          1           0        0.771308    2.599894   -0.364897
     15          6           0       -1.312512   -0.114090    0.480603
     16          8           0       -1.458318   -0.848189    1.447803
     17          7           0       -2.231112   -0.021583   -0.531697
     18          1           0       -2.111806    0.702616   -1.224797
     19          6           0       -3.510417   -0.710574   -0.477697
     20          1           0       -3.431123   -1.491674    0.279203
     21          1           0       -4.327212   -0.032468   -0.198897
     22          1           0       -3.742120   -1.162672   -1.447797
 ---------------------------------------------------------------------

 SCF Done:  E(RHF) =  -492.918421023     A.U. after   14 cycles
 E2 =    -0.1601570968D+01 EUMP2 =    -0.49451999199067D+03

 The electronic state is 1-A.
 Alpha  occ. eigenvalues --  -20.53665 -20.52996 -15.60485 -15.60156 -11.36581
 Alpha  occ. eigenvalues --  -11.36462 -11.29258 -11.27484 -11.24871 -11.24488
 Alpha  occ. eigenvalues --   -1.39217  -1.38352  -1.24694  -1.23366  -1.05852
 Alpha  occ. eigenvalues --   -0.99488  -0.96088  -0.89100  -0.79879  -0.79623
 Alpha  occ. eigenvalues --   -0.73150  -0.67484  -0.66024  -0.64904  -0.62837
 Alpha  occ. eigenvalues --   -0.62036  -0.59378  -0.58759  -0.57775  -0.56764
 Alpha  occ. eigenvalues --   -0.55607  -0.54751  -0.53284  -0.52157  -0.49951
 Alpha  occ. eigenvalues --   -0.43769  -0.42431  -0.40082  -0.39265
 Alpha virt. eigenvalues --    0.02291   0.03589   0.04103   0.04644   0.05715
 Alpha virt. eigenvalues --    0.05777   0.06239   0.06717   0.07620   0.07886
 Alpha virt. eigenvalues --    0.08234   0.09471   0.11547   0.11869   0.12324

 Mulliken atomic charges:
              1
     1  H    0.029421
     2  C    0.377297
     3  H    0.065338
     4  H   -0.152129
     5  C    0.547004
     6  O   -0.840240
     7  N   -0.330224
     8  H   -0.084382
     9  C   -0.026147
    10  H   -0.096269
    11  C    0.769689
    12  H   -0.020732
    13  H   -0.053771
    14  H   -0.127743
    15  C    1.065735
    16  O   -0.863340
    17  N   -0.560918
    18  H   -0.097511
    19  C    0.751461
    20  H   -0.138740
    21  H   -0.083526
    22  H   -0.130273
 Sum of Mulliken atomic charges =   0.00000

 Dipole moment (field-independent basis, Debye):
    X=             -2.4127    Y=              0.1477    Z=             -5.7212  Tot=              6.2109
 Quadrupole moment (field-independent basis, Debye-Ang):
   XX=            -60.8007   YY=            -59.4352   ZZ=            -65.5051
   XY=             -8.5509   XZ=             -1.0220   YZ=              2.7972

 Normal termination of Gaussian 09 at Mon Feb 13 06:47:47 2017.
