 Gaussian 09, Revision A.02,
 Gaussian 09:  EM64L-G09RevA.02 11-Jun-2009

 -------------------
 #SP MP2/aug-cc-pVDZ
 -------------------

 -------------------------------
 Single Point calculation at MP2
 -------------------------------
 Symbolic Z-matrix:
 Charge =  0 Multiplicity = 1

                         Standard orientation:
 ---------------------------------------------------------------------
 Center     Atomic      Atomic             Coordinates (Angstroms)
 Number     Number       Type             X           Y           Z
 ---------------------------------------------------------------------
      1          1           0       -3.391207   -1.959689    0.709700
      2          6           0       -3.162007   -0.909289    0.911500
      3          1           0       -2.839407   -0.806489    1.952300
      4          1           0       -4.086807   -0.340889    0.769500
      5          6           0       -2.132507   -0.430489   -0.101400
      6          8           0       -2.301107   -0.560489   -1.308900
      7          7           0       -1.011206    0.145511    0.430900
      8          1           0       -0.926106    0.267011    1.431200
      9          6           0        0.042194    0.729610   -0.394000
     10          1           0       -0.128706    0.338010   -1.400400
     11          6           0       -0.016806    2.260310   -0.413300
     12          1           0        0.164994    2.657710    0.589500
     13          1           0        0.749894    2.667610   -1.082500
     14          1           0       -0.998106    2.592111   -0.765300
     15          6           0        1.382694    0.243010    0.180900
     16          8           0        1.806694    0.682710    1.246100
     17          7           0        2.010293   -0.724590   -0.542500
     18          1           0        1.563093   -1.058990   -1.384200
     19          6           0        3.246793   -1.353491   -0.111200
     20          1           0        3.567293   -0.848791    0.801200
     21          1           0        3.098093   -2.418891    0.102000
     22          1           0        4.026493   -1.250891   -0.874400
 ---------------------------------------------------------------------

 SCF Done:  E(RHF) =  -492.926666054     A.U. after   14 cycles
 E2 =    -0.1600265832D+01 EUMP2 =    -0.49452693188595D+03

 The electronic state is 1-A.
 Alpha  occ. eigenvalues --  -20.53576 -20.53141 -15.60356 -15.60090 -11.36704
 Alpha  occ. eigenvalues --  -11.36435 -11.29184 -11.27258 -11.24968 -11.23209
 Alpha  occ. eigenvalues --   -1.39155  -1.38395  -1.24486  -1.23574  -1.05600
 Alpha  occ. eigenvalues --   -0.99344  -0.96479  -0.87783  -0.80209  -0.79377
 Alpha  occ. eigenvalues --   -0.73171  -0.67577  -0.65855  -0.64638  -0.62556
 Alpha  occ. eigenvalues --   -0.61998  -0.60315  -0.58703  -0.57667  -0.56613
 Alpha  occ. eigenvalues --   -0.55143  -0.53639  -0.52463  -0.51774  -0.50486
 Alpha  occ. eigenvalues --   -0.43684  -0.42700  -0.39874  -0.39229
 Alpha virt. eigenvalues --    0.03012   0.03653   0.04346   0.04910   0.05631
 Alpha virt. eigenvalues --    0.05818   0.06210   0.07164   0.07311   0.07768
 Alpha virt. eigenvalues --    0.08888   0.09479   0.11597   0.12074   0.12219

 Mulliken atomic charges:
              1
     1  H    0.046405
     2  C    0.399876
     3  H   -0.150935
     4  H    0.047506
     5  C    0.595817
     6  O   -0.859221
     7  N   -0.182253
     8  H   -0.110842
     9  C   -0.376828
    10  H   -0.257337
    11  C    0.840308
    12  H   -0.008817
    13  H   -0.031199
    14  H   -0.047475
    15  C    1.171935
    16  O   -0.855582
    17  N   -0.493330
    18  H   -0.105666
    19  C    0.721540
    20  H   -0.145041
    21  H   -0.094640
    22  H   -0.104223
 Sum of Mulliken atomic charges =   0.00000

 Dipole moment (field-independent basis, Debye):
    X=              0.4696    Y=             -1.1654    Z=              0.4242  Tot=              1.3261
 Quadrupole moment (field-independent basis, Debye-Ang):
   XX=            -60.7173   YY=            -59.1092   ZZ=            -65.2071
   XY=             -6.1130   XZ=            -15.4136   YZ=             -3.2530

 Normal termination of Gaussian 09 at Mon Feb 13 06:12:16 2017.
