 Gaussian 09, Revision A.02,
 Gaussian 09:  EM64L-G09RevA.02 11-Jun-2009

 -------------------
 #SP MP2/aug-cc-pVDZ
 -------------------

 -------------------------------
 Single Point calculation at MP2
 -------------------------------
 Symbolic Z-matrix:
 Charge =  0 Multiplicity = 1

                         Standard orientation:
 ---------------------------------------------------------------------
 Center     Atomic      Atomic             Coordinates (Angstroms)
 Number     Number       Type             X           Y           Z
 ---------------------------------------------------------------------
      1          1           0       -3.757611   -1.702308   -0.454294
      2          6           0       -3.196112   -1.219107    0.348906
      3          1           0       -2.731110   -1.986106    0.976506
      4          1           0       -3.912313   -0.654108    0.956506
      5          6           0       -2.196214   -0.252505   -0.268994
      6          8           0       -2.487315    0.473995   -1.204994
      7          7           0       -0.930514   -0.280502    0.297006
      8          1           0       -0.896413   -0.677802    1.230106
      9          6           0        0.025584    0.800100    0.036706
     10          1           0       -0.336617    1.299099   -0.864294
     11          6           0        0.087082    1.815500    1.188406
     12          1           0        0.405083    1.335001    2.122206
     13          1           0        0.807380    2.602602    0.948806
     14          1           0       -0.895819    2.271898    1.343606
     15          6           0        1.444685    0.304603   -0.289794
     16          8           0        2.222184    1.023405   -0.903294
     17          7           0        1.817088   -0.881396    0.287806
     18          1           0        1.066389   -1.527998    0.492206
     19          6           0        3.127589   -1.453993    0.013906
     20          1           0        3.853087   -0.640392   -0.026194
     21          1           0        3.397690   -2.144893    0.817506
     22          1           0        3.159590   -1.988493   -0.944894
 ---------------------------------------------------------------------

 SCF Done:  E(RHF) =  -492.920911983     A.U. after   14 cycles
 E2 =    -0.1601036508D+01 EUMP2 =    -0.49452194849062D+03

 The electronic state is 1-A.
 Alpha  occ. eigenvalues --  -20.54391 -20.53364 -15.60909 -15.59804 -11.37518
 Alpha  occ. eigenvalues --  -11.35966 -11.29049 -11.27020 -11.25817 -11.24199
 Alpha  occ. eigenvalues --   -1.39810  -1.38649  -1.25396  -1.22801  -1.05892
 Alpha  occ. eigenvalues --   -1.00047  -0.95948  -0.88223  -0.80519  -0.78556
 Alpha  occ. eigenvalues --   -0.73055  -0.68357  -0.66364  -0.63449  -0.63129
 Alpha  occ. eigenvalues --   -0.62550  -0.59492  -0.59047  -0.58619  -0.57043
 Alpha  occ. eigenvalues --   -0.54969  -0.54695  -0.52858  -0.52067  -0.50008
 Alpha  occ. eigenvalues --   -0.44427  -0.43632  -0.39910  -0.39881
 Alpha virt. eigenvalues --    0.02072   0.03659   0.04019   0.04720   0.05550
 Alpha virt. eigenvalues --    0.05837   0.06407   0.06591   0.07523   0.08056
 Alpha virt. eigenvalues --    0.08278   0.09204   0.11650   0.11728   0.12601

 Mulliken atomic charges:
              1
     1  H    0.022876
     2  C    0.367542
     3  H   -0.132389
     4  H    0.048875
     5  C    0.599973
     6  O   -0.830961
     7  N   -0.238442
     8  H   -0.073316
     9  C   -0.198390
    10  H   -0.053162
    11  C    0.765227
    12  H   -0.036174
    13  H   -0.047278
    14  H   -0.080995
    15  C    0.998201
    16  O   -0.876383
    17  N   -0.561400
    18  H   -0.083859
    19  C    0.755378
    20  H   -0.114471
    21  H   -0.170286
    22  H   -0.060566
 Sum of Mulliken atomic charges =   0.00000

 Dipole moment (field-independent basis, Debye):
    X=             -1.0185    Y=             -4.2135    Z=              4.8795  Tot=              6.5269
 Quadrupole moment (field-independent basis, Debye-Ang):
   XX=            -65.8488   YY=            -58.3844   ZZ=            -65.0074
   XY=             -1.6459   XZ=             -3.6907   YZ=              2.9536

 Normal termination of Gaussian 09 at Mon Feb 13 06:52:58 2017.
