 Gaussian 09, Revision A.02,
 Gaussian 09:  EM64L-G09RevA.02 11-Jun-2009

 -------------------
 #SP MP2/aug-cc-pVDZ
 -------------------

 -------------------------------
 Single Point calculation at MP2
 -------------------------------
 Symbolic Z-matrix:
 Charge =  0 Multiplicity = 1

                         Standard orientation:
 ---------------------------------------------------------------------
 Center     Atomic      Atomic             Coordinates (Angstroms)
 Number     Number       Type             X           Y           Z
 ---------------------------------------------------------------------
      1          1           0       -4.215086   -0.730212    0.713101
      2          6           0       -3.209384   -1.148606    0.632401
      3          1           0       -3.262979   -2.026507   -0.022099
      4          1           0       -2.869182   -1.473505    1.620801
      5          6           0       -2.294589   -0.112702   -0.001799
      6          8           0       -2.674793    0.655896   -0.874899
      7          7           0       -1.006489   -0.090495    0.484401
      8          1           0       -0.704085   -0.912593    0.991501
      9          6           0        0.033807    0.623210   -0.263299
     10          1           0       -0.318993    0.699309   -1.298599
     11          6           0        0.220300    2.045011    0.279701
     12          1           0        0.523500    2.043213    1.333501
     13          1           0        0.955897    2.606515   -0.309599
     14          1           0       -0.734203    2.572906    0.207701
     15          6           0        1.278012   -0.286783   -0.308299
     16          8           0        1.194318   -1.419384   -0.771699
     17          7           0        2.419209    0.207023    0.250901
     18          1           0        2.424504    1.158923    0.584501
     19          6           0        3.671513   -0.529971    0.243001
     20          1           0        3.455118   -1.538472   -0.111299
     21          1           0        4.406911   -0.066367   -0.426099
     22          1           0        4.095413   -0.581968    1.252001
 ---------------------------------------------------------------------

 SCF Done:  E(RHF) =  -492.919958203     A.U. after   14 cycles
 E2 =    -0.1601972841D+01 EUMP2 =    -0.49452193104445D+03

 The electronic state is 1-A.
 Alpha  occ. eigenvalues --  -20.53595 -20.53176 -15.60632 -15.59511 -11.36803
 Alpha  occ. eigenvalues --  -11.36153 -11.29248 -11.27523 -11.24533 -11.24133
 Alpha  occ. eigenvalues --   -1.39312  -1.38334  -1.24333  -1.23469  -1.05647
 Alpha  occ. eigenvalues --   -0.99303  -0.96031  -0.88936  -0.79794  -0.78786
 Alpha  occ. eigenvalues --   -0.73156  -0.67360  -0.65973  -0.65206  -0.62628
 Alpha  occ. eigenvalues --   -0.61906  -0.59239  -0.58842  -0.57001  -0.56255
 Alpha  occ. eigenvalues --   -0.55525  -0.54584  -0.53790  -0.52523  -0.49268
 Alpha  occ. eigenvalues --   -0.43187  -0.42250  -0.40480  -0.39642
 Alpha virt. eigenvalues --    0.02676   0.03730   0.04302   0.04567   0.05815
 Alpha virt. eigenvalues --    0.05901   0.06147   0.06900   0.07462   0.07833
 Alpha virt. eigenvalues --    0.08668   0.09467   0.11244   0.11816   0.12444

 Mulliken atomic charges:
              1
     1  H   -0.002656
     2  C    0.351634
     3  H    0.075674
     4  H   -0.086328
     5  C    0.516888
     6  O   -0.828661
     7  N   -0.506135
     8  H   -0.041819
     9  C   -0.042068
    10  H   -0.003158
    11  C    0.848092
    12  H    0.039180
    13  H   -0.008366
    14  H   -0.184859
    15  C    1.053095
    16  O   -0.895107
    17  N   -0.544129
    18  H   -0.138386
    19  C    0.744483
    20  H   -0.146197
    21  H   -0.081069
    22  H   -0.120108
 Sum of Mulliken atomic charges =   0.00000

 Dipole moment (field-independent basis, Debye):
    X=              2.9606    Y=              0.9088    Z=              3.7198  Tot=              4.8403
 Quadrupole moment (field-independent basis, Debye-Ang):
   XX=            -56.8514   YY=            -62.5413   ZZ=            -63.5737
   XY=             10.8796   XZ=             -3.8076   YZ=             -2.3187

 Normal termination of Gaussian 09 at Mon Feb 13 08:15:47 2017.
