 Gaussian 09, Revision A.02,
 Gaussian 09:  EM64L-G09RevA.02 11-Jun-2009

 -------------------
 #SP MP2/aug-cc-pVDZ
 -------------------

 -------------------------------
 Single Point calculation at MP2
 -------------------------------
 Symbolic Z-matrix:
 Charge =  0 Multiplicity = 1

                         Standard orientation:
 ---------------------------------------------------------------------
 Center     Atomic      Atomic             Coordinates (Angstroms)
 Number     Number       Type             X           Y           Z
 ---------------------------------------------------------------------
      1          1           0        3.969489   -1.253789   -0.646894
      2          6           0        3.006289   -1.523789   -0.205894
      3          1           0        3.210789   -2.036489    0.740206
      4          1           0        2.486289   -2.215988   -0.876094
      5          6           0        2.226290   -0.249488    0.083806
      6          8           0        2.730590    0.709011    0.652806
      7          7           0        0.922390   -0.246588   -0.349194
      8          1           0        0.522089   -1.118987   -0.666294
      9          6           0       -0.006310    0.814313    0.057206
     10          1           0        0.405690    1.268313    0.960306
     11          6           0       -0.144909    1.899813   -1.022194
     12          1           0       -0.497010    1.490713   -1.977294
     13          1           0       -0.844609    2.679213   -0.700094
     14          1           0        0.832291    2.360012   -1.194594
     15          6           0       -1.351510    0.195613    0.471906
     16          8           0       -1.798210    0.298114    1.604106
     17          7           0       -1.985211   -0.524286   -0.514894
     18          1           0       -1.705610   -0.356086   -1.472294
     19          6           0       -3.307811   -1.093586   -0.297794
     20          1           0       -3.377211   -1.401186    0.746206
     21          1           0       -4.109210   -0.369685   -0.496494
     22          1           0       -3.444511   -1.964185   -0.945594
 ---------------------------------------------------------------------

 SCF Done:  E(RHF) =  -492.918993615     A.U. after   14 cycles
 E2 =    -0.1601078158D+01 EUMP2 =    -0.49452007177264D+03

 The electronic state is 1-A.
 Alpha  occ. eigenvalues --  -20.54296 -20.53328 -15.60548 -15.60312 -11.36761
 Alpha  occ. eigenvalues --  -11.36693 -11.29223 -11.27657 -11.25121 -11.24298
 Alpha  occ. eigenvalues --   -1.39606  -1.38688  -1.25189  -1.23118  -1.05911
 Alpha  occ. eigenvalues --   -0.99607  -0.96278  -0.88752  -0.79993  -0.79468
 Alpha  occ. eigenvalues --   -0.73401  -0.67787  -0.66207  -0.64232  -0.63425
 Alpha  occ. eigenvalues --   -0.62136  -0.59605  -0.59225  -0.57926  -0.57027
 Alpha  occ. eigenvalues --   -0.55805  -0.54652  -0.52976  -0.52185  -0.49886
 Alpha  occ. eigenvalues --   -0.44393  -0.42703  -0.40529  -0.39498
 Alpha virt. eigenvalues --    0.02160   0.03673   0.04094   0.04714   0.05671
 Alpha virt. eigenvalues --    0.05898   0.06251   0.06630   0.07502   0.07938
 Alpha virt. eigenvalues --    0.08332   0.09648   0.11184   0.11945   0.12296

 Mulliken atomic charges:
              1
     1  H    0.025375
     2  C    0.389417
     3  H    0.060180
     4  H   -0.170676
     5  C    0.549005
     6  O   -0.843242
     7  N   -0.163682
     8  H   -0.047789
     9  C   -0.141953
    10  H   -0.124080
    11  C    0.810415
    12  H   -0.122000
    13  H   -0.026303
    14  H   -0.084466
    15  C    0.928848
    16  O   -0.807147
    17  N   -0.552701
    18  H   -0.087841
    19  C    0.752043
    20  H   -0.108703
    21  H   -0.070468
    22  H   -0.164234
 Sum of Mulliken atomic charges =   0.00000

 Dipole moment (field-independent basis, Debye):
    X=             -1.7172    Y=             -3.1499    Z=             -5.1907  Tot=              6.3099
 Quadrupole moment (field-independent basis, Debye-Ang):
   XX=            -64.9640   YY=            -57.6751   ZZ=            -65.9821
   XY=             -5.2477   XZ=              3.3914   YZ=             -1.6038

 Normal termination of Gaussian 09 at Mon Feb 13 07:20:23 2017.
