 Gaussian 09, Revision A.02,
 Gaussian 09:  EM64L-G09RevA.02 11-Jun-2009

 -------------------
 #SP MP2/aug-cc-pVDZ
 -------------------

 -------------------------------
 Single Point calculation at MP2
 -------------------------------
 Symbolic Z-matrix:
 Charge =  0 Multiplicity = 1

                         Standard orientation:
 ---------------------------------------------------------------------
 Center     Atomic      Atomic             Coordinates (Angstroms)
 Number     Number       Type             X           Y           Z
 ---------------------------------------------------------------------
      1          1           0        3.987198   -1.042717   -0.906803
      2          6           0        3.054297   -1.419515   -0.478803
      3          1           0        3.318096   -2.063515    0.366697
      4          1           0        2.532496   -2.021313   -1.230003
      5          6           0        2.241701   -0.241312    0.038497
      6          8           0        2.726203    0.616186    0.764597
      7          7           0        0.932501   -0.205409   -0.370503
      8          1           0        0.563099   -0.979308   -0.904803
      9          6           0       -0.012997    0.776994    0.164397
     10          1           0        0.398204    1.108593    1.119597
     11          6           0       -0.160193    1.994394   -0.760803
     12          1           0       -0.462794    1.713195   -1.777703
     13          1           0       -0.893991    2.704496   -0.362903
     14          1           0        0.805808    2.501891   -0.836803
     15          6           0       -1.331899    0.059097    0.506697
     16          8           0       -1.625399   -0.244902    1.653497
     17          7           0       -2.108699   -0.275901   -0.574703
     18          1           0       -1.914098    0.174899   -1.457803
     19          6           0       -3.407301   -0.911797   -0.412403
     20          1           0       -3.394903   -1.458797    0.530997
     21          1           0       -4.223699   -0.178495   -0.377103
     22          1           0       -3.590103   -1.607197   -1.237203
 ---------------------------------------------------------------------

 SCF Done:  E(RHF) =  -492.918763164     A.U. after   14 cycles
 E2 =    -0.1601245146D+01 EUMP2 =    -0.49452000831014D+03

 The electronic state is 1-A.
 Alpha  occ. eigenvalues --  -20.53990 -20.53112 -15.60488 -15.60282 -11.36642
 Alpha  occ. eigenvalues --  -11.36587 -11.29244 -11.27556 -11.25001 -11.24472
 Alpha  occ. eigenvalues --   -1.39391  -1.38498  -1.24948  -1.23245  -1.05898
 Alpha  occ. eigenvalues --   -0.99551  -0.96182  -0.88992  -0.79958  -0.79609
 Alpha  occ. eigenvalues --   -0.73240  -0.67627  -0.66122  -0.64614  -0.63121
 Alpha  occ. eigenvalues --   -0.62071  -0.59495  -0.58891  -0.57961  -0.56945
 Alpha  occ. eigenvalues --   -0.55694  -0.54718  -0.53065  -0.52146  -0.50052
 Alpha  occ. eigenvalues --   -0.44131  -0.42561  -0.40220  -0.39347
 Alpha virt. eigenvalues --    0.02198   0.03624   0.04068   0.04684   0.05712
 Alpha virt. eigenvalues --    0.05800   0.06289   0.06641   0.07565   0.07897
 Alpha virt. eigenvalues --    0.08293   0.09596   0.11660   0.11802   0.12256

 Mulliken atomic charges:
              1
     1  H    0.033844
     2  C    0.391682
     3  H    0.058993
     4  H   -0.172517
     5  C    0.554403
     6  O   -0.844407
     7  N   -0.226294
     8  H   -0.069339
     9  C   -0.050139
    10  H   -0.129648
    11  C    0.792223
    12  H   -0.091397
    13  H   -0.032687
    14  H   -0.094889
    15  C    0.973153
    16  O   -0.832829
    17  N   -0.559620
    18  H   -0.085807
    19  C    0.733699
    20  H   -0.122620
    21  H   -0.076853
    22  H   -0.148952
 Sum of Mulliken atomic charges =   0.00000

 Dipole moment (field-independent basis, Debye):
    X=             -2.0778    Y=             -1.5774    Z=             -5.8063  Tot=              6.3655
 Quadrupole moment (field-independent basis, Debye-Ang):
   XX=            -62.9197   YY=            -57.7527   ZZ=            -66.5605
   XY=             -7.1267   XZ=              1.6327   YZ=              0.5961

 Normal termination of Gaussian 09 at Mon Feb 13 08:08:48 2017.
