 Gaussian 09, Revision A.02,
 Gaussian 09:  EM64L-G09RevA.02 11-Jun-2009

 -------------------
 #SP MP2/aug-cc-pVDZ
 -------------------

 -------------------------------
 Single Point calculation at MP2
 -------------------------------
 Symbolic Z-matrix:
 Charge =  0 Multiplicity = 1

                         Standard orientation:
 ---------------------------------------------------------------------
 Center     Atomic      Atomic             Coordinates (Angstroms)
 Number     Number       Type             X           Y           Z
 ---------------------------------------------------------------------
      1          1           0       -3.661484   -1.590531   -0.230612
      2          6           0       -3.240890   -0.689828   -0.681612
      3          1           0       -3.957696    0.127767   -0.538612
      4          1           0       -3.114389   -0.845927   -1.758312
      5          6           0       -1.938693   -0.346219    0.027788
      6          8           0       -1.742991   -0.638018    1.204688
      7          7           0       -0.993497    0.270287   -0.749112
      8          1           0       -1.256898    0.442485   -1.709812
      9          6           0        0.119098    1.113894   -0.270612
     10          1           0        0.222192    1.911395   -1.012512
     11          6           0       -0.094007    1.777393    1.096688
     12          1           0       -0.168402    1.047092    1.901788
     13          1           0        0.754289    2.443299    1.284288
     14          1           0       -1.010411    2.376987    1.091288
     15          6           0        1.474603    0.378003   -0.337512
     16          8           0        2.477499    0.941210   -0.761512
     17          7           0        1.444311   -0.900097    0.130588
     18          1           0        0.579413   -1.227903    0.544688
     19          6           0        2.635617   -1.721289    0.237888
     20          1           0        3.445113   -1.192384   -0.267512
     21          1           0        2.918618   -1.885787    1.285288
     22          1           0        2.483523   -2.695090   -0.241512
 ---------------------------------------------------------------------

 SCF Done:  E(RHF) =  -492.919751677     A.U. after   14 cycles
 E2 =    -0.1602550881D+01 EUMP2 =    -0.49452230255746D+03

 The electronic state is 1-A.
 Alpha  occ. eigenvalues --  -20.54457 -20.52720 -15.60930 -15.58641 -11.37746
 Alpha  occ. eigenvalues --  -11.35407 -11.29812 -11.26212 -11.25891 -11.23428
 Alpha  occ. eigenvalues --   -1.39735  -1.37889  -1.25111  -1.22246  -1.06025
 Alpha  occ. eigenvalues --   -1.00071  -0.95328  -0.88813  -0.79922  -0.77395
 Alpha  occ. eigenvalues --   -0.72196  -0.70272  -0.66144  -0.63226  -0.62549
 Alpha  occ. eigenvalues --   -0.61693  -0.60026  -0.59265  -0.57443  -0.56503
 Alpha  occ. eigenvalues --   -0.54587  -0.54152  -0.52683  -0.51960  -0.50229
 Alpha  occ. eigenvalues --   -0.44344  -0.43368  -0.39790  -0.38155
 Alpha virt. eigenvalues --    0.02502   0.04004   0.04315   0.04490   0.05743
 Alpha virt. eigenvalues --    0.05945   0.06428   0.06656   0.07773   0.07968
 Alpha virt. eigenvalues --    0.09149   0.09360   0.10874   0.11790   0.12118

 Mulliken atomic charges:
              1
     1  H   -0.006728
     2  C    0.436877
     3  H    0.059629
     4  H   -0.070139
     5  C    0.624061
     6  O   -0.820463
     7  N   -0.105838
     8  H   -0.124231
     9  C   -0.388058
    10  H   -0.191928
    11  C    0.768140
    12  H    0.058693
    13  H   -0.091273
    14  H   -0.054808
    15  C    1.070670
    16  O   -0.860767
    17  N   -0.605751
    18  H   -0.078444
    19  C    0.733599
    20  H   -0.154721
    21  H   -0.085461
    22  H   -0.113059
 Sum of Mulliken atomic charges =   0.00000

 Dipole moment (field-independent basis, Debye):
    X=             -3.4479    Y=             -0.7752    Z=             -1.8163  Tot=              3.9734
 Quadrupole moment (field-independent basis, Debye-Ang):
   XX=            -64.4724   YY=            -58.9975   ZZ=            -62.7637
   XY=             -8.1869   XZ=             11.7602   YZ=              2.3364

 Normal termination of Gaussian 09 at Sun Feb 12 15:07:21 2017.
