 Gaussian 09, Revision A.02,
 Gaussian 09:  EM64L-G09RevA.02 11-Jun-2009

 -------------------
 #SP MP2/aug-cc-pVDZ
 -------------------

 -------------------------------
 Single Point calculation at MP2
 -------------------------------
 Symbolic Z-matrix:
 Charge =  0 Multiplicity = 1

                         Standard orientation:
 ---------------------------------------------------------------------
 Center     Atomic      Atomic             Coordinates (Angstroms)
 Number     Number       Type             X           Y           Z
 ---------------------------------------------------------------------
      1          1           0       -4.058595   -0.737611    0.147485
      2          6           0       -3.088794   -1.239808    0.219685
      3          1           0       -2.984292   -1.928308   -0.624615
      4          1           0       -3.088292   -1.813608    1.151285
      5          6           0       -1.998597   -0.176005    0.301185
      6          8           0       -1.982499    0.644695    1.211785
      7          7           0       -1.081597   -0.226402   -0.713315
      8          1           0       -1.113194   -1.025502   -1.331015
      9          6           0        0.082601    0.645602   -0.932015
     10          1           0        0.175300    0.736602   -2.020415
     11          6           0       -0.046604    2.059101   -0.361715
     12          1           0       -0.168204    2.076701    0.721185
     13          1           0        0.837595    2.637804   -0.650815
     14          1           0       -0.929205    2.549398   -0.782515
     15          6           0        1.338603   -0.168695   -0.540315
     16          8           0        1.721406   -1.074194   -1.275315
     17          7           0        1.929702    0.148107    0.642485
     18          1           0        1.490100    0.845406    1.225485
     19          6           0        3.044904   -0.609090    1.184885
     20          1           0        3.429406   -1.244988    0.386485
     21          1           0        3.836802    0.065213    1.527785
     22          1           0        2.731906   -1.243691    2.023485
 ---------------------------------------------------------------------

 SCF Done:  E(RHF) =  -492.917482764     A.U. after   14 cycles
 E2 =    -0.1601197506D+01 EUMP2 =    -0.49451868026962D+03

 The electronic state is 1-A.
 Alpha  occ. eigenvalues --  -20.53214 -20.53033 -15.60320 -15.59890 -11.36822
 Alpha  occ. eigenvalues --  -11.36100 -11.29879 -11.26955 -11.24844 -11.23712
 Alpha  occ. eigenvalues --   -1.38887  -1.38218  -1.24351  -1.23358  -1.05905
 Alpha  occ. eigenvalues --   -0.99295  -0.95648  -0.89541  -0.80150  -0.77209
 Alpha  occ. eigenvalues --   -0.72313  -0.69896  -0.65827  -0.64742  -0.61911
 Alpha  occ. eigenvalues --   -0.61838  -0.59565  -0.58939  -0.56759  -0.55695
 Alpha  occ. eigenvalues --   -0.55278  -0.54554  -0.52802  -0.51789  -0.51019
 Alpha  occ. eigenvalues --   -0.44006  -0.42061  -0.39572  -0.38900
 Alpha virt. eigenvalues --    0.03158   0.03722   0.04127   0.05067   0.05628
 Alpha virt. eigenvalues --    0.05826   0.06402   0.06924   0.07660   0.07756
 Alpha virt. eigenvalues --    0.08854   0.09732   0.11345   0.11473   0.12836

 Mulliken atomic charges:
              1
     1  H    0.039062
     2  C    0.426628
     3  H   -0.154083
     4  H    0.041035
     5  C    0.593899
     6  O   -0.833043
     7  N   -0.455866
     8  H   -0.079254
     9  C    0.058668
    10  H   -0.159429
    11  C    0.749179
    12  H    0.132822
    13  H   -0.098527
    14  H   -0.074014
    15  C    0.976181
    16  O   -0.901958
    17  N   -0.568604
    18  H   -0.089124
    19  C    0.738332
    20  H   -0.139613
    21  H   -0.120989
    22  H   -0.081303
 Sum of Mulliken atomic charges =   0.00000

 Dipole moment (field-independent basis, Debye):
    X=             -0.2184    Y=              0.2639    Z=              0.0259  Tot=              0.3435
 Quadrupole moment (field-independent basis, Debye-Ang):
   XX=            -59.2444   YY=            -60.8365   ZZ=            -64.1458
   XY=              9.5606   XZ=             12.2614   YZ=             -4.9439

 Normal termination of Gaussian 09 at Sun Feb 12 15:03:38 2017.
