 Gaussian 09, Revision A.02,
 Gaussian 09:  EM64L-G09RevA.02 11-Jun-2009

 -------------------
 #SP MP2/aug-cc-pVDZ
 -------------------

 -------------------------------
 Single Point calculation at MP2
 -------------------------------
 Symbolic Z-matrix:
 Charge =  0 Multiplicity = 1

                         Standard orientation:
 ---------------------------------------------------------------------
 Center     Atomic      Atomic             Coordinates (Angstroms)
 Number     Number       Type             X           Y           Z
 ---------------------------------------------------------------------
      1          1           0        4.118519   -0.871085   -0.506104
      2          6           0        3.133520   -1.229089   -0.200804
      3          1           0        3.210222   -1.735589    0.766696
      4          1           0        2.789923   -1.959690   -0.943204
      5          6           0        2.171416   -0.045493   -0.176904
      6          8           0        2.342612    0.934708   -0.889204
      7          7           0        1.139416   -0.196297    0.721496
      8          1           0        0.984620   -1.149897    1.029096
      9          6           0       -0.105187    0.570598    0.772396
     10          1           0       -0.346987    0.683197    1.841296
     11          6           0       -0.031992    1.984099    0.181696
     12          1           0        0.048108    1.980299   -0.905504
     13          1           0       -0.920595    2.551995    0.485796
     14          1           0        0.840606    2.511102    0.570596
     15          6           0       -1.239683   -0.335706    0.220596
     16          8           0       -1.099079   -1.555406    0.195796
     17          7           0       -2.404886    0.284289   -0.109704
     18          1           0       -2.415790    1.291189   -0.172204
     19          6           0       -3.565183   -0.447515   -0.592304
     20          1           0       -3.429279   -1.496715   -0.328104
     21          1           0       -4.476384   -0.066519   -0.119904
     22          1           0       -3.670283   -0.370016   -1.681804
 ---------------------------------------------------------------------

 SCF Done:  E(RHF) =  -492.916987823     A.U. after   14 cycles
 E2 =    -0.1600625161D+01 EUMP2 =    -0.49451761298404D+03

 The electronic state is 1-A.
 Alpha  occ. eigenvalues --  -20.53898 -20.52580 -15.60413 -15.58798 -11.36700
 Alpha  occ. eigenvalues --  -11.35928 -11.30054 -11.27435 -11.23904 -11.23897
 Alpha  occ. eigenvalues --   -1.39459  -1.37784  -1.24148  -1.23259  -1.05648
 Alpha  occ. eigenvalues --   -0.98702  -0.95854  -0.89244  -0.80414  -0.75809
 Alpha  occ. eigenvalues --   -0.72719  -0.69172  -0.65978  -0.64520  -0.62305
 Alpha  occ. eigenvalues --   -0.61901  -0.59455  -0.58676  -0.56475  -0.55778
 Alpha  occ. eigenvalues --   -0.55326  -0.54354  -0.52871  -0.51559  -0.50380
 Alpha  occ. eigenvalues --   -0.43684  -0.41676  -0.40340  -0.38861
 Alpha virt. eigenvalues --    0.02755   0.04000   0.04300   0.04692   0.05619
 Alpha virt. eigenvalues --    0.06081   0.06322   0.06837   0.07507   0.07812
 Alpha virt. eigenvalues --    0.09272   0.09859   0.10910   0.11454   0.13060

 Mulliken atomic charges:
              1
     1  H   -0.035178
     2  C    0.317974
     3  H   -0.048643
     4  H    0.062886
     5  C    0.653423
     6  O   -0.811876
     7  N   -0.554698
     8  H    0.000613
     9  C    0.000524
    10  H   -0.049533
    11  C    0.756361
    12  H    0.031182
    13  H   -0.106271
    14  H   -0.067580
    15  C    0.951691
    16  O   -0.838963
    17  N   -0.513660
    18  H   -0.105204
    19  C    0.716789
    20  H   -0.143955
    21  H   -0.141428
    22  H   -0.074455
 Sum of Mulliken atomic charges =   0.00000

 Dipole moment (field-independent basis, Debye):
    X=             -2.7360    Y=              0.7446    Z=              1.5209  Tot=              3.2177
 Quadrupole moment (field-independent basis, Debye-Ang):
   XX=            -55.3350   YY=            -63.7301   ZZ=            -62.1239
   XY=            -11.9287   XZ=              5.5851   YZ=              2.4882

 Normal termination of Gaussian 09 at Sun Feb 12 13:56:09 2017.
