 Gaussian 09, Revision A.02,
 Gaussian 09:  EM64L-G09RevA.02 11-Jun-2009

 -------------------
 #SP MP2/aug-cc-pVDZ
 -------------------

 -------------------------------
 Single Point calculation at MP2
 -------------------------------
 Symbolic Z-matrix:
 Charge =  0 Multiplicity = 1

                         Standard orientation:
 ---------------------------------------------------------------------
 Center     Atomic      Atomic             Coordinates (Angstroms)
 Number     Number       Type             X           Y           Z
 ---------------------------------------------------------------------
      1          1           0       -3.523518   -1.695254   -0.543509
      2          6           0       -3.206706   -0.676758   -0.777509
      3          1           0       -3.988599    0.006651   -0.425709
      4          1           0       -3.116105   -0.564059   -1.862909
      5          6           0       -1.913603   -0.381172   -0.031609
      6          8           0       -1.689908   -0.843575    1.085191
      7          7           0       -1.013194    0.400418   -0.702409
      8          1           0       -1.289391    0.730521   -1.616709
      9          6           0        0.093114    1.157605   -0.079909
     10          1           0        0.179524    2.071804   -0.674709
     11          6           0       -0.113281    1.573708    1.379591
     12          1           0       -0.173191    0.728808    2.063291
     13          1           0        0.723826    2.216098    1.672991
     14          1           0       -1.038275    2.152218    1.477591
     15          6           0        1.420306    0.422591   -0.369109
     16          8           0        2.227011    0.848582   -1.186609
     17          7           0        1.597493   -0.704811    0.377991
     18          1           0        0.795890   -1.040302    0.901791
     19          6           0        2.719483   -1.602824    0.170291
     20          1           0        3.492690   -1.049232   -0.364309
     21          1           0        3.115780   -1.945428    1.131791
     22          1           0        2.438574   -2.480021   -0.427809
 ---------------------------------------------------------------------

 SCF Done:  E(RHF) =  -492.919511202     A.U. after   14 cycles
 E2 =    -0.1602352472D+01 EUMP2 =    -0.49452186367398D+03

 The electronic state is 1-A.
 Alpha  occ. eigenvalues --  -20.54216 -20.52994 -15.60953 -15.58575 -11.37601
 Alpha  occ. eigenvalues --  -11.35437 -11.29740 -11.26171 -11.25728 -11.23623
 Alpha  occ. eigenvalues --   -1.39535  -1.38040  -1.24894  -1.22335  -1.06018
 Alpha  occ. eigenvalues --   -1.00008  -0.95109  -0.89135  -0.79972  -0.77130
 Alpha  occ. eigenvalues --   -0.71978  -0.70199  -0.65983  -0.63914  -0.62523
 Alpha  occ. eigenvalues --   -0.61497  -0.59922  -0.58803  -0.57373  -0.56401
 Alpha  occ. eigenvalues --   -0.54671  -0.54128  -0.52490  -0.51819  -0.51043
 Alpha  occ. eigenvalues --   -0.44261  -0.43215  -0.39373  -0.38617
 Alpha virt. eigenvalues --    0.02705   0.04072   0.04151   0.04652   0.05715
 Alpha virt. eigenvalues --    0.05910   0.06527   0.06623   0.07761   0.07915
 Alpha virt. eigenvalues --    0.09014   0.09694   0.10917   0.11824   0.11933

 Mulliken atomic charges:
              1
     1  H    0.007774
     2  C    0.453312
     3  H    0.057886
     4  H   -0.086620
     5  C    0.610144
     6  O   -0.838545
     7  N   -0.288866
     8  H   -0.102615
     9  C   -0.070590
    10  H   -0.238740
    11  C    0.796259
    12  H    0.020570
    13  H   -0.076766
    14  H   -0.050518
    15  C    0.853626
    16  O   -0.815519
    17  N   -0.554611
    18  H   -0.057086
    19  C    0.735825
    20  H   -0.141772
    21  H   -0.127696
    22  H   -0.085452
 Sum of Mulliken atomic charges =   0.00000

 Dipole moment (field-independent basis, Debye):
    X=             -3.0138    Y=             -0.0307    Z=             -0.6785  Tot=              3.0894
 Quadrupole moment (field-independent basis, Debye-Ang):
   XX=            -61.6558   YY=            -59.1707   ZZ=            -64.2768
   XY=             -8.0598   XZ=             12.8180   YZ=              3.4833

 Normal termination of Gaussian 09 at Sun Feb 12 15:02:14 2017.
