 Gaussian 09, Revision A.02,
 Gaussian 09:  EM64L-G09RevA.02 11-Jun-2009

 -------------------
 #SP MP2/aug-cc-pVDZ
 -------------------

 -------------------------------
 Single Point calculation at MP2
 -------------------------------
 Symbolic Z-matrix:
 Charge =  0 Multiplicity = 1

                         Standard orientation:
 ---------------------------------------------------------------------
 Center     Atomic      Atomic             Coordinates (Angstroms)
 Number     Number       Type             X           Y           Z
 ---------------------------------------------------------------------
      1          1           0       -3.640195   -1.623279    0.775191
      2          6           0       -3.125295   -1.301579   -0.131809
      3          1           0       -3.851295   -0.776279   -0.764409
      4          1           0       -2.768094   -2.181079   -0.678509
      5          6           0       -2.004395   -0.343479    0.259591
      6          8           0       -2.066995    0.352821    1.258291
      7          7           0       -0.917795   -0.363578   -0.599109
      8          1           0       -1.100895   -0.859778   -1.462609
      9          6           0        0.085205    0.718922   -0.740409
     10          1           0        0.317505    0.741322   -1.813709
     11          6           0       -0.381995    2.115522   -0.332309
     12          1           0       -0.582095    2.174522    0.735891
     13          1           0        0.405405    2.830222   -0.583009
     14          1           0       -1.293095    2.382922   -0.877309
     15          6           0        1.425905    0.343622   -0.057009
     16          8           0        2.100005    1.168922    0.542191
     17          7           0        1.857805   -0.930178   -0.317409
     18          1           0        1.137805   -1.598378   -0.559509
     19          6           0        3.064505   -1.448178    0.309291
     20          1           0        3.784805   -0.632377    0.384491
     21          1           0        2.878905   -1.836578    1.319791
     22          1           0        3.483506   -2.247878   -0.308609
 ---------------------------------------------------------------------

 SCF Done:  E(RHF) =  -492.913376785     A.U. after   14 cycles
 E2 =    -0.1601465112D+01 EUMP2 =    -0.49451484189758D+03

 The electronic state is 1-A.
 Alpha  occ. eigenvalues --  -20.54145 -20.53266 -15.60915 -15.59168 -11.37304
 Alpha  occ. eigenvalues --  -11.35678 -11.30017 -11.26645 -11.25665 -11.21938
 Alpha  occ. eigenvalues --   -1.39537  -1.38459  -1.25015  -1.22449  -1.05533
 Alpha  occ. eigenvalues --   -0.99538  -0.95751  -0.87647  -0.80220  -0.76579
 Alpha  occ. eigenvalues --   -0.71709  -0.70436  -0.66073  -0.64180  -0.62376
 Alpha  occ. eigenvalues --   -0.61507  -0.60614  -0.59150  -0.57158  -0.54893
 Alpha  occ. eigenvalues --   -0.54591  -0.53154  -0.52031  -0.51472  -0.50739
 Alpha  occ. eigenvalues --   -0.44837  -0.42728  -0.39611  -0.39347
 Alpha virt. eigenvalues --    0.01994   0.03609   0.03829   0.04677   0.05586
 Alpha virt. eigenvalues --    0.06050   0.06328   0.06418   0.07656   0.07995
 Alpha virt. eigenvalues --    0.08453   0.09402   0.11190   0.12366   0.12499

 Mulliken atomic charges:
              1
     1  H   -0.011910
     2  C    0.321475
     3  H    0.055484
     4  H   -0.081476
     5  C    0.692250
     6  O   -0.789364
     7  N   -0.419124
     8  H   -0.094968
     9  C   -0.235728
    10  H   -0.070130
    11  C    0.697266
    12  H    0.053403
    13  H   -0.086133
    14  H   -0.009930
    15  C    0.943385
    16  O   -0.789493
    17  N   -0.484878
    18  H   -0.068622
    19  C    0.742553
    20  H   -0.122422
    21  H   -0.079212
    22  H   -0.162425
 Sum of Mulliken atomic charges =   0.00000

 Dipole moment (field-independent basis, Debye):
    X=             -1.5953    Y=             -4.4562    Z=             -4.7019  Tot=              6.6716
 Quadrupole moment (field-independent basis, Debye-Ang):
   XX=            -62.2286   YY=            -58.9857   ZZ=            -63.0774
   XY=             -2.2854   XZ=              4.7049   YZ=             -2.5656

 Normal termination of Gaussian 09 at Sun Feb 12 15:22:42 2017.
