 Gaussian 09, Revision A.02,
 Gaussian 09:  EM64L-G09RevA.02 11-Jun-2009

 -------------------
 #SP MP2/aug-cc-pVDZ
 -------------------

 -------------------------------
 Single Point calculation at MP2
 -------------------------------
 Symbolic Z-matrix:
 Charge =  0 Multiplicity = 1

                         Standard orientation:
 ---------------------------------------------------------------------
 Center     Atomic      Atomic             Coordinates (Angstroms)
 Number     Number       Type             X           Y           Z
 ---------------------------------------------------------------------
      1          1           0       -3.891020   -1.529562    0.007404
      2          6           0       -2.814222   -1.698472    0.075204
      3          1           0       -2.503628   -2.375975   -0.727396
      4          1           0       -2.612626   -2.184674    1.036704
      5          6           0       -2.110810   -0.342978    0.047904
      6          8           0       -2.593001    0.634226    0.597904
      7          7           0       -0.920010   -0.352589   -0.642996
      8          1           0       -0.616118   -1.257392   -0.976496
      9          6           0        0.111400    0.692802   -0.722596
     10          1           0        0.439200    0.712699   -1.773596
     11          6           0       -0.345687    2.098706   -0.338996
     12          1           0       -0.572687    2.156308    0.723904
     13          1           0        0.469019    2.795698   -0.567396
     14          1           0       -1.231985    2.391914   -0.904396
     15          6           0        1.307796    0.251491    0.156104
     16          8           0        1.359298    0.479490    1.355504
     17          7           0        2.251889   -0.487018   -0.510296
     18          1           0        2.216289   -0.511118   -1.519696
     19          6           0        3.450685   -0.984729    0.144404
     20          1           0        3.295685   -0.891128    1.220004
     21          1           0        3.621075   -2.036530   -0.109496
     22          1           0        4.338290   -0.403637   -0.135896
 ---------------------------------------------------------------------

 SCF Done:  E(RHF) =  -492.911520621     A.U. after   14 cycles
 E2 =    -0.1601656322D+01 EUMP2 =    -0.49451317694307D+03

 The electronic state is 1-A.
 Alpha  occ. eigenvalues --  -20.53535 -20.52600 -15.60575 -15.60160 -11.36369
 Alpha  occ. eigenvalues --  -11.36286 -11.30051 -11.27462 -11.24583 -11.22107
 Alpha  occ. eigenvalues --   -1.39055  -1.38002  -1.24602  -1.23284  -1.05506
 Alpha  occ. eigenvalues --   -0.98797  -0.96399  -0.87892  -0.80141  -0.77201
 Alpha  occ. eigenvalues --   -0.72310  -0.69666  -0.66006  -0.64452  -0.62556
 Alpha  occ. eigenvalues --   -0.61832  -0.59931  -0.58830  -0.56320  -0.55354
 Alpha  occ. eigenvalues --   -0.54390  -0.53083  -0.51994  -0.51331  -0.51007
 Alpha  occ. eigenvalues --   -0.44680  -0.41476  -0.40028  -0.38597
 Alpha virt. eigenvalues --    0.02016   0.03589   0.03862   0.04583   0.05538
 Alpha virt. eigenvalues --    0.06038   0.06271   0.06590   0.07562   0.07804
 Alpha virt. eigenvalues --    0.08669   0.09616   0.10920   0.12026   0.12393

 Mulliken atomic charges:
              1
     1  H   -0.004030
     2  C    0.354500
     3  H   -0.120575
     4  H    0.062777
     5  C    0.680164
     6  O   -0.802386
     7  N   -0.435767
     8  H   -0.063046
     9  C   -0.201865
    10  H   -0.315903
    11  C    0.729875
    12  H    0.083868
    13  H   -0.084684
    14  H    0.037942
    15  C    1.129282
    16  O   -0.801162
    17  N   -0.526312
    18  H   -0.106723
    19  C    0.732656
    20  H   -0.136285
    21  H   -0.129219
    22  H   -0.083107
 Sum of Mulliken atomic charges =   0.00000

 Dipole moment (field-independent basis, Debye):
    X=              2.8136    Y=             -3.6730    Z=             -5.0794  Tot=              6.8708
 Quadrupole moment (field-independent basis, Debye-Ang):
   XX=            -60.7693   YY=            -57.7608   ZZ=            -63.5303
   XY=              4.1452   XZ=             -2.2925   YZ=             -2.1528

 Normal termination of Gaussian 09 at Sun Feb 12 15:29:47 2017.
