 Gaussian 09, Revision A.02,
 Gaussian 09:  EM64L-G09RevA.02 11-Jun-2009

 -------------------
 #SP MP2/aug-cc-pVDZ
 -------------------

 -------------------------------
 Single Point calculation at MP2
 -------------------------------
 Symbolic Z-matrix:
 Charge =  0 Multiplicity = 1

                         Standard orientation:
 ---------------------------------------------------------------------
 Center     Atomic      Atomic             Coordinates (Angstroms)
 Number     Number       Type             X           Y           Z
 ---------------------------------------------------------------------
      1          1           0       -3.648391   -1.635005   -0.015090
      2          6           0       -3.215690   -0.832006   -0.614890
      3          1           0       -3.953888   -0.023805   -0.680590
      4          1           0       -3.021490   -1.198506   -1.628590
      5          6           0       -1.966089   -0.314308    0.087710
      6          8           0       -1.849289   -0.345408    1.307110
      7          7           0       -0.987688    0.157591   -0.752790
      8          1           0       -1.194988    0.108791   -1.740790
      9          6           0        0.130413    1.053690   -0.412090
     10          1           0        0.248814    1.718689   -1.273990
     11          6           0       -0.089986    1.940790    0.822010
     12          1           0       -0.184087    1.351690    1.733810
     13          1           0        0.767315    2.614789    0.905210
     14          1           0       -0.998985    2.539391    0.704210
     15          6           0        1.492412    0.332188   -0.319790
     16          8           0        2.526113    0.940786   -0.573690
     17          7           0        1.443810   -0.970012    0.071210
     18          1           0        0.548610   -1.335611    0.366110
     19          6           0        2.642009   -1.747214    0.330510
     20          1           0        3.488510   -1.189715   -0.073190
     21          1           0        2.799709   -1.900414    1.405710
     22          1           0        2.583008   -2.725214   -0.159890
 ---------------------------------------------------------------------

 SCF Done:  E(RHF) =  -492.919434725     A.U. after   14 cycles
 E2 =    -0.1602274540D+01 EUMP2 =    -0.49452170926500D+03

 The electronic state is 1-A.
 Alpha  occ. eigenvalues --  -20.54331 -20.52668 -15.60963 -15.59081 -11.37686
 Alpha  occ. eigenvalues --  -11.35554 -11.29856 -11.26453 -11.25849 -11.23063
 Alpha  occ. eigenvalues --   -1.39661  -1.37993  -1.25205  -1.22468  -1.05936
 Alpha  occ. eigenvalues --   -0.99914  -0.95575  -0.88625  -0.79976  -0.77615
 Alpha  occ. eigenvalues --   -0.72415  -0.70239  -0.66322  -0.62897  -0.62505
 Alpha  occ. eigenvalues --   -0.62012  -0.60162  -0.59424  -0.57335  -0.56199
 Alpha  occ. eigenvalues --   -0.54580  -0.54262  -0.52526  -0.52017  -0.49932
 Alpha  occ. eigenvalues --   -0.44425  -0.43131  -0.39873  -0.38397
 Alpha virt. eigenvalues --    0.02422   0.03875   0.04269   0.04561   0.05719
 Alpha virt. eigenvalues --    0.05974   0.06346   0.06554   0.07710   0.08073
 Alpha virt. eigenvalues --    0.08909   0.09274   0.10859   0.12035   0.12418

 Mulliken atomic charges:
              1
     1  H   -0.003403
     2  C    0.411683
     3  H    0.058424
     4  H   -0.088322
     5  C    0.615852
     6  O   -0.817728
     7  N   -0.055815
     8  H   -0.119843
     9  C   -0.557969
    10  H   -0.126331
    11  C    0.720345
    12  H    0.071489
    13  H   -0.080853
    14  H   -0.050750
    15  C    1.206529
    16  O   -0.895213
    17  N   -0.606974
    18  H   -0.078977
    19  C    0.750307
    20  H   -0.143676
    21  H   -0.086568
    22  H   -0.122208
 Sum of Mulliken atomic charges =   0.00000

 Dipole moment (field-independent basis, Debye):
    X=             -3.1872    Y=             -1.7566    Z=             -2.5382  Tot=              4.4369
 Quadrupole moment (field-independent basis, Debye-Ang):
   XX=            -65.9487   YY=            -58.2370   ZZ=            -62.7664
   XY=             -6.8341   XZ=             11.2849   YZ=              1.2824

 Normal termination of Gaussian 09 at Sun Feb 12 15:04:38 2017.
