 Gaussian 09, Revision A.02,
 Gaussian 09:  EM64L-G09RevA.02 11-Jun-2009

 -------------------
 #SP MP2/aug-cc-pVDZ
 -------------------

 -------------------------------
 Single Point calculation at MP2
 -------------------------------
 Symbolic Z-matrix:
 Charge =  0 Multiplicity = 1

                         Standard orientation:
 ---------------------------------------------------------------------
 Center     Atomic      Atomic             Coordinates (Angstroms)
 Number     Number       Type             X           Y           Z
 ---------------------------------------------------------------------
      1          1           0       -4.067178   -1.249628   -0.076103
      2          6           0       -3.007277   -1.503422   -0.137103
      3          1           0       -2.819174   -2.057221   -1.063503
      4          1           0       -2.765273   -2.156820    0.709397
      5          6           0       -2.193785   -0.217017   -0.021003
      6          8           0       -2.597390    0.737281    0.624797
      7          7           0       -1.001384   -0.256210   -0.709203
      8          1           0       -0.775179   -1.149908   -1.125403
      9          6           0        0.134810    0.662897   -0.628703
     10          1           0        0.473309    0.826599   -1.663603
     11          6           0       -0.168598    2.032395   -0.010603
     12          1           0       -0.429598    1.935694    1.042297
     13          1           0        0.729598    2.654701   -0.104403
     14          1           0       -0.994801    2.523490   -0.527703
     15          6           0        1.273214   -0.019396    0.165697
     16          8           0        1.113817   -0.407097    1.314497
     17          7           0        2.442015   -0.173089   -0.528403
     18          1           0        2.509613    0.224511   -1.454303
     19          6           0        3.643618   -0.720582    0.078197
     20          1           0        3.359921   -1.123684    1.051297
     21          1           0        4.059923   -1.523379   -0.540203
     22          1           0        4.411114    0.050023    0.222197
 ---------------------------------------------------------------------

 SCF Done:  E(RHF) =  -492.913020682     A.U. after   14 cycles
 E2 =    -0.1601245362D+01 EUMP2 =    -0.49451426604334D+03

 The electronic state is 1-A.
 Alpha  occ. eigenvalues --  -20.53346 -20.52392 -15.60588 -15.59692 -11.36231
 Alpha  occ. eigenvalues --  -11.36070 -11.30007 -11.27442 -11.24222 -11.22682
 Alpha  occ. eigenvalues --   -1.38956  -1.37751  -1.24239  -1.23416  -1.05550
 Alpha  occ. eigenvalues --   -0.98695  -0.96223  -0.88084  -0.80149  -0.76975
 Alpha  occ. eigenvalues --   -0.72283  -0.69562  -0.66053  -0.63728  -0.62545
 Alpha  occ. eigenvalues --   -0.61898  -0.59642  -0.58551  -0.56246  -0.55367
 Alpha  occ. eigenvalues --   -0.55163  -0.53282  -0.52134  -0.51467  -0.50564
 Alpha  occ. eigenvalues --   -0.44064  -0.41215  -0.39935  -0.38669
 Alpha virt. eigenvalues --    0.02198   0.03672   0.03997   0.04536   0.05787
 Alpha virt. eigenvalues --    0.05930   0.06179   0.06618   0.07822   0.07953
 Alpha virt. eigenvalues --    0.08569   0.09064   0.10977   0.12041   0.12883

 Mulliken atomic charges:
              1
     1  H   -0.023217
     2  C    0.333891
     3  H   -0.085044
     4  H    0.069032
     5  C    0.701861
     6  O   -0.799521
     7  N   -0.374384
     8  H   -0.091269
     9  C   -0.312994
    10  H   -0.311949
    11  C    0.770164
    12  H    0.070869
    13  H   -0.105667
    14  H    0.001544
    15  C    1.209322
    16  O   -0.843842
    17  N   -0.496151
    18  H   -0.104661
    19  C    0.749277
    20  H   -0.148072
    21  H   -0.119692
    22  H   -0.089498
 Sum of Mulliken atomic charges =   0.00000

 Dipole moment (field-independent basis, Debye):
    X=              3.3062    Y=             -1.7089    Z=             -5.1260  Tot=              6.3346
 Quadrupole moment (field-independent basis, Debye-Ang):
   XX=            -57.4249   YY=            -58.6638   ZZ=            -63.8167
   XY=              7.8406   XZ=             -0.9318   YZ=              0.2115

 Normal termination of Gaussian 09 at Sun Feb 12 14:15:08 2017.
