 Gaussian 09, Revision A.02,
 Gaussian 09:  EM64L-G09RevA.02 11-Jun-2009

 -------------------
 #SP MP2/aug-cc-pVDZ
 -------------------

 -------------------------------
 Single Point calculation at MP2
 -------------------------------
 Symbolic Z-matrix:
 Charge =  0 Multiplicity = 1

                         Standard orientation:
 ---------------------------------------------------------------------
 Center     Atomic      Atomic             Coordinates (Angstroms)
 Number     Number       Type             X           Y           Z
 ---------------------------------------------------------------------
      1          1           0       -3.093980   -2.067537    0.506412
      2          6           0       -3.024894   -1.136335   -0.059988
      3          1           0       -3.823003   -0.472647    0.293012
      4          1           0       -3.191691   -1.342438   -1.122288
      5          6           0       -1.676203   -0.490116    0.224712
      6          8           0       -1.136202   -0.552308    1.319412
      7          7           0       -1.098513    0.159793   -0.844288
      8          1           0       -1.683615    0.315184   -1.654988
      9          6           0        0.037274    1.080910   -0.675388
     10          1           0        0.339670    1.356914   -1.693588
     11          6           0       -0.326845    2.344504    0.106912
     12          1           0       -0.641241    2.082900    1.119712
     13          1           0        0.543446    3.000117    0.181712
     14          1           0       -1.138153    2.881092   -0.397588
     15          6           0        1.264084    0.372628   -0.049488
     16          8           0        1.989276    0.941838    0.752212
     17          7           0        1.548702   -0.849568   -0.592088
     18          1           0        0.791509   -1.308879   -1.080288
     19          6           0        2.604714   -1.683153   -0.041488
     20          1           0        3.393305   -1.027541    0.330412
     21          1           0        2.249124   -2.303858    0.791712
     22          1           0        3.009924   -2.331747   -0.824188
 ---------------------------------------------------------------------

 SCF Done:  E(RHF) =  -492.921031567     A.U. after   14 cycles
 E2 =    -0.1603109413D+01 EUMP2 =    -0.49452414097997D+03

 The electronic state is 1-A.
 Alpha  occ. eigenvalues --  -20.54256 -20.52357 -15.60948 -15.58296 -11.37320
 Alpha  occ. eigenvalues --  -11.35279 -11.29669 -11.25839 -11.25770 -11.22272
 Alpha  occ. eigenvalues --   -1.39754  -1.37666  -1.25019  -1.21873  -1.05426
 Alpha  occ. eigenvalues --   -0.99666  -0.95209  -0.87341  -0.80893  -0.76800
 Alpha  occ. eigenvalues --   -0.71335  -0.69989  -0.64987  -0.64313  -0.62258
 Alpha  occ. eigenvalues --   -0.61088  -0.60063  -0.58940  -0.57595  -0.55945
 Alpha  occ. eigenvalues --   -0.53873  -0.52763  -0.52241  -0.51482  -0.50426
 Alpha  occ. eigenvalues --   -0.43602  -0.42667  -0.39954  -0.38458
 Alpha virt. eigenvalues --    0.02100   0.03674   0.03766   0.04659   0.05734
 Alpha virt. eigenvalues --    0.06142   0.06343   0.06490   0.07258   0.08386
 Alpha virt. eigenvalues --    0.08696   0.09173   0.11138   0.12227   0.12497

 Mulliken atomic charges:
              1
     1  H    0.007815
     2  C    0.412118
     3  H    0.052261
     4  H   -0.104678
     5  C    0.612172
     6  O   -0.817876
     7  N   -0.261405
     8  H   -0.113875
     9  C   -0.275607
    10  H   -0.159269
    11  C    0.780948
    12  H   -0.028619
    13  H   -0.049774
    14  H   -0.037029
    15  C    1.081998
    16  O   -0.831384
    17  N   -0.572272
    18  H   -0.059257
    19  C    0.728638
    20  H   -0.122827
    21  H   -0.078175
    22  H   -0.163903
 Sum of Mulliken atomic charges =   0.00000

 Dipole moment (field-independent basis, Debye):
    X=             -3.7381    Y=             -1.5309    Z=             -5.2878  Tot=              6.6541
 Quadrupole moment (field-independent basis, Debye-Ang):
   XX=            -57.5740   YY=            -57.9913   ZZ=            -64.1718
   XY=             -4.6790   XZ=              1.3398   YZ=             -0.8544

 Normal termination of Gaussian 09 at Tue Feb 14 01:53:00 2017.
