 Gaussian 09, Revision A.02,
 Gaussian 09:  EM64L-G09RevA.02 11-Jun-2009

 -------------------
 #SP MP2/aug-cc-pVDZ
 -------------------

 -------------------------------
 Single Point calculation at MP2
 -------------------------------
 Symbolic Z-matrix:
 Charge =  0 Multiplicity = 1

                         Standard orientation:
 ---------------------------------------------------------------------
 Center     Atomic      Atomic             Coordinates (Angstroms)
 Number     Number       Type             X           Y           Z
 ---------------------------------------------------------------------
      1          1           0       -3.733300   -1.516117    0.313288
      2          6           0       -2.839500   -1.520916   -0.312712
      3          1           0       -3.133300   -1.483516   -1.367712
      4          1           0       -2.305799   -2.463615   -0.139312
      5          6           0       -1.953002   -0.347914    0.097288
      6          8           0       -2.019603    0.159886    1.201888
      7          7           0       -1.114903    0.096787   -0.914312
      8          1           0       -1.077002   -0.520313   -1.716012
      9          6           0        0.115596    0.884089   -0.718812
     10          1           0        0.523096    1.023589   -1.727812
     11          6           0       -0.174606    2.259788   -0.109512
     12          1           0       -0.547406    2.138988    0.907688
     13          1           0        0.741793    2.860390   -0.086512
     14          1           0       -0.924607    2.783587   -0.710312
     15          6           0        1.154597    0.134790    0.151788
     16          8           0        1.044797    0.014590    1.361588
     17          7           0        2.209698   -0.381908   -0.557612
     18          1           0        2.258498   -0.216208   -1.552112
     19          6           0        3.299499   -1.101907    0.077488
     20          1           0        3.081599   -1.137307    1.145888
     21          1           0        3.378400   -2.125807   -0.307312
     22          1           0        4.257398   -0.591205   -0.077312
 ---------------------------------------------------------------------

 SCF Done:  E(RHF) =  -492.909185034     A.U. after   14 cycles
 E2 =    -0.1603307188D+01 EUMP2 =    -0.49451249222136D+03

 The electronic state is 1-A.
 Alpha  occ. eigenvalues --  -20.52769 -20.52710 -15.59995 -15.59836 -11.35897
 Alpha  occ. eigenvalues --  -11.35827 -11.29912 -11.26983 -11.24473 -11.22190
 Alpha  occ. eigenvalues --   -1.38657  -1.37721  -1.24005  -1.22909  -1.05196
 Alpha  occ. eigenvalues --   -0.98752  -0.95904  -0.87249  -0.80282  -0.77138
 Alpha  occ. eigenvalues --   -0.71176  -0.69622  -0.65151  -0.63771  -0.62105
 Alpha  occ. eigenvalues --   -0.61505  -0.59726  -0.58733  -0.56157  -0.55626
 Alpha  occ. eigenvalues --   -0.54746  -0.52870  -0.51488  -0.51038  -0.50410
 Alpha  occ. eigenvalues --   -0.44428  -0.41611  -0.39366  -0.38160
 Alpha virt. eigenvalues --    0.01952   0.03632   0.03834   0.04584   0.05521
 Alpha virt. eigenvalues --    0.05831   0.06192   0.06761   0.07531   0.07678
 Alpha virt. eigenvalues --    0.08625   0.09671   0.10634   0.12110   0.12444

 Mulliken atomic charges:
              1
     1  H   -0.031471
     2  C    0.347539
     3  H   -0.044979
     4  H    0.056266
     5  C    0.697405
     6  O   -0.769640
     7  N   -0.352907
     8  H   -0.077593
     9  C   -0.227611
    10  H   -0.346100
    11  C    0.766188
    12  H    0.048470
    13  H   -0.054889
    14  H   -0.035415
    15  C    1.052944
    16  O   -0.793310
    17  N   -0.476986
    18  H   -0.132849
    19  C    0.743500
    20  H   -0.150733
    21  H   -0.108962
    22  H   -0.108867
 Sum of Mulliken atomic charges =   0.00000

 Dipole moment (field-independent basis, Debye):
    X=              2.0152    Y=             -1.6393    Z=             -6.6141  Tot=              7.1060
 Quadrupole moment (field-independent basis, Debye-Ang):
   XX=            -55.2876   YY=            -57.5731   ZZ=            -64.7759
   XY=              2.7995   XZ=              1.0723   YZ=              0.2615

 Normal termination of Gaussian 09 at Tue Feb 14 01:22:29 2017.
