 Gaussian 09, Revision A.02,
 Gaussian 09:  EM64L-G09RevA.02 11-Jun-2009

 -------------------
 #SP MP2/aug-cc-pVDZ
 -------------------

 -------------------------------
 Single Point calculation at MP2
 -------------------------------
 Symbolic Z-matrix:
 Charge =  0 Multiplicity = 1

                         Standard orientation:
 ---------------------------------------------------------------------
 Center     Atomic      Atomic             Coordinates (Angstroms)
 Number     Number       Type             X           Y           Z
 ---------------------------------------------------------------------
      1          1           0        2.741814   -2.080584    0.749004
      2          6           0        3.002012   -1.108083    0.316304
      3          1           0        3.654112   -1.293182   -0.540996
      4          1           0        3.547010   -0.525182    1.065104
      5          6           0        1.732510   -0.430587   -0.174796
      6          8           0        1.145511   -0.811088   -1.185696
      7          7           0        1.300007    0.630512    0.572704
      8          1           0        1.712807    0.754513    1.486404
      9          6           0       -0.013994    1.258009    0.354404
     10          1           0       -0.145996    1.945909    1.194104
     11          6           0       -0.052696    2.065409   -0.948596
     12          1           0        0.172105    1.443009   -1.817296
     13          1           0       -1.038198    2.522306   -1.083496
     14          1           0        0.696502    2.862711   -0.905596
     15          6           0       -1.143392    0.216806    0.568104
     16          8           0       -1.478691   -0.083795    1.708704
     17          7           0       -1.755590   -0.264996   -0.550796
     18          1           0       -1.180590   -0.266494   -1.384696
     19          6           0       -2.741188   -1.329998   -0.432596
     20          1           0       -3.409888   -1.097300    0.397504
     21          1           0       -3.317987   -1.389500   -1.359496
     22          1           0       -2.276685   -2.305097   -0.234896
 ---------------------------------------------------------------------

 SCF Done:  E(RHF) =  -492.922522885     A.U. after   14 cycles
 E2 =    -0.1602886416D+01 EUMP2 =    -0.49452540930144D+03

 The electronic state is 1-A.
 Alpha  occ. eigenvalues --  -20.54057 -20.52881 -15.60673 -15.58216 -11.37295
 Alpha  occ. eigenvalues --  -11.35337 -11.29648 -11.25826 -11.25343 -11.23504
 Alpha  occ. eigenvalues --   -1.39524  -1.37898  -1.24497  -1.22247  -1.05688
 Alpha  occ. eigenvalues --   -0.99703  -0.94509  -0.88728  -0.80551  -0.76450
 Alpha  occ. eigenvalues --   -0.71764  -0.70285  -0.65129  -0.64069  -0.62258
 Alpha  occ. eigenvalues --   -0.61410  -0.59852  -0.58059  -0.57065  -0.56047
 Alpha  occ. eigenvalues --   -0.54532  -0.53966  -0.52323  -0.51499  -0.50798
 Alpha  occ. eigenvalues --   -0.43763  -0.43296  -0.40044  -0.38242
 Alpha virt. eigenvalues --    0.02937   0.03974   0.04190   0.04789   0.05771
 Alpha virt. eigenvalues --    0.06087   0.06393   0.06724   0.07495   0.08153
 Alpha virt. eigenvalues --    0.08862   0.10134   0.11076   0.11573   0.12735

 Mulliken atomic charges:
              1
     1  H    0.058256
     2  C    0.413315
     3  H    0.023342
     4  H   -0.105157
     5  C    0.609073
     6  O   -0.843347
     7  N   -0.424385
     8  H   -0.091216
     9  C    0.015658
    10  H   -0.180191
    11  C    0.846900
    12  H   -0.045235
    13  H   -0.022582
    14  H   -0.077958
    15  C    0.937877
    16  O   -0.906976
    17  N   -0.642628
    18  H    0.036177
    19  C    0.765688
    20  H   -0.121166
    21  H   -0.185139
    22  H   -0.060307
 Sum of Mulliken atomic charges =   0.00000

 Dipole moment (field-independent basis, Debye):
    X=              2.3912    Y=              1.2830    Z=             -0.4226  Tot=              2.7463
 Quadrupole moment (field-independent basis, Debye-Ang):
   XX=            -54.7550   YY=            -58.1523   ZZ=            -67.4179
   XY=              0.9847   XZ=             10.9671   YZ=              0.1260

 Normal termination of Gaussian 09 at Tue Feb 14 02:21:17 2017.
