 Gaussian 09, Revision A.02,
 Gaussian 09:  EM64L-G09RevA.02 11-Jun-2009

 -------------------
 #SP MP2/aug-cc-pVDZ
 -------------------

 -------------------------------
 Single Point calculation at MP2
 -------------------------------
 Symbolic Z-matrix:
 Charge =  0 Multiplicity = 1

                         Standard orientation:
 ---------------------------------------------------------------------
 Center     Atomic      Atomic             Coordinates (Angstroms)
 Number     Number       Type             X           Y           Z
 ---------------------------------------------------------------------
      1          1           0       -3.101017   -2.039492    0.341699
      2          6           0       -3.049718   -1.046792   -0.111501
      3          1           0       -3.836618   -0.435292    0.344899
      4          1           0       -3.251318   -1.126892   -1.184701
      5          6           0       -1.694418   -0.431492    0.210299
      6          8           0       -1.158518   -0.563491    1.301799
      7          7           0       -1.114018    0.279409   -0.814601
      8          1           0       -1.672318    0.452208   -1.639201
      9          6           0        0.074182    1.124609   -0.626201
     10          1           0        0.346182    1.467609   -1.632901
     11          6           0       -0.202119    2.345809    0.257499
     12          1           0       -0.514319    2.025009    1.254199
     13          1           0        0.707481    2.940909    0.357599
     14          1           0       -0.991819    2.962409   -0.185601
     15          6           0        1.312682    0.347709   -0.115001
     16          8           0        2.202382    0.931510    0.489599
     17          7           0        1.389682   -0.958491   -0.494301
     18          1           0        0.542583   -1.384191   -0.841101
     19          6           0        2.445683   -1.827690   -0.005301
     20          1           0        3.313582   -1.207090    0.221299
     21          1           0        2.146783   -2.357290    0.908799
     22          1           0        2.712483   -2.561390   -0.772601
 ---------------------------------------------------------------------

 SCF Done:  E(RHF) =  -492.921255542     A.U. after   14 cycles
 E2 =    -0.1603511953D+01 EUMP2 =    -0.49452476749513D+03

 The electronic state is 1-A.
 Alpha  occ. eigenvalues --  -20.54293 -20.52261 -15.61103 -15.58332 -11.37476
 Alpha  occ. eigenvalues --  -11.35364 -11.29766 -11.25901 -11.25846 -11.22237
 Alpha  occ. eigenvalues --   -1.39813  -1.37641  -1.25142  -1.21960  -1.05505
 Alpha  occ. eigenvalues --   -0.99740  -0.95242  -0.87526  -0.80963  -0.77167
 Alpha  occ. eigenvalues --   -0.71707  -0.70144  -0.65152  -0.64019  -0.62252
 Alpha  occ. eigenvalues --   -0.61259  -0.60048  -0.59118  -0.57666  -0.55896
 Alpha  occ. eigenvalues --   -0.53967  -0.53219  -0.52076  -0.51589  -0.50171
 Alpha  occ. eigenvalues --   -0.43681  -0.42864  -0.39911  -0.38274
 Alpha virt. eigenvalues --    0.02107   0.03669   0.03871   0.04660   0.05813
 Alpha virt. eigenvalues --    0.06181   0.06369   0.06518   0.07185   0.08450
 Alpha virt. eigenvalues --    0.08767   0.09123   0.11397   0.12236   0.12283

 Mulliken atomic charges:
              1
     1  H    0.017452
     2  C    0.422502
     3  H    0.050413
     4  H   -0.112964
     5  C    0.569778
     6  O   -0.816508
     7  N   -0.167060
     8  H   -0.122832
     9  C   -0.328077
    10  H   -0.132360
    11  C    0.782332
    12  H   -0.045816
    13  H   -0.046347
    14  H   -0.042470
    15  C    1.053090
    16  O   -0.844615
    17  N   -0.495393
    18  H   -0.077692
    19  C    0.705710
    20  H   -0.130852
    21  H   -0.082704
    22  H   -0.155588
 Sum of Mulliken atomic charges =   0.00000

 Dipole moment (field-independent basis, Debye):
    X=             -4.1608    Y=             -1.4338    Z=             -4.7718  Tot=              6.4913
 Quadrupole moment (field-independent basis, Debye-Ang):
   XX=            -59.7973   YY=            -57.7415   ZZ=            -63.4645
   XY=             -5.3055   XZ=              2.3513   YZ=             -0.5924

 Normal termination of Gaussian 09 at Tue Feb 14 02:25:08 2017.
