 Gaussian 09, Revision A.02,
 Gaussian 09:  EM64L-G09RevA.02 11-Jun-2009

 -------------------
 #SP MP2/aug-cc-pVDZ
 -------------------

 -------------------------------
 Single Point calculation at MP2
 -------------------------------
 Symbolic Z-matrix:
 Charge =  0 Multiplicity = 1

                         Standard orientation:
 ---------------------------------------------------------------------
 Center     Atomic      Atomic             Coordinates (Angstroms)
 Number     Number       Type             X           Y           Z
 ---------------------------------------------------------------------
      1          1           0       -3.742083   -1.080522    0.858606
      2          6           0       -3.096883   -1.032617   -0.020394
      3          1           0       -3.668586   -0.662222   -0.877794
      4          1           0       -2.749175   -2.047215   -0.249594
      5          6           0       -1.891490   -0.163408    0.297206
      6          8           0       -1.481891    0.004595    1.437006
      7          7           0       -1.303794    0.436496   -0.800794
      8          1           0       -1.521091   -0.008205   -1.683894
      9          6           0        0.066802    0.934007   -0.707794
     10          1           0        0.338300    1.234109   -1.728794
     11          6           0        0.176492    2.178108    0.187006
     12          1           0        0.035394    1.919507    1.237206
     13          1           0        1.143089    2.679115    0.051906
     14          1           0       -0.599513    2.894602   -0.098394
     15          6           0        1.024411   -0.240286   -0.361394
     16          8           0        0.702220   -1.399488   -0.589294
     17          7           0        2.270308    0.114524    0.067206
     18          1           0        2.412901    1.058425    0.394406
     19          6           0        3.265616   -0.883669    0.426006
     20          1           0        3.048823   -1.791370   -0.138094
     21          1           0        4.265513   -0.521661    0.167506
     22          1           0        3.238518   -1.125369    1.496506
 ---------------------------------------------------------------------

 SCF Done:  E(RHF) =  -492.921077279     A.U. after   15 cycles
 E2 =    -0.1601735682D+01 EUMP2 =    -0.49452281296112D+03

 The electronic state is 1-A.
 Alpha  occ. eigenvalues --  -20.52984 -20.52954 -15.59521 -15.58916 -11.35894
 Alpha  occ. eigenvalues --  -11.35752 -11.29662 -11.26685 -11.23937 -11.23633
 Alpha  occ. eigenvalues --   -1.38971  -1.37733  -1.23385  -1.23116  -1.05217
 Alpha  occ. eigenvalues --   -0.98761  -0.95191  -0.88373  -0.79807  -0.76780
 Alpha  occ. eigenvalues --   -0.71395  -0.69819  -0.65177  -0.63569  -0.61600
 Alpha  occ. eigenvalues --   -0.61424  -0.59619  -0.58332  -0.56151  -0.55881
 Alpha  occ. eigenvalues --   -0.54845  -0.54092  -0.52915  -0.50778  -0.49797
 Alpha  occ. eigenvalues --   -0.42941  -0.41995  -0.39754  -0.39357
 Alpha virt. eigenvalues --    0.02864   0.03750   0.04444   0.04666   0.05878
 Alpha virt. eigenvalues --    0.06068   0.06202   0.06737   0.07603   0.08034
 Alpha virt. eigenvalues --    0.09070   0.09336   0.11270   0.11662   0.12957

 Mulliken atomic charges:
              1
     1  H   -0.025655
     2  C    0.346194
     3  H   -0.028335
     4  H    0.075799
     5  C    0.695099
     6  O   -0.852653
     7  N   -0.448883
     8  H   -0.048270
     9  C    0.072195
    10  H   -0.112291
    11  C    0.681084
    12  H    0.001251
    13  H   -0.043676
    14  H   -0.095758
    15  C    0.873475
    16  O   -0.855351
    17  N   -0.476557
    18  H   -0.107897
    19  C    0.729383
    20  H   -0.135355
    21  H   -0.171853
    22  H   -0.071945
 Sum of Mulliken atomic charges =   0.00000

 Dipole moment (field-independent basis, Debye):
    X=              1.2148    Y=              2.3697    Z=             -2.3377  Tot=              3.5434
 Quadrupole moment (field-independent basis, Debye-Ang):
   XX=            -49.2372   YY=            -62.2670   ZZ=            -63.7574
   XY=              5.0880   XZ=              7.2862   YZ=             -1.3930

 Normal termination of Gaussian 09 at Tue Feb 14 01:53:07 2017.
