 Gaussian 09, Revision A.02,
 Gaussian 09:  EM64L-G09RevA.02 11-Jun-2009

 -------------------
 #SP MP2/aug-cc-pVDZ
 -------------------

 -------------------------------
 Single Point calculation at MP2
 -------------------------------
 Symbolic Z-matrix:
 Charge =  0 Multiplicity = 1

                         Standard orientation:
 ---------------------------------------------------------------------
 Center     Atomic      Atomic             Coordinates (Angstroms)
 Number     Number       Type             X           Y           Z
 ---------------------------------------------------------------------
      1          1           0       -3.215788   -2.072740    0.478804
      2          6           0       -3.093699   -1.190338   -0.153096
      3          1           0       -3.922607   -0.507248    0.066504
      4          1           0       -3.158095   -1.486339   -1.205496
      5          6           0       -1.776907   -0.512823    0.209404
      6          8           0       -1.360707   -0.466318    1.355704
      7          7           0       -1.094913    0.030486   -0.856596
      8          1           0       -1.596114    0.080480   -1.733596
      9          6           0        0.040976    0.958799   -0.718796
     10          1           0        0.396974    1.130303   -1.741296
     11          6           0       -0.359140    2.290594   -0.080096
     12          1           0       -0.681338    2.124791    0.949304
     13          1           0        0.493051    2.976505   -0.062296
     14          1           0       -1.172046    2.753785   -0.650296
     15          6           0        1.216683    0.315313    0.064804
     16          8           0        1.572779    0.705818    1.163104
     17          7           0        1.925894   -0.603278   -0.669996
     18          1           0        1.448199   -1.015184   -1.461596
     19          6           0        2.987604   -1.387865   -0.057896
     20          1           0        3.490896   -0.756359    0.675404
     21          1           0        2.606515   -2.278970    0.459004
     22          1           0        3.703808   -1.697557   -0.824696
 ---------------------------------------------------------------------

 SCF Done:  E(RHF) =  -492.914400738     A.U. after   14 cycles
 E2 =    -0.1602891403D+01 EUMP2 =    -0.49451729214095D+03

 The electronic state is 1-A.
 Alpha  occ. eigenvalues --  -20.53365 -20.52556 -15.60515 -15.58875 -11.36629
 Alpha  occ. eigenvalues --  -11.35364 -11.29764 -11.26200 -11.25206 -11.22293
 Alpha  occ. eigenvalues --   -1.39026  -1.37793  -1.24495  -1.22200  -1.05258
 Alpha  occ. eigenvalues --   -0.99256  -0.95364  -0.87250  -0.80730  -0.76795
 Alpha  occ. eigenvalues --   -0.70850  -0.69605  -0.64603  -0.64478  -0.62079
 Alpha  occ. eigenvalues --   -0.61052  -0.60029  -0.58663  -0.57165  -0.55968
 Alpha  occ. eigenvalues --   -0.54091  -0.52678  -0.51902  -0.51190  -0.50612
 Alpha  occ. eigenvalues --   -0.43393  -0.41935  -0.39589  -0.38695
 Alpha virt. eigenvalues --    0.02051   0.03608   0.03775   0.04591   0.05704
 Alpha virt. eigenvalues --    0.05995   0.06171   0.06544   0.07269   0.08127
 Alpha virt. eigenvalues --    0.08777   0.09200   0.10720   0.12046   0.12632

 Mulliken atomic charges:
              1
     1  H    0.007865
     2  C    0.370481
     3  H    0.051981
     4  H   -0.097416
     5  C    0.645038
     6  O   -0.806593
     7  N   -0.336548
     8  H   -0.134653
     9  C   -0.233965
    10  H   -0.202376
    11  C    0.744166
    12  H    0.018026
    13  H   -0.059700
    14  H   -0.011552
    15  C    1.084908
    16  O   -0.790135
    17  N   -0.561223
    18  H   -0.078410
    19  C    0.741932
    20  H   -0.115987
    21  H   -0.070627
    22  H   -0.165215
 Sum of Mulliken atomic charges =   0.00000

 Dipole moment (field-independent basis, Debye):
    X=             -1.9458    Y=             -1.3616    Z=             -6.4657  Tot=              6.8881
 Quadrupole moment (field-independent basis, Debye-Ang):
   XX=            -54.2771   YY=            -58.2116   ZZ=            -64.9395
   XY=             -3.3333   XZ=              1.1864   YZ=             -0.3257

 Normal termination of Gaussian 09 at Tue Feb 14 03:03:31 2017.
