 Gaussian 09, Revision A.02,
 Gaussian 09:  EM64L-G09RevA.02 11-Jun-2009

 -------------------
 #SP MP2/aug-cc-pVDZ
 -------------------

 -------------------------------
 Single Point calculation at MP2
 -------------------------------
 Symbolic Z-matrix:
 Charge =  0 Multiplicity = 1

                         Standard orientation:
 ---------------------------------------------------------------------
 Center     Atomic      Atomic             Coordinates (Angstroms)
 Number     Number       Type             X           Y           Z
 ---------------------------------------------------------------------
      1          1           0       -3.931689   -0.484717    0.386997
      2          6           0       -3.217987   -0.734612   -0.404503
      3          1           0       -3.520991   -0.228614   -1.326203
      4          1           0       -3.267880   -1.816712   -0.557103
      5          6           0       -1.819890   -0.372803    0.073897
      6          8           0       -1.331686   -0.911500    1.070397
      7          7           0       -1.167096    0.563101   -0.664703
      8          1           0       -1.647098    0.906798   -1.483903
      9          6           0        0.131200    1.202010   -0.380503
     10          1           0        0.342496    1.822311   -1.255503
     11          6           0        0.041294    2.115609    0.856697
     12          1           0       -0.212502    1.527108    1.743197
     13          1           0        1.005891    2.603716    1.016597
     14          1           0       -0.728111    2.881504    0.712697
     15          6           0        1.394606    0.312518   -0.259503
     16          8           0        2.484302    0.869525   -0.357703
     17          7           0        1.241714   -1.027683   -0.109803
     18          1           0        0.366716   -1.331889    0.312197
     19          6           0        2.417720   -1.864075    0.081397
     20          1           0        3.179018   -1.584570   -0.649403
     21          1           0        2.852519   -1.749072    1.083297
     22          1           0        2.136727   -2.909877   -0.067803
 ---------------------------------------------------------------------

 SCF Done:  E(RHF) =  -492.922046538     A.U. after   14 cycles
 E2 =    -0.1603858432D+01 EUMP2 =    -0.49452590497062D+03

 The electronic state is 1-A.
 Alpha  occ. eigenvalues --  -20.54620 -20.52300 -15.61621 -15.57663 -11.38227
 Alpha  occ. eigenvalues --  -11.35264 -11.30089 -11.26120 -11.25608 -11.23220
 Alpha  occ. eigenvalues --   -1.40107  -1.37616  -1.25414  -1.21787  -1.06034
 Alpha  occ. eigenvalues --   -1.00160  -0.94714  -0.88427  -0.81287  -0.76723
 Alpha  occ. eigenvalues --   -0.72398  -0.70717  -0.65022  -0.63463  -0.62465
 Alpha  occ. eigenvalues --   -0.61248  -0.60362  -0.59231  -0.57922  -0.56169
 Alpha  occ. eigenvalues --   -0.54436  -0.54073  -0.52123  -0.51853  -0.49540
 Alpha  occ. eigenvalues --   -0.44082  -0.43551  -0.40043  -0.38071
 Alpha virt. eigenvalues --    0.02321   0.03906   0.04270   0.04539   0.05873
 Alpha virt. eigenvalues --    0.06298   0.06326   0.06740   0.07612   0.08095
 Alpha virt. eigenvalues --    0.09014   0.09755   0.10980   0.12061   0.12168

 Mulliken atomic charges:
              1
     1  H    0.053296
     2  C    0.409734
     3  H   -0.138284
     4  H    0.043091
     5  C    0.598399
     6  O   -0.897771
     7  N   -0.126053
     8  H   -0.128519
     9  C   -0.356530
    10  H   -0.062816
    11  C    0.742571
    12  H   -0.039387
    13  H   -0.044127
    14  H   -0.067199
    15  C    1.002114
    16  O   -0.897049
    17  N   -0.451457
    18  H   -0.039045
    19  C    0.762680
    20  H   -0.123004
    21  H   -0.050500
    22  H   -0.190143
 Sum of Mulliken atomic charges =   0.00000

 Dipole moment (field-independent basis, Debye):
    X=             -4.5916    Y=             -0.0358    Z=             -2.2131  Tot=              5.0973
 Quadrupole moment (field-independent basis, Debye-Ang):
   XX=            -62.8655   YY=            -58.7333   ZZ=            -61.9346
   XY=             -7.6994   XZ=              7.3549   YZ=              0.8394

 Normal termination of Gaussian 09 at Tue Feb 14 02:09:25 2017.
