 Gaussian 09, Revision A.02,
 Gaussian 09:  EM64L-G09RevA.02 11-Jun-2009

 -------------------
 #SP MP2/aug-cc-pVDZ
 -------------------

 -------------------------------
 Single Point calculation at MP2
 -------------------------------
 Symbolic Z-matrix:
 Charge =  0 Multiplicity = 1

                         Standard orientation:
 ---------------------------------------------------------------------
 Center     Atomic      Atomic             Coordinates (Angstroms)
 Number     Number       Type             X           Y           Z
 ---------------------------------------------------------------------
      1          1           0       -3.268504   -1.927806    0.142397
      2          6           0       -3.148004   -0.901906   -0.213103
      3          1           0       -3.893404   -0.284105    0.300797
      4          1           0       -3.349904   -0.863906   -1.288503
      5          6           0       -1.755804   -0.413106    0.163997
      6          8           0       -1.224904   -0.715106    1.227697
      7          7           0       -1.144404    0.386194   -0.764503
      8          1           0       -1.665204    0.612294   -1.599903
      9          6           0        0.093496    1.145994   -0.539303
     10          1           0        0.340497    1.586094   -1.512903
     11          6           0       -0.109603    2.281694    0.474997
     12          1           0       -0.411403    1.870294    1.441997
     13          1           0        0.826897    2.827293    0.603097
     14          1           0       -0.886403    2.969394    0.123997
     15          6           0        1.353796    0.325793   -0.167303
     16          8           0        2.362796    0.927193    0.182997
     17          7           0        1.322096   -1.019507   -0.375703
     18          1           0        0.412996   -1.457207   -0.368103
     19          6           0        2.450996   -1.844907    0.027497
     20          1           0        3.371796   -1.304707   -0.195603
     21          1           0        2.434096   -2.069407    1.102197
     22          1           0        2.432295   -2.783107   -0.534303
 ---------------------------------------------------------------------

 SCF Done:  E(RHF) =  -492.920763580     A.U. after   14 cycles
 E2 =    -0.1603292050D+01 EUMP2 =    -0.49452405563016D+03

 The electronic state is 1-A.
 Alpha  occ. eigenvalues --  -20.54435 -20.52428 -15.61216 -15.58325 -11.37718
 Alpha  occ. eigenvalues --  -11.35479 -11.29955 -11.26012 -11.25801 -11.22479
 Alpha  occ. eigenvalues --   -1.39913  -1.37820  -1.25187  -1.22033  -1.05687
 Alpha  occ. eigenvalues --   -0.99875  -0.95031  -0.87883  -0.81060  -0.77189
 Alpha  occ. eigenvalues --   -0.72076  -0.70285  -0.65156  -0.63834  -0.62389
 Alpha  occ. eigenvalues --   -0.61308  -0.60237  -0.59124  -0.57774  -0.55849
 Alpha  occ. eigenvalues --   -0.54155  -0.53601  -0.51955  -0.51856  -0.49886
 Alpha  occ. eigenvalues --   -0.43885  -0.43184  -0.40173  -0.38242
 Alpha virt. eigenvalues --    0.02215   0.03733   0.04048   0.04626   0.05900
 Alpha virt. eigenvalues --    0.06209   0.06364   0.06743   0.07132   0.08309
 Alpha virt. eigenvalues --    0.08913   0.09107   0.11671   0.12039   0.12237

 Mulliken atomic charges:
              1
     1  H    0.014597
     2  C    0.401230
     3  H    0.051721
     4  H   -0.102091
     5  C    0.543911
     6  O   -0.814538
     7  N   -0.094327
     8  H   -0.132976
     9  C   -0.370489
    10  H   -0.070794
    11  C    0.769872
    12  H   -0.048524
    13  H   -0.047176
    14  H   -0.053770
    15  C    0.988289
    16  O   -0.854448
    17  N   -0.476636
    18  H   -0.051875
    19  C    0.714649
    20  H   -0.127072
    21  H   -0.065497
    22  H   -0.174056
 Sum of Mulliken atomic charges =   0.00000

 Dipole moment (field-independent basis, Debye):
    X=             -4.4004    Y=             -0.9420    Z=             -3.8166  Tot=              5.9006
 Quadrupole moment (field-independent basis, Debye-Ang):
   XX=            -61.0591   YY=            -58.0704   ZZ=            -62.9883
   XY=             -6.3748   XZ=              4.0553   YZ=             -0.1750

 Normal termination of Gaussian 09 at Tue Feb 14 02:12:59 2017.
