 Gaussian 09, Revision A.02,
 Gaussian 09:  EM64L-G09RevA.02 11-Jun-2009

 -------------------
 #SP MP2/aug-cc-pVDZ
 -------------------

 -------------------------------
 Single Point calculation at MP2
 -------------------------------
 Symbolic Z-matrix:
 Charge =  0 Multiplicity = 1

                         Standard orientation:
 ---------------------------------------------------------------------
 Center     Atomic      Atomic             Coordinates (Angstroms)
 Number     Number       Type             X           Y           Z
 ---------------------------------------------------------------------
      1          1           0       -3.791081   -1.125251    0.664109
      2          6           0       -3.076382   -1.068944   -0.158591
      3          1           0       -3.588585   -0.741749   -1.069891
      4          1           0       -2.667072   -2.071240   -0.333291
      5          6           0       -1.938191   -0.142233    0.236609
      6          8           0       -1.654793    0.091970    1.401009
      7          7           0       -1.271897    0.439173   -0.831891
      8          1           0       -1.424892   -0.039428   -1.711391
      9          6           0        0.095799    0.922087   -0.669691
     10          1           0        0.421996    1.226890   -1.672991
     11          6           0        0.177087    2.157488    0.243509
     12          1           0       -0.030411    1.888986    1.279309
     13          1           0        1.160682    2.638397    0.178209
     14          1           0       -0.566521    2.891880   -0.080191
     15          6           0        1.030210   -0.250104   -0.254291
     16          8           0        0.633521   -1.407008   -0.214691
     17          7           0        2.340207    0.093709   -0.074891
     18          1           0        2.575097    1.073011   -0.006591
     19          6           0        3.346416   -0.876281    0.326009
     20          1           0        2.954426   -1.869185    0.102909
     21          1           0        4.273115   -0.715272   -0.234591
     22          1           0        3.565616   -0.818979    1.400009
 ---------------------------------------------------------------------

 SCF Done:  E(RHF) =  -492.919091096     A.U. after   15 cycles
 E2 =    -0.1601754926D+01 EUMP2 =    -0.49452084602164D+03

 The electronic state is 1-A.
 Alpha  occ. eigenvalues --  -20.53194 -20.52634 -15.59644 -15.58809 -11.36012
 Alpha  occ. eigenvalues --  -11.35540 -11.29718 -11.26845 -11.23710 -11.23547
 Alpha  occ. eigenvalues --   -1.39014  -1.37583  -1.23451  -1.23086  -1.05135
 Alpha  occ. eigenvalues --   -0.98575  -0.95354  -0.88143  -0.79794  -0.76782
 Alpha  occ. eigenvalues --   -0.71305  -0.69677  -0.65262  -0.63205  -0.61782
 Alpha  occ. eigenvalues --   -0.61659  -0.59414  -0.58291  -0.56098  -0.55968
 Alpha  occ. eigenvalues --   -0.54816  -0.53797  -0.53021  -0.50660  -0.49722
 Alpha  occ. eigenvalues --   -0.43305  -0.41709  -0.39596  -0.39252
 Alpha virt. eigenvalues --    0.02675   0.03750   0.04397   0.04662   0.05792
 Alpha virt. eigenvalues --    0.06001   0.06250   0.06777   0.07649   0.08265
 Alpha virt. eigenvalues --    0.08896   0.09143   0.11548   0.11955   0.12720

 Mulliken atomic charges:
              1
     1  H   -0.034712
     2  C    0.343717
     3  H   -0.026533
     4  H    0.078831
     5  C    0.737359
     6  O   -0.852276
     7  N   -0.481528
     8  H   -0.048862
     9  C    0.037201
    10  H   -0.123248
    11  C    0.667189
    12  H    0.033746
    13  H   -0.131175
    14  H   -0.041168
    15  C    0.936728
    16  O   -0.818975
    17  N   -0.521585
    18  H   -0.096468
    19  C    0.718327
    20  H   -0.142696
    21  H   -0.157142
    22  H   -0.076730
 Sum of Mulliken atomic charges =   0.00000

 Dipole moment (field-independent basis, Debye):
    X=              1.9612    Y=              2.1387    Z=             -3.2085  Tot=              4.3261
 Quadrupole moment (field-independent basis, Debye-Ang):
   XX=            -49.6316   YY=            -62.1602   ZZ=            -63.4131
   XY=              5.5002   XZ=              6.5657   YZ=             -0.5419

 Normal termination of Gaussian 09 at Tue Feb 14 02:13:59 2017.
