 Gaussian 09, Revision A.02,
 Gaussian 09:  EM64L-G09RevA.02 11-Jun-2009

 -------------------
 #SP MP2/aug-cc-pVDZ
 -------------------

 -------------------------------
 Single Point calculation at MP2
 -------------------------------
 Symbolic Z-matrix:
 Charge =  0 Multiplicity = 1

                         Standard orientation:
 ---------------------------------------------------------------------
 Center     Atomic      Atomic             Coordinates (Angstroms)
 Number     Number       Type             X           Y           Z
 ---------------------------------------------------------------------
      1          1           0       -3.691008   -0.941464    0.967213
      2          6           0       -3.404305   -0.391566    0.065713
      3          1           0       -3.799299    0.626937    0.129013
      4          1           0       -3.867608   -0.899363   -0.785587
      5          6           0       -1.890606   -0.475775   -0.091887
      6          8           0       -1.352412   -1.581279   -0.178187
      7          7           0       -1.256198    0.727521   -0.121087
      8          1           0       -1.877393    1.518625   -0.016087
      9          6           0        0.140505    1.184312   -0.326787
     10          1           0        0.193507    1.581212   -1.348387
     11          6           0        0.396812    2.349110    0.646813
     12          1           0        0.363210    1.997511    1.683513
     13          1           0        1.381415    2.773604    0.444913
     14          1           0       -0.356083    3.138015    0.522313
     15          6           0        1.372399    0.242904   -0.255187
     16          8           0        2.434802    0.737098   -0.629087
     17          7           0        1.267991   -0.985795    0.291813
     18          1           0        0.340689   -1.416789    0.283213
     19          6           0        2.440986   -1.845203    0.343313
     20          1           0        3.279889   -1.296308    0.777313
     21          1           0        2.211780   -2.712601    0.967413
     22          1           0        2.744484   -2.190704   -0.653587
 ---------------------------------------------------------------------

 SCF Done:  E(RHF) =  -492.912508729     A.U. after   14 cycles
 E2 =    -0.1604698781D+01 EUMP2 =    -0.49451720750950D+03

 The electronic state is 1-A.
 Alpha  occ. eigenvalues --  -20.54689 -20.52013 -15.61890 -15.57250 -11.38573
 Alpha  occ. eigenvalues --  -11.35481 -11.30509 -11.26054 -11.25401 -11.24332
 Alpha  occ. eigenvalues --   -1.40148  -1.37504  -1.25617  -1.21670  -1.06517
 Alpha  occ. eigenvalues --   -1.00189  -0.94775  -0.88113  -0.82303  -0.76890
 Alpha  occ. eigenvalues --   -0.71188  -0.70560  -0.66596  -0.63092  -0.62287
 Alpha  occ. eigenvalues --   -0.62052  -0.60142  -0.58748  -0.57950  -0.56393
 Alpha  occ. eigenvalues --   -0.54574  -0.53643  -0.53242  -0.52128  -0.49770
 Alpha  occ. eigenvalues --   -0.44110  -0.41778  -0.41069  -0.37869
 Alpha virt. eigenvalues --    0.02329   0.04062   0.04256   0.04591   0.05676
 Alpha virt. eigenvalues --    0.06151   0.06566   0.06834   0.07007   0.08035
 Alpha virt. eigenvalues --    0.09048   0.10017   0.11516   0.11958   0.12548

 Mulliken atomic charges:
              1
     1  H    0.036587
     2  C    0.467983
     3  H   -0.200787
     4  H    0.047274
     5  C    0.512915
     6  O   -0.916329
     7  N   -0.519263
     8  H   -0.006365
     9  C    0.284223
    10  H   -0.019973
    11  C    0.571082
    12  H   -0.037994
    13  H   -0.034582
    14  H   -0.124275
    15  C    0.861699
    16  O   -0.896644
    17  N   -0.416264
    18  H   -0.003610
    19  C    0.741353
    20  H   -0.113418
    21  H   -0.194036
    22  H   -0.039574
 Sum of Mulliken atomic charges =   0.00000

 Dipole moment (field-independent basis, Debye):
    X=             -4.6944    Y=              1.7492    Z=              1.2524  Tot=              5.1639
 Quadrupole moment (field-independent basis, Debye-Ang):
   XX=            -61.0931   YY=            -60.4752   ZZ=            -62.0520
   XY=             -9.9154   XZ=              3.2875   YZ=             -0.2265

 Normal termination of Gaussian 09 at Tue Feb 14 03:31:46 2017.
